/*--------------------------------*- C++ -*----------------------------------*\
| =========                 |                                                 |
| \\      /  F ield         | OpenFOAM: The Open Source CFD Toolbox           |
|  \\    /   O peration     | Version:  5.x                                   |
|   \\  /    A nd           | Web:      www.OpenFOAM.org                      |
|    \\/     M anipulation  |                                                 |
\*---------------------------------------------------------------------------*/
FoamFile
{
    version     2.0;
    format      ascii;
    class       volScalarField;
    location    "0.05";
    object      Ksl;
}
// * * * * * * * * * * * * * * * * * * * * * * * * * * * * * * * * * * * * * //

dimensions      [1 -3 -1 0 0 0 0];

internalField   nonuniform List<scalar> 
160
(
0.0187511
0.0445395
0.0321295
0.00630732
0.00144405
0.00384191
0.00272021
0.000449929
2.67505e-05
8.96253e-05
6.3372e-05
8.91288e-06
0
0
0
0
0
0
0
0
0
0
0
0
0
0
0
0
0
0
0
0
0
0
0
0
0
0
0
0
0.0445395
0.815605
0.414745
0.0325641
0.00384191
0.0154012
0.0103779
0.00269122
8.96253e-05
0.000847716
0.000486432
6.47103e-05
0
1.73362e-05
1.11525e-05
0
0
0
0
0
0
0
0
0
0
0
0
0
0
0
0
0
0
0
0
0
0
0
0
0
0.0321295
0.414745
0.353874
0.0178026
0.00272021
0.0103779
0.00615644
0.00185131
6.3372e-05
0.000486432
0.00036642
3.76064e-05
0
1.11525e-05
7.084e-06
0
0
0
0
0
0
0
0
0
0
0
0
0
0
0
0
0
0
0
0
0
0
0
0
0
0.00630732
0.0325641
0.0178026
0.00693003
0.000449929
0.00269122
0.00185131
0.000928882
8.91288e-06
6.47103e-05
3.76064e-05
0
0
0
0
0
0
0
0
0
0
0
0
0
0
0
0
0
0
0
0
0
0
0
0
0
0
0
0
0
)
;

boundaryField
{
    inlet
    {
        type            zeroGradient;
    }
    outlet
    {
        type            zeroGradient;
    }
    walls
    {
        type            zeroGradient;
    }
    procBoundary1to0
    {
        type            processor;
        value           nonuniform List<scalar> 
16
(
0.577233
1.89281
1.18065
0.270518
1.89281
3.7649
1.72503
1.15616
1.18065
1.72503
1.21097
0.999362
0.270518
1.15616
0.999362
0.187281
)
;
    }
}


// ************************************************************************* //
