/*--------------------------------*- C++ -*----------------------------------*\
| =========                 |                                                 |
| \\      /  F ield         | OpenFOAM: The Open Source CFD Toolbox           |
|  \\    /   O peration     | Version:  5.x                                   |
|   \\  /    A nd           | Web:      www.OpenFOAM.org                      |
|    \\/     M anipulation  |                                                 |
\*---------------------------------------------------------------------------*/
FoamFile
{
    version     2.0;
    format      ascii;
    class       surfaceScalarField;
    location    "0.05";
    object      phi;
}
// * * * * * * * * * * * * * * * * * * * * * * * * * * * * * * * * * * * * * //

dimensions      [0 3 -1 0 0 0 0];

internalField   nonuniform List<scalar> 
384
(
4.26717e-11
1.48753e-11
4.26717e-11
7.17602e-12
-1.38447e-11
4.25466e-10
-4.87652e-11
-1.13453e-11
3.6508e-10
1.20399e-11
6.61683e-11
1.19595e-11
9.53984e-12
1.19595e-11
6.28782e-13
-8.32301e-12
9.07259e-11
-1.23867e-11
-1.08587e-11
7.03655e-11
8.52422e-12
2.35462e-11
1.30797e-11
4.13118e-12
1.30797e-11
1.30802e-12
-3.09221e-12
6.76648e-11
-1.61008e-11
-5.45593e-12
5.70984e-11
4.81382e-12
2.27e-11
3.29486e-12
2.54802e-12
3.29486e-12
3.21456e-13
-2.29583e-12
1.9433e-11
-4.50776e-12
-3.76204e-12
1.58654e-11
3.37656e-12
8.19379e-12
3.18742e-12
1.16131e-12
3.18742e-12
4.8581e-14
-7.31225e-13
1.05628e-11
-4.1895e-12
-1.54533e-12
9.20676e-12
1.68356e-12
6.21647e-12
1.00973e-12
6.83832e-13
1.00973e-12
1.2689e-13
-5.45925e-13
4.18741e-12
-1.3636e-12
-8.83856e-13
3.69155e-12
1.06037e-12
2.54546e-12
7.32038e-13
3.43876e-13
7.32038e-13
-3.92319e-17
-1.47923e-13
1.78315e-12
-9.40255e-13
-3.52029e-13
1.71888e-12
5.12603e-13
1.57544e-12
3.11222e-13
1.93753e-13
3.11222e-13
6.22078e-14
-1.04036e-13
8.72524e-13
-3.4528e-13
-1.71557e-13
8.49773e-13
2.82386e-13
7.34759e-13
1.90414e-13
9.18209e-14
1.90414e-13
2.89648e-14
-3.50185e-14
3.78565e-13
-1.84051e-13
-7.11266e-14
4.02245e-13
1.30076e-13
4.09752e-13
9.35236e-14
9.35236e-14
3.3933e-14
1.8093e-13
-6.2299e-14
1.97009e-13
2.06019e-13
4.25466e-10
-1.38447e-11
7.17602e-12
-6.29767e-11
-4.24263e-10
-6.29767e-11
-3.71452e-10
-2.77062e-10
2.73072e-11
-2.6945e-11
-5.85366e-12
9.07259e-11
-8.32301e-12
6.28782e-13
-1.2521e-11
-2.17769e-10
-1.2521e-11
-6.4846e-11
-1.55675e-10
1.30418e-12
-2.04718e-11
6.10919e-13
6.76648e-11
-3.09221e-12
1.30802e-12
-4.64505e-12
-7.31492e-11
-4.64505e-12
-5.26318e-11
-5.41673e-11
3.57712e-12
-1.13688e-11
1.02565e-12
1.9433e-11
-2.29583e-12
3.21456e-13
-1.35267e-13
-3.40125e-11
-1.35267e-13
-1.25372e-11
-2.67764e-11
8.7645e-13
-6.70756e-12
1.08649e-12
1.05628e-11
-7.31225e-13
4.8581e-14
2.25865e-13
-1.33387e-11
2.25865e-13
-7.3945e-12
-1.09164e-11
9.6716e-13
-3.17302e-12
1.18777e-12
4.18741e-12
-5.45925e-13
1.2689e-13
3.06442e-13
-5.57673e-12
3.06442e-13
-2.54122e-12
-4.84392e-12
4.66728e-13
-1.64329e-12
6.26381e-13
1.78315e-12
-1.47923e-13
-3.92091e-17
1.93787e-13
-2.398e-12
1.93788e-13
-1.10219e-12
-2.19574e-12
3.66685e-13
-7.7108e-13
5.57679e-13
8.72524e-13
-1.04036e-13
6.22078e-14
1.58322e-13
-9.69593e-13
1.58322e-13
-4.60664e-13
-9.4595e-13
2.18971e-13
-3.71613e-13
2.89039e-13
3.78565e-13
-3.50185e-14
2.89648e-14
9.76988e-14
-4.07864e-13
9.76988e-14
-1.7662e-13
-4.16257e-13
1.46866e-13
-1.73267e-13
2.07767e-13
1.8093e-13
3.3933e-14
7.02177e-14
7.02177e-14
-5.20494e-14
9.43814e-14
1.2167e-13
3.6508e-10
-1.13453e-11
-4.87652e-11
2.73072e-11
-2.77062e-10
-3.71452e-10
-3.64681e-10
-3.02737e-10
-3.64681e-10
-1.50962e-11
-4.14092e-11
7.03655e-11
-1.08587e-11
-1.23867e-11
1.30418e-12
-1.55675e-10
-6.4846e-11
-6.15462e-11
-1.77036e-10
-6.15462e-11
-1.13153e-11
-7.98082e-12
5.70984e-11
-5.45593e-12
-1.61008e-11
3.57712e-12
-5.41673e-11
-5.26318e-11
-5.5781e-11
-5.83197e-11
-5.5781e-11
-5.70967e-12
-1.00007e-11
1.58654e-11
-3.76204e-12
-4.50776e-12
8.7645e-13
-2.67764e-11
-1.25372e-11
-1.36159e-11
-2.9335e-11
-1.36159e-11
-4.04675e-12
-1.5307e-12
9.20676e-12
-1.54533e-12
-4.1895e-12
9.67159e-13
-1.09164e-11
-7.3945e-12
-7.82956e-12
-1.17415e-11
-7.82956e-12
-2.08208e-12
-1.59206e-12
3.69155e-12
-8.83856e-13
-1.3636e-12
4.66728e-13
-4.84392e-12
-2.54122e-12
-2.77675e-12
-5.25457e-12
-2.77675e-12
-1.34389e-12
-3.0987e-13
1.71888e-12
-3.52029e-13
-9.40255e-13
3.66685e-13
-2.19574e-12
-1.10219e-12
-1.06318e-12
-2.39484e-12
-1.06318e-12
-7.10732e-13
-1.21368e-13
8.49773e-13
-1.71557e-13
-3.4528e-13
2.18971e-13
-9.4595e-13
-4.60664e-13
-4.55295e-13
-1.04631e-12
-4.55295e-13
-4.0884e-13
-2.87724e-14
4.02245e-13
-7.11266e-14
-1.84051e-13
1.46866e-13
-4.16257e-13
-1.7662e-13
-1.42166e-13
-4.68251e-13
-1.42166e-13
-2.12383e-13
2.97134e-14
1.97009e-13
-6.2299e-14
9.43814e-14
-5.20494e-14
-3.26349e-14
-3.26349e-14
3.23409e-14
6.61683e-11
1.20399e-11
-5.85366e-12
-2.6945e-11
-4.14092e-11
-1.50962e-11
9.3292e-12
2.35462e-11
8.52422e-12
6.10919e-13
-2.04718e-11
-7.98082e-12
-1.13153e-11
3.60818e-12
2.27e-11
4.81382e-12
1.02565e-12
-1.13688e-11
-1.00007e-11
-5.70967e-12
-2.0174e-14
8.19379e-12
3.37656e-12
1.08649e-12
-6.70756e-12
-1.5307e-12
-4.04675e-12
-7.70804e-13
6.21647e-12
1.68356e-12
1.18777e-12
-3.17302e-12
-1.59206e-12
-2.08208e-12
-8.16959e-13
2.54546e-12
1.06037e-12
6.26381e-13
-1.64329e-12
-3.0987e-13
-1.34389e-12
-6.43393e-13
1.57544e-12
5.12603e-13
5.57679e-13
-7.7108e-13
-1.21368e-13
-7.10732e-13
-4.05907e-13
7.34759e-13
2.82386e-13
2.89039e-13
-3.71613e-13
-2.87724e-14
-4.0884e-13
-2.73106e-13
4.09752e-13
1.30076e-13
2.07767e-13
-1.73267e-13
2.97133e-14
-2.12383e-13
-1.58368e-13
2.06019e-13
1.2167e-13
3.23409e-14
)
;

boundaryField
{
    inlet
    {
        type            calculated;
        value           nonuniform List<scalar> 
16
(
3.63642e-14
-3.10986e-14
-3.97237e-14
5.63965e-14
-3.10986e-14
-1.86444e-13
-1.91369e-13
-8.12805e-14
-3.97237e-14
-1.91369e-13
-2.14224e-13
-1.05745e-13
5.63965e-14
-8.12805e-14
-1.05745e-13
-8.51405e-14
)
;
    }
    outlet
    {
        type            calculated;
        value           nonuniform 0();
    }
    walls
    {
        type            calculated;
        value           nonuniform List<scalar> 
160
(
-3.65377e-11
-9.29174e-12
-1.03754e-11
-2.50328e-12
-2.49406e-12
-7.70979e-13
-5.62059e-13
-2.36161e-13
-1.39449e-13
-6.57957e-14
-4.13162e-10
-8.49169e-11
-6.11239e-11
-1.7256e-11
-8.98855e-12
-3.48987e-12
-1.44908e-12
-6.67399e-13
-2.86138e-13
-1.25262e-13
-2.89134e-10
-5.78367e-11
-4.50923e-11
-1.27301e-11
-7.18538e-12
-2.86253e-12
-1.31049e-12
-6.22759e-13
-2.89663e-13
-1.32183e-13
-6.25905e-11
-2.08806e-11
-2.00152e-11
-6.92947e-12
-4.98907e-12
-1.99085e-12
-1.15766e-12
-5.26905e-13
-2.77925e-13
-1.32781e-13
-4.71166e-11
-1.15367e-11
-1.50752e-11
-4.33481e-12
-3.72388e-12
-1.29502e-12
-8.1027e-13
-3.22917e-13
-1.63571e-13
-6.18608e-14
-2.73077e-10
-4.83839e-11
-4.00604e-11
-1.00911e-11
-5.90034e-12
-2.15186e-12
-9.5664e-13
-4.14413e-13
-1.72987e-13
-5.96903e-14
-3.43182e-10
-5.67354e-11
-5.03602e-11
-1.26616e-11
-7.01438e-12
-2.57869e-12
-1.01729e-12
-4.39379e-13
-1.60575e-13
-4.99456e-14
-3.30634e-11
-5.12031e-12
-8.18657e-12
-1.15538e-12
-1.56898e-12
-3.96653e-13
-2.40112e-13
-9.51742e-14
-2.76578e-14
-4.27301e-15
-3.65377e-11
-9.29174e-12
-1.03754e-11
-2.50328e-12
-2.49406e-12
-7.70979e-13
-5.62059e-13
-2.36161e-13
-1.39449e-13
-6.57957e-14
-4.13162e-10
-8.49169e-11
-6.11239e-11
-1.7256e-11
-8.98855e-12
-3.48987e-12
-1.44908e-12
-6.67399e-13
-2.86138e-13
-1.25262e-13
-2.89134e-10
-5.78367e-11
-4.50923e-11
-1.27301e-11
-7.18538e-12
-2.86253e-12
-1.31049e-12
-6.22759e-13
-2.89663e-13
-1.32183e-13
-6.25905e-11
-2.08806e-11
-2.00152e-11
-6.92947e-12
-4.98907e-12
-1.99085e-12
-1.15766e-12
-5.26905e-13
-2.77925e-13
-1.32781e-13
-4.71166e-11
-1.15367e-11
-1.50752e-11
-4.33481e-12
-3.72388e-12
-1.29502e-12
-8.1027e-13
-3.22917e-13
-1.63571e-13
-6.18608e-14
-2.73077e-10
-4.83839e-11
-4.00604e-11
-1.00911e-11
-5.90034e-12
-2.15186e-12
-9.5664e-13
-4.14413e-13
-1.72987e-13
-5.96903e-14
-3.43182e-10
-5.67354e-11
-5.03602e-11
-1.26616e-11
-7.01438e-12
-2.57869e-12
-1.01729e-12
-4.39379e-13
-1.60575e-13
-4.99456e-14
-3.30634e-11
-5.12031e-12
-8.18657e-12
-1.15538e-12
-1.56898e-12
-3.96653e-13
-2.40112e-13
-9.51742e-14
-2.76578e-14
-4.27301e-15
)
;
    }
    procBoundary1to0
    {
        type            processor;
        value           nonuniform List<scalar> 
16
(
-2.71433e-11
3.70365e-11
-8.66004e-12
-1.72663e-11
3.70365e-11
1.40115e-09
9.2331e-10
5.92202e-13
-8.66004e-12
9.2331e-10
1.08671e-09
2.91532e-11
-1.72663e-11
5.92202e-13
2.91532e-11
-2.60208e-11
)
;
    }
}


// ************************************************************************* //
