/*--------------------------------*- C++ -*----------------------------------*\
| =========                 |                                                 |
| \\      /  F ield         | OpenFOAM: The Open Source CFD Toolbox           |
|  \\    /   O peration     | Version:  5.x                                   |
|   \\  /    A nd           | Web:      www.OpenFOAM.org                      |
|    \\/     M anipulation  |                                                 |
\*---------------------------------------------------------------------------*/
FoamFile
{
    version     2.0;
    format      ascii;
    class       volVectorField;
    location    "0.05";
    object      U;
}
// * * * * * * * * * * * * * * * * * * * * * * * * * * * * * * * * * * * * * //

dimensions      [0 1 -1 0 0 0 0];

internalField   nonuniform List<vector> 
160
(
(5.84777e-06 2.87855e-06 5.84777e-06)
(7.71511e-06 -2.79934e-06 6.71054e-05)
(-6.11928e-06 -1.23951e-07 4.68275e-05)
(-7.6065e-06 1.77504e-06 1.02615e-05)
(1.52653e-06 1.54253e-06 1.52653e-06)
(1.86298e-06 -2.81379e-06 1.40183e-05)
(-1.6609e-06 -3.98526e-06 9.50049e-06)
(-1.87039e-06 1.40854e-06 3.51394e-06)
(1.67125e-06 1.20204e-06 1.67125e-06)
(2.2354e-06 1.26311e-07 1.00383e-05)
(-1.97664e-06 2.94748e-08 7.37359e-06)
(-2.44326e-06 1.16094e-06 3.31474e-06)
(4.06105e-07 2.69188e-07 4.06105e-07)
(6.11271e-07 -1.03477e-06 2.84614e-06)
(-5.47643e-07 -1.45918e-06 2.09119e-06)
(-7.02392e-07 4.29305e-07 1.16584e-06)
(4.0562e-07 4.02382e-07 4.0562e-07)
(5.14404e-07 1.26304e-07 1.48992e-06)
(-5.184e-07 -2.19342e-09 1.18646e-06)
(-6.07476e-07 4.90354e-07 8.34294e-07)
(1.24847e-07 5.05882e-08 1.24847e-07)
(1.86722e-07 -2.69004e-07 5.77914e-07)
(-1.61942e-07 -3.51919e-07 4.7369e-07)
(-2.09391e-07 1.31321e-07 3.36026e-07)
(9.2814e-08 1.15629e-07 9.2814e-08)
(1.12796e-07 2.86539e-08 2.40962e-07)
(-1.17034e-07 -1.34644e-08 2.17979e-07)
(-1.32689e-07 1.4602e-07 1.95525e-07)
(3.86061e-08 2.21054e-08 3.86061e-08)
(5.38067e-08 -4.79817e-08 1.12003e-07)
(-4.01017e-08 -6.09617e-08 1.04677e-07)
(-5.20353e-08 4.59088e-08 8.95408e-08)
(2.33985e-08 2.66994e-08 2.33985e-08)
(2.92191e-08 -5.48102e-10 4.79437e-08)
(-2.19822e-08 -1.04575e-08 4.8801e-08)
(-2.65885e-08 3.16998e-08 4.75226e-08)
(1.10615e-08 6.30354e-09 1.10615e-08)
(1.51148e-08 -5.04137e-09 2.14155e-08)
(-6.31392e-09 -6.49172e-09 2.26515e-08)
(-9.81677e-09 9.38511e-09 2.28987e-08)
(6.71054e-05 -2.79934e-06 7.71511e-06)
(4.91782e-05 -8.51807e-05 4.91782e-05)
(-6.40237e-05 -4.71065e-05 5.62011e-05)
(-4.40791e-05 -4.4882e-06 7.47332e-06)
(1.40183e-05 -2.81379e-06 1.86298e-06)
(9.93203e-06 -6.30766e-05 9.93203e-06)
(-1.23056e-05 -4.60872e-05 9.88402e-06)
(-7.83928e-06 -5.77954e-06 2.44848e-06)
(1.00383e-05 1.26311e-07 2.2354e-06)
(7.99059e-06 -1.13891e-05 7.99059e-06)
(-8.76387e-06 -7.66794e-06 8.43714e-06)
(-6.48728e-06 -1.15638e-06 2.62766e-06)
(2.84614e-06 -1.03477e-06 6.11271e-07)
(2.32762e-06 -9.92779e-06 2.32762e-06)
(-2.2445e-06 -7.95089e-06 2.30379e-06)
(-1.62057e-06 -2.10839e-06 9.4007e-07)
(1.48992e-06 1.26304e-07 5.14404e-07)
(1.29623e-06 -2.22294e-06 1.29623e-06)
(-1.16902e-06 -1.69495e-06 1.33215e-06)
(-9.56427e-07 -3.41027e-07 7.94504e-07)
(5.77914e-07 -2.69004e-07 1.86722e-07)
(5.41041e-07 -1.56656e-06 5.41041e-07)
(-4.0279e-07 -1.36384e-06 5.3997e-07)
(-3.44656e-07 -5.17294e-07 3.29706e-07)
(2.40962e-07 2.86539e-08 1.12796e-07)
(2.37572e-07 -4.56021e-07 2.37572e-07)
(-1.59416e-07 -4.00572e-07 2.52873e-07)
(-1.54096e-07 -1.03347e-07 2.21179e-07)
(1.12003e-07 -4.79817e-08 5.38067e-08)
(1.20467e-07 -2.4821e-07 1.20467e-07)
(-6.13324e-08 -2.36724e-07 1.25028e-07)
(-6.64667e-08 -1.03284e-07 1.05522e-07)
(4.79437e-08 -5.48103e-10 2.92191e-08)
(5.4598e-08 -9.36157e-08 5.4598e-08)
(-2.13004e-08 -9.48115e-08 6.08243e-08)
(-2.74911e-08 -3.47445e-08 6.18809e-08)
(2.14155e-08 -5.04137e-09 1.51148e-08)
(2.67955e-08 -3.06826e-08 2.67955e-08)
(-4.34371e-09 -3.17055e-08 3.01874e-08)
(-9.31532e-09 -1.4041e-08 3.19331e-08)
(4.68275e-05 -1.23951e-07 -6.11928e-06)
(5.62011e-05 -4.71065e-05 -6.40237e-05)
(-4.79626e-05 -3.93591e-05 -4.79626e-05)
(-5.53637e-05 -2.41598e-06 -8.45378e-06)
(9.50049e-06 -3.98526e-06 -1.6609e-06)
(9.88402e-06 -4.60872e-05 -1.23056e-05)
(-9.1661e-06 -5.37133e-05 -9.1661e-06)
(-9.1725e-06 -3.52705e-06 -2.00833e-06)
(7.37359e-06 2.94748e-08 -1.97664e-06)
(8.43714e-06 -7.66794e-06 -8.76387e-06)
(-7.33555e-06 -7.7005e-06 -7.33555e-06)
(-8.17049e-06 -2.74601e-07 -2.07678e-06)
(2.09119e-06 -1.45918e-06 -5.47643e-07)
(2.30379e-06 -7.95089e-06 -2.2445e-06)
(-1.93109e-06 -8.77487e-06 -1.93109e-06)
(-2.03706e-06 -1.41324e-06 -4.43765e-07)
(1.18646e-06 -2.19342e-09 -5.184e-07)
(1.33215e-06 -1.69495e-06 -1.16902e-06)
(-1.01519e-06 -1.79982e-06 -1.01519e-06)
(-1.14051e-06 -9.99277e-08 -3.02942e-07)
(4.7369e-07 -3.51919e-07 -1.61942e-07)
(5.3997e-07 -1.36384e-06 -4.0279e-07)
(-3.69986e-07 -1.46735e-06 -3.69986e-07)
(-4.14172e-07 -4.41788e-07 -7.64467e-08)
(2.17979e-07 -1.34644e-08 -1.17034e-07)
(2.52873e-07 -4.00572e-07 -1.59416e-07)
(-1.31193e-07 -4.37688e-07 -1.31193e-07)
(-1.6376e-07 -7.41275e-08 -1.33732e-08)
(1.04677e-07 -6.09617e-08 -4.01017e-08)
(1.25028e-07 -2.36724e-07 -6.13324e-08)
(-5.35849e-08 -2.58855e-07 -5.35849e-08)
(-7.03325e-08 -1.1242e-07 -9.97911e-11)
(4.8801e-08 -1.04575e-08 -2.19822e-08)
(6.08243e-08 -9.48115e-08 -2.13004e-08)
(-1.37602e-08 -1.05929e-07 -1.37602e-08)
(-2.5202e-08 -3.97954e-08 1.03607e-08)
(2.26515e-08 -6.49172e-09 -6.31392e-09)
(3.01874e-08 -3.17055e-08 -4.34371e-09)
(-5.78351e-10 -3.58266e-08 -5.7835e-10)
(-7.61962e-09 -1.8585e-08 8.6638e-09)
(1.02615e-05 1.77504e-06 -7.6065e-06)
(7.47332e-06 -4.4882e-06 -4.40791e-05)
(-8.45378e-06 -2.41598e-06 -5.53637e-05)
(-5.29582e-06 2.10555e-06 -5.29582e-06)
(3.51394e-06 1.40854e-06 -1.87039e-06)
(2.44848e-06 -5.77954e-06 -7.83928e-06)
(-2.00833e-06 -3.52705e-06 -9.1725e-06)
(-8.28509e-07 6.55811e-07 -8.28509e-07)
(3.31474e-06 1.16094e-06 -2.44326e-06)
(2.62766e-06 -1.15638e-06 -6.48728e-06)
(-2.07678e-06 -2.74601e-07 -8.17049e-06)
(-1.297e-06 3.4189e-07 -1.297e-06)
(1.16584e-06 4.29305e-07 -7.02392e-07)
(9.4007e-07 -2.10839e-06 -1.62057e-06)
(-4.43765e-07 -1.41324e-06 -2.03706e-06)
(-1.7134e-07 -3.15919e-07 -1.7134e-07)
(8.34294e-07 4.90354e-07 -6.07476e-07)
(7.94504e-07 -3.41027e-07 -9.56427e-07)
(-3.02942e-07 -9.99277e-08 -1.14051e-06)
(-2.44871e-07 1.27393e-08 -2.44871e-07)
(3.36026e-07 1.31321e-07 -2.09391e-07)
(3.29706e-07 -5.17294e-07 -3.44656e-07)
(-7.64467e-08 -4.41788e-07 -4.14172e-07)
(-5.64242e-08 -2.21429e-07 -5.64242e-08)
(1.95525e-07 1.4602e-07 -1.32689e-07)
(2.21179e-07 -1.03347e-07 -1.54096e-07)
(-1.33732e-08 -7.41275e-08 -1.6376e-07)
(-3.52299e-08 -2.80592e-08 -3.52299e-08)
(8.95408e-08 4.59088e-08 -5.20353e-08)
(1.05522e-07 -1.03284e-07 -6.64667e-08)
(-9.97935e-11 -1.1242e-07 -7.03325e-08)
(-1.29709e-08 -7.80114e-08 -1.29709e-08)
(4.75226e-08 3.16998e-08 -2.65885e-08)
(6.18809e-08 -3.47445e-08 -2.74911e-08)
(1.03607e-08 -3.97954e-08 -2.5202e-08)
(-2.991e-09 -2.58085e-08 -2.991e-09)
(2.28987e-08 9.38511e-09 -9.81677e-09)
(3.19331e-08 -1.4041e-08 -9.31532e-09)
(8.6638e-09 -1.8585e-08 -7.61962e-09)
(1.51734e-10 -1.58822e-08 1.51735e-10)
)
;

boundaryField
{
    inlet
    {
        type            fixedValue;
        value           uniform (0 0 0);
    }
    outlet
    {
        type            zeroGradient;
    }
    walls
    {
        type            fixedValue;
        value           uniform (0 0 0);
    }
    procBoundary1to0
    {
        type            processor;
        value           nonuniform List<vector> 
16
(
(5.83084e-06 4.84418e-06 5.83084e-06)
(3.97331e-06 -7.82889e-06 7.10974e-05)
(-4.85752e-06 2.71551e-06 3.78538e-05)
(-2.84625e-06 4.53481e-06 8.8423e-06)
(7.10974e-05 -7.82889e-06 3.97331e-06)
(3.59461e-05 -0.00029025 3.59461e-05)
(-6.78143e-05 -0.000208121 2.51154e-05)
(-3.17274e-05 5.95294e-06 5.31359e-06)
(3.78538e-05 2.71551e-06 -4.85752e-06)
(2.51154e-05 -0.000208121 -6.78143e-05)
(-3.5838e-05 -0.00027389 -3.5838e-05)
(-2.24568e-05 -4.63711e-06 -7.7113e-06)
(8.8423e-06 4.53481e-06 -2.84625e-06)
(5.31359e-06 5.95294e-06 -3.17274e-05)
(-7.7113e-06 -4.63711e-06 -2.24568e-05)
(-4.071e-06 7.18038e-06 -4.071e-06)
)
;
    }
}


// ************************************************************************* //
