/*--------------------------------*- C++ -*----------------------------------*\
| =========                 |                                                 |
| \\      /  F ield         | OpenFOAM: The Open Source CFD Toolbox           |
|  \\    /   O peration     | Version:  5.x                                   |
|   \\  /    A nd           | Web:      www.OpenFOAM.org                      |
|    \\/     M anipulation  |                                                 |
\*---------------------------------------------------------------------------*/
FoamFile
{
    version     2.0;
    format      ascii;
    class       volVectorField;
    location    "0.05";
    object      Us;
}
// * * * * * * * * * * * * * * * * * * * * * * * * * * * * * * * * * * * * * //

dimensions      [0 1 -1 0 0 0 0];

internalField   nonuniform List<vector> 
160
(
(-1.06163e-11 -4.36038e-08 -1.06163e-11)
(-2.34148e-10 -9.61706e-07 -2.34148e-10)
(-2.33127e-10 -9.57512e-07 -2.33127e-10)
(-9.52331e-12 -3.91147e-08 -9.52331e-12)
(-1.43137e-13 -5.87899e-10 -1.43137e-13)
(-3.13528e-12 -1.28774e-08 -3.13528e-12)
(-3.16181e-12 -1.29864e-08 -3.16181e-12)
(-1.72212e-13 -7.07321e-10 -1.72212e-13)
(-1.92976e-15 -7.92604e-12 -1.92976e-15)
(-4.1981e-14 -1.72427e-10 -4.1981e-14)
(-4.28744e-14 -1.76096e-10 -4.28744e-14)
(-2.9193e-15 -1.19903e-11 -2.9193e-15)
(-2.60194e-17 -1.06869e-13 -2.60194e-17)
(-5.62142e-16 -2.30886e-12 -5.62142e-16)
(-5.81307e-16 -2.38758e-12 -5.81307e-16)
(-4.75068e-17 -1.95123e-13 -4.75068e-17)
(-3.50858e-19 -1.44107e-15 -3.50858e-19)
(-7.52761e-18 -3.09178e-14 -7.52761e-18)
(-7.88063e-18 -3.23678e-14 -7.88063e-18)
(-7.5161e-19 -3.08705e-15 -7.5161e-19)
(-4.73158e-21 -1.94338e-17 -4.73158e-21)
(-1.00806e-19 -4.14036e-16 -1.00806e-19)
(-1.06823e-19 -4.3875e-16 -1.06823e-19)
(-1.16484e-20 -4.78431e-17 -1.16484e-20)
(-6.38146e-23 -2.62103e-19 -6.38146e-23)
(-1.35e-21 -5.54478e-18 -1.35e-21)
(-1.44784e-21 -5.94666e-18 -1.44784e-21)
(-1.77704e-22 -7.29875e-19 -1.77704e-22)
(-8.60743e-25 -3.53529e-21 -8.60743e-25)
(-1.80799e-23 -7.42588e-20 -1.80799e-23)
(-1.96214e-23 -8.05901e-20 -1.96214e-23)
(-2.67747e-24 -1.09971e-20 -2.67747e-24)
(-1.1611e-26 -4.76894e-23 -1.1611e-26)
(-2.42147e-25 -9.9456e-22 -2.42147e-25)
(-2.65885e-25 -1.09206e-21 -2.65885e-25)
(-3.99379e-26 -1.64035e-22 -3.99379e-26)
(-1.60381e-28 -6.58725e-25 -1.60381e-28)
(-3.30146e-27 -1.35599e-23 -3.30146e-27)
(-3.66682e-27 -1.50606e-23 -3.66682e-27)
(-6.02022e-28 -2.47266e-24 -6.02022e-28)
(-2.34148e-10 -9.61706e-07 -2.34148e-10)
(-5.75899e-09 -2.36537e-05 -5.75899e-09)
(-5.75715e-09 -2.36461e-05 -5.75715e-09)
(-2.322e-10 -9.53705e-07 -2.322e-10)
(-3.13528e-12 -1.28774e-08 -3.13528e-12)
(-7.6458e-11 -3.14033e-07 -7.6458e-11)
(-7.74069e-11 -3.1793e-07 -7.74069e-11)
(-4.1629e-12 -1.70981e-08 -4.1629e-12)
(-4.1981e-14 -1.72427e-10 -4.1981e-14)
(-1.01508e-12 -4.16921e-09 -1.01508e-12)
(-1.0406e-12 -4.274e-09 -1.0406e-12)
(-6.99646e-14 -2.87363e-10 -6.99646e-14)
(-5.62142e-16 -2.30886e-12 -5.62142e-16)
(-1.34767e-14 -5.53523e-11 -1.34767e-14)
(-1.39868e-14 -5.74474e-11 -1.39868e-14)
(-1.12878e-15 -4.63621e-12 -1.12878e-15)
(-7.52761e-18 -3.09178e-14 -7.52761e-18)
(-1.78925e-16 -7.34891e-13 -1.78925e-16)
(-1.8797e-16 -7.72043e-13 -1.8797e-16)
(-1.77047e-17 -7.27177e-14 -1.77047e-17)
(-1.00806e-19 -4.14036e-16 -1.00806e-19)
(-2.37554e-18 -9.75694e-15 -2.37554e-18)
(-2.52579e-18 -1.03741e-14 -2.52579e-18)
(-2.72013e-19 -1.11723e-15 -2.72013e-19)
(-1.35e-21 -5.54478e-18 -1.35e-21)
(-3.15397e-20 -1.29542e-16 -3.15397e-20)
(-3.39347e-20 -1.39379e-16 -3.39347e-20)
(-4.1137e-21 -1.6896e-17 -4.1137e-21)
(-1.80799e-23 -7.42588e-20 -1.80799e-23)
(-4.18752e-22 -1.71992e-18 -4.18752e-22)
(-4.55859e-22 -1.87233e-18 -4.55859e-22)
(-6.14413e-23 -2.52355e-19 -6.14413e-23)
(-2.42147e-25 -9.9456e-22 -2.42147e-25)
(-5.55983e-24 -2.28357e-20 -5.55983e-24)
(-6.12294e-24 -2.51485e-20 -6.12294e-24)
(-9.08461e-25 -3.73128e-21 -9.08461e-25)
(-3.30146e-27 -1.35599e-23 -3.30146e-27)
(-7.48295e-26 -3.07344e-22 -7.48295e-26)
(-8.33536e-26 -3.42355e-22 -8.33536e-26)
(-1.35177e-26 -5.55206e-23 -1.35177e-26)
(-2.33127e-10 -9.57512e-07 -2.33127e-10)
(-5.75715e-09 -2.36461e-05 -5.75715e-09)
(-5.75905e-09 -2.36539e-05 -5.75905e-09)
(-2.35208e-10 -9.66062e-07 -2.35208e-10)
(-3.16181e-12 -1.29864e-08 -3.16181e-12)
(-7.74069e-11 -3.1793e-07 -7.74069e-11)
(-7.84299e-11 -3.22132e-07 -7.84299e-11)
(-4.27058e-12 -1.75404e-08 -4.27058e-12)
(-4.28744e-14 -1.76096e-10 -4.28744e-14)
(-1.0406e-12 -4.274e-09 -1.0406e-12)
(-1.06775e-12 -4.3855e-09 -1.06775e-12)
(-7.26761e-14 -2.985e-10 -7.26761e-14)
(-5.81307e-16 -2.38758e-12 -5.81307e-16)
(-1.39868e-14 -5.74474e-11 -1.39868e-14)
(-1.45316e-14 -5.9685e-11 -1.45316e-14)
(-1.18706e-15 -4.87557e-12 -1.18706e-15)
(-7.88063e-18 -3.23678e-14 -7.88063e-18)
(-1.8797e-16 -7.72043e-13 -1.8797e-16)
(-1.97707e-16 -8.12034e-13 -1.97707e-16)
(-1.88464e-17 -7.74071e-14 -1.88464e-17)
(-1.06823e-19 -4.3875e-16 -1.06823e-19)
(-2.52579e-18 -1.03741e-14 -2.52579e-18)
(-2.68904e-18 -1.10446e-14 -2.68904e-18)
(-2.93049e-19 -1.20363e-15 -2.93049e-19)
(-1.44784e-21 -5.94666e-18 -1.44784e-21)
(-3.39347e-20 -1.39379e-16 -3.39347e-20)
(-3.65631e-20 -1.50174e-16 -3.65631e-20)
(-4.48462e-21 -1.84195e-17 -4.48462e-21)
(-1.96214e-23 -8.05901e-20 -1.96214e-23)
(-4.55859e-22 -1.87233e-18 -4.55859e-22)
(-4.97006e-22 -2.04133e-18 -4.97006e-22)
(-6.77692e-23 -2.78345e-19 -6.77692e-23)
(-2.65885e-25 -1.09206e-21 -2.65885e-25)
(-6.12294e-24 -2.51485e-20 -6.12294e-24)
(-6.75396e-24 -2.77403e-20 -6.75396e-24)
(-1.01366e-24 -4.16337e-21 -1.01366e-24)
(-3.66682e-27 -1.50606e-23 -3.66682e-27)
(-8.33536e-26 -3.42355e-22 -8.33536e-26)
(-9.3008e-26 -3.82008e-22 -9.3008e-26)
(-1.52559e-26 -6.266e-23 -1.52559e-26)
(-9.52331e-12 -3.91147e-08 -9.52331e-12)
(-2.322e-10 -9.53705e-07 -2.322e-10)
(-2.35208e-10 -9.66062e-07 -2.35208e-10)
(-1.28082e-11 -5.26065e-08 -1.28082e-11)
(-1.72212e-13 -7.07321e-10 -1.72212e-13)
(-4.1629e-12 -1.70981e-08 -4.1629e-12)
(-4.27058e-12 -1.75404e-08 -4.27058e-12)
(-2.90741e-13 -1.19415e-09 -2.90741e-13)
(-2.9193e-15 -1.19903e-11 -2.9193e-15)
(-6.99646e-14 -2.87363e-10 -6.99646e-14)
(-7.26761e-14 -2.985e-10 -7.26761e-14)
(-5.93884e-15 -2.43923e-11 -5.93884e-15)
(-4.75068e-17 -1.95123e-13 -4.75068e-17)
(-1.12878e-15 -4.63621e-12 -1.12878e-15)
(-1.18706e-15 -4.87557e-12 -1.18706e-15)
(-1.13208e-16 -4.64975e-13 -1.13208e-16)
(-7.5161e-19 -3.08705e-15 -7.5161e-19)
(-1.77047e-17 -7.27177e-14 -1.77047e-17)
(-1.88464e-17 -7.74071e-14 -1.88464e-17)
(-2.05501e-18 -8.44046e-15 -2.05501e-18)
(-1.16484e-20 -4.78431e-17 -1.16484e-20)
(-2.72013e-19 -1.11723e-15 -2.72013e-19)
(-2.93049e-19 -1.20363e-15 -2.93049e-19)
(-3.59673e-20 -1.47727e-16 -3.59673e-20)
(-1.77704e-22 -7.29875e-19 -1.77704e-22)
(-4.1137e-21 -1.6896e-17 -4.1137e-21)
(-4.48462e-21 -1.84195e-17 -4.48462e-21)
(-6.11958e-22 -2.51347e-18 -6.11958e-22)
(-2.67747e-24 -1.09971e-20 -2.67747e-24)
(-6.14413e-23 -2.52355e-19 -6.14413e-23)
(-6.77692e-23 -2.78345e-19 -6.77692e-23)
(-1.01796e-23 -4.18103e-20 -1.01796e-23)
(-3.99379e-26 -1.64035e-22 -3.99379e-26)
(-9.08461e-25 -3.73128e-21 -9.08461e-25)
(-1.01366e-24 -4.16337e-21 -1.01366e-24)
(-1.66238e-25 -6.82781e-22 -1.66238e-25)
(-6.02022e-28 -2.47266e-24 -6.02022e-28)
(-1.35177e-26 -5.55206e-23 -1.35177e-26)
(-1.52559e-26 -6.266e-23 -1.52559e-26)
(-2.71587e-27 -1.11548e-23 -2.71587e-27)
)
;

boundaryField
{
    inlet
    {
        type            zeroGradient;
    }
    outlet
    {
        type            zeroGradient;
    }
    walls
    {
        type            zeroGradient;
    }
    procBoundary1to0
    {
        type            processor;
        value           nonuniform List<vector> 
16
(
(-4.70244e-10 -1.93141e-06 -4.70244e-10)
(-1.15102e-08 -4.72753e-05 -1.15102e-08)
(-1.15102e-08 -4.72754e-05 -1.15102e-08)
(-4.70288e-10 -1.93159e-06 -4.70288e-10)
(-1.15102e-08 -4.72753e-05 -1.15102e-08)
(-4.22367e-07 -0.00173477 -4.22367e-07)
(-4.22367e-07 -0.00173477 -4.22367e-07)
(-1.15102e-08 -4.72755e-05 -1.15102e-08)
(-1.15102e-08 -4.72754e-05 -1.15102e-08)
(-4.22367e-07 -0.00173477 -4.22367e-07)
(-4.22367e-07 -0.00173477 -4.22367e-07)
(-1.15102e-08 -4.72754e-05 -1.15102e-08)
(-4.70288e-10 -1.93159e-06 -4.70288e-10)
(-1.15102e-08 -4.72755e-05 -1.15102e-08)
(-1.15102e-08 -4.72754e-05 -1.15102e-08)
(-4.70276e-10 -1.93154e-06 -4.70276e-10)
)
;
    }
}


// ************************************************************************* //
