FoamFile
{version 2.0; format ascii;class vectorField; location 0;object  v;}
2
(
( -0.000685555 -0.000694766 -6.23186 )  
( -0.000459764 -0.000480257 -6.28383 )  
)
