/*--------------------------------*- C++ -*----------------------------------*\
| =========                 |                                                 |
| \\      /  F ield         | OpenFOAM: The Open Source CFD Toolbox           |
|  \\    /   O peration     | Version:  5.x                                   |
|   \\  /    A nd           | Web:      www.OpenFOAM.org                      |
|    \\/     M anipulation  |                                                 |
\*---------------------------------------------------------------------------*/
FoamFile
{
    version     2.0;
    format      ascii;
    class       volScalarField;
    location    "0.075";
    object      interFace;
}
// * * * * * * * * * * * * * * * * * * * * * * * * * * * * * * * * * * * * * //

dimensions      [0 0 0 0 0 0 0];

internalField   nonuniform List<scalar> 
1574
(
0
0
0
0
0
0
0
0
0
0
0
0
0
0
0
0
0
0
0
0
0
0
0
0
0
0
0
0
0
0
0
0
0
0
0
0
0
0
0
0
0
0
0
0
0
0
0
0
0
0
0
0
0
0
0
0
0
0
0
0
0
0
0
0
0
0
0
0
0
0
0
0
0
0
0
0
0
0
0
0
0
0
0
0
0
0
0
0
0
0
0
0
0
0
0
0
0
0
0
0
0
0
0
0
0
0
0
0
0
0
0
0
0
0
0
0
0
0
0
0
0
0
0
0
0
0
0
0
0
0
0
0
0
0
0
0
0
0
0
0
0
0
0
0
0
0
0
0
0
0
0
0
0
0
0
0
0
0
0
0
0
0
0
0
0
0
0
0
0
0
0
0
0
0
0
0
0
0
0
0
0
0
0
0
0
0
0
0
0
0
0
0
0
0
0
0
0
0
0
0
0
0
0
0
0
0
0
0
0
0
0
0
0
0
0
0
0
0
0
0
0
0
0
0
0
0
0
0
0
0
0
0
0
0
0
0
0
0
0
0
0
0
0
0
0
0
0
0
0
0
0
0
0
0
0
0
0
0
0
0
0
0
0
0
0
0
0
0
0
0
0
0
0
0
0
0
0
0
0
0
0
0
0
0
0
0
0
0
0
0
0
0
0
0
0
0
0
0
0
0
0
0
0
0
0
0
0
0
0
0
0
0
0
0
0
0
0
0
0
0
0
0
0
0
0
0
0
0
0
0
0
0
0
0
0
0
0
0
0
0
0
0
0
0
0
0
0
0
0
0
0
0
0
0
0
0
0
0
0
0
0
0
0
0
0
0
0
0
0
0
0
0
0
0
0
0
0
0
0
0
0
0
0
0
0
0
0
0
0
0
0
0
0
0
0
0
0
0
0
0
0
0
0
0
0
0
0
0
0
0
0
0
0
0
0
0
0
0
0
0
0
0
0
0
0
0
0
0
0
0
0
0
0
0
0
0
0
0
0
0
0
0
0
0
0
0
0
0
0
0
0
0
0
0
0
0
0
0
0
0
0
0
0
0
0
0
0
0
0
0
0
0
0
0
0
0
0
0
0
0
0
0
0
0
0
0
0
0
0
0
0
0
0
0
0
0
0
0
0
0
0
0
0
0
0
0
0
0
0
0
0
0
0
0
0
0
0
0
0
0
0
0
0
0
0
0
0
0
0
0
0
0
0
0
0
0
0
0
0
0
0
0
0
0
0
0
0
0
0
0
0
0
0
0
0
0
0
0
0
0
0
0
0
0
0
0
0
0
0
0
0
0
0
0
0
0
0
0
0
0
0
0
0
0
0
0
0
0
0
0
0
0
0
0
0
0
0
0
0
0
0
0
0
0
0
0
0
0
0
0
0
0
0
0
0
0
0
0
0
0
0
0
0
0
0
0
0
0
0
0
0
0
0
0
0
0
0
0
0
0
0
0
0
0
0
0
0
0
0
0
0
0
0
0
0.788396
0
0
0
0
0
0
0
0
0
0
0
0
0
0
0
0
0
0
0
0
0
0
0
0
0.331614
0
0
0
0
0.780092
0
0
0
0
0
0
0
0
0
0
0
0
0
0
0
0
0
0
0
0.417931
0
0
0
0
0.961304
0
0
0
0
0
0
0
0
0
0
0
0
0
0
0
0
0
0
0
0
0
0
0
0
0
0
0
0
0
0
0
0
0
0
0
0
0
0
0
0
0
0
0
0
0.491132
0
0
0
0
0.910022
0
0
0
0
0
0
0
0
0
0
0
0
0
0
0
0
0
0
0
0.299381
0
0
0
0
0.747791
0
0
0
0
0
0
0
0
0
0
0
0
0
0
0
0
0
0
0
0.884878
0
0
0
0
0
0
0
0
0
0
0
0
0
0
0
0
0
0
0
0
0
0
0
0
0
0
0
0
0
0
0
0
0
0
0
0
0
0
0
0
0
0
0
0
0
0
0
0
0
0
0
0
0
0
0
0
0
0
0
0
0
0
0
0
0
0
0
0
0
0
0
0
0
0
0
0
0
0
0
0
0
0
0
0
0
0
0
0
0
0
0
0
0
0
0
0
0
0
0
0
0
0
0
0
0
0
0
0
0
0
0
0
0
0
0
0
0
0
0
0
0
0
0
0
0
0
0
0
0
0
0
0
0
0
0
0
0
0
0
0
0
0
0
0
0
0
0
0
0
0
0
0
0
0
0
0
0
0
0
0
0
0
0
0
0
0
0
0
0
0
0
0
0
0
0
0
0
0
0
0
0
0
0
0
0
0
0
0
0
0
0
0
0
0
0
0.222359
0.760209
0.491436
0.280088
0.0113143
0.549165
0.280391
0.0306071
0.568458
0.299684
0.626183
0.357409
0.895259
0.626486
0.705695
0
0.88508
0
0
0
0
0
0
0
0.651122
0.382348
0.871333
0.651425
0.149202
0.687059
0.41833
0.953285
0.684556
0.959506
0.953684
0.729312
0.729445
0.774201
0.550929
0.461284
0.50604
0.506173
0.597149
0
0.961039
0
0
0
0
0.59768
0
0
0
0
0
0
0.818888
0.998174
0.863777
0.640505
0.730014
0.774902
0.595617
0.819154
0.99844
0.86391
0.640638
0.730412
0.775168
0.595882
0.293297
0.203655
0.40218
0.402281
0.447051
0.248425
0.248526
0.478613
0
0.74769
0
0.846192
0
0
0.479017
0
0
0
0.846596
0
0
0.382888
0.472428
0.491771
0.671054
0.5173
0.536643
0.338016
0.382989
0.472731
0.491973
0.671256
0.517502
0.536744
0.338219
0.0628841
0.600742
0.332012
0.329121
0.0603916
0.598249
0.32952
0.372477
0.193958
0.194091
0.282833
0.238847
0.327589
0.327721
0.462054
0.283534
0.46282
0.551562
0.328423
0.596451
0.417165
0.462187
0.2838
0.463086
0.551961
0.328556
0.596717
0.417431
0.47258
0.741505
0.760747
0.760848
0.606992
0.607093
0.626335
0.551763
0.55253
0.552662
0.82069
0.418133
0.68616
0.686293
0.184363
0.0753778
0.0754789
0.0947205
0.12025
0.139491
0.139592
0.273954
0.164969
0.344252
0.363494
0.209841
0.408366
0.229082
0.274055
0.165171
0.344455
0.363797
0.209942
0.408568
0.229285
0.105148
0.10528
0.150036
0.106047
0.0164019
0.0611579
0.0612907
0.510831
0
0.779959
0
0.508339
0
0.777467
0.511362
0
0
0.7776
0.50887
0
0
0.642038
0.73078
0.775669
0.999707
0.821187
0.866076
0.954818
0.642436
0.731311
0.776067
0
0.821851
0.866607
0.955482
0.194724
0.37401
0.239613
0.195623
0.285132
0.33002
0.150734
0.19499
0.374276
0.239746
0.195756
0.28553
0.330286
0.151
0.363646
0.433945
0.434046
0.632571
0.299533
0.498058
0.498159
0.463719
0.463852
0.329322
0.285333
0.554259
0.41973
0.419862
0
0
0
0
0
0
0
0.126484
0.0368419
0.0560849
0.056186
0.100957
0.0816126
0.0817136
0.670365
0
0.909819
0
0.45932
0
0.728397
0.670769
0
0
0.728498
0.459724
0
0
0.216075
0.305615
0.145676
0.32496
0.350487
0.190548
0.171204
0.216177
0.305919
0.145878
0.325162
0.350689
0.190649
0.171406
0.702666
0.523485
0.542726
0.747537
0.587598
0.811651
0.766779
0.523788
0.703171
0.543131
0.747942
0.587901
0.812055
0.767285
0.693695
0.967815
0.788662
0.422086
0.153356
0.691214
0.422484
0.106878
0.10764
0.107773
0.0172328
0.152529
0.0619888
0.0621215
0.196454
0.197217
0.376503
0.285962
0.242105
0.330851
0.151565
0.196587
0.197482
0.376768
0.286361
0.242238
0.331117
0.151831
0.553228
0.732377
0.777266
0.464349
0.509238
0.733276
0.688387
0.553626
0.733041
0.777797
0.46488
0.509636
0.733807
0.689051
0.305768
0.574692
0.414652
0.414753
0.440179
0.440281
0.28024
0.286163
0.466212
0.466345
0.55509
0.331815
0.42056
0.420693
0.613177
0.971743
0.811803
0.83723
0.67729
0.901343
0
0
0
0
0
0
0
0
0.196832
0.26713
0.267231
0.10719
0.312001
0.151961
0.152062
0.642937
0
0.866975
0.733477
0.598947
0.822985
0.957515
0.286424
0.356721
0.536004
0.375964
0.401592
0.420835
0.241552
0.286525
0.356923
0.536206
0.376267
0.401694
0.421038
0.241754
0.484848
0.683373
0.504192
0.529719
0.728245
0.753772
0.708901
0.485252
0.504495
0.683878
0.530023
0.728649
0.754177
0.709406
0.198112
0.198245
0.243001
0.378293
0.288648
0.333404
0.333537
0
0
0
0
0.786605
0
0.966024
0
0
0
0.966289
0.787136
0
0
0.55572
0.46518
0.510069
0.734107
0.734869
0.779758
0.689218
0.556118
0.465711
0.510467
0.734638
0.735533
0.780289
0.689882
0.643203
0
0.867373
0.73361
0.599213
0.823384
0.957781
0.287689
0.466974
0.332577
0.46787
0.557378
0.602267
0.422981
0.287954
0.46724
0.33271
0.468003
0.557776
0.602532
0.423247
0.376116
0.625696
0.625798
0.64504
0.491285
0.510528
0.510629
0.556684
0.556817
0.422287
0.557579
0.826506
0.691976
0.692109
0
0
0
0
0
0
0
0.753925
0.593884
0.95245
0.619412
0.817937
0.843465
0.977977
0.645695
0.734441
0.600044
0.824215
0
0.869866
0.958612
0.427119
0.42722
0.471991
0.6768
0.587158
0.631929
0.63203
0.645429
0.734308
0.599778
0.823816
0
0.869468
0.958346
0
0
0
0
0
0
0
0
0
0
0
0
0
0
0.613379
0.971945
0.811904
0.837533
0.677493
0.901646
0
0.51671
0.695993
0.561582
0.766392
0.855932
0.900803
0.72152
0.516912
0.696196
0.561683
0.766493
0.856235
0.901005
0.721722
0.894417
0.715236
0.555196
0.939289
0.600068
0.82412
0.779249
0.71554
0.894923
0.5556
0.939694
0.600371
0.824525
0.779754
0.754026
0.594086
0.952652
0.619614
0.81824
0.843768
0.97818
0
0
0
0
0
0
0
0.558406
0.738451
0.738584
0.468761
0.78334
0.513517
0.51365
)
;

boundaryField
{
    inlet
    {
        type            calculated;
        value           uniform 0;
    }
    wall
    {
        type            calculated;
        value           uniform 0;
    }
    outlet
    {
        type            calculated;
        value           uniform 0;
    }
    procBoundary2to0
    {
        type            processor;
        value           uniform 0;
    }
    procBoundary2to3
    {
        type            processor;
        value           uniform 0;
    }
}


// ************************************************************************* //
