/*--------------------------------*- C++ -*----------------------------------*\
| =========                 |                                                 |
| \\      /  F ield         | OpenFOAM: The Open Source CFD Toolbox           |
|  \\    /   O peration     | Version:  5.x                                   |
|   \\  /    A nd           | Web:      www.OpenFOAM.org                      |
|    \\/     M anipulation  |                                                 |
\*---------------------------------------------------------------------------*/
FoamFile
{
    version     2.0;
    format      ascii;
    class       volScalarField;
    location    "0.075";
    object      phiIB;
}
// * * * * * * * * * * * * * * * * * * * * * * * * * * * * * * * * * * * * * //

dimensions      [0 2 -1 0 0 0 0];

internalField   nonuniform List<scalar> 
1574
(
-0.000228434
-0.000228318
-0.000228308
-0.000228265
-0.000228268
-0.000228438
-0.00022832
-0.00022831
-0.000228266
-0.00022827
-0.000228458
-0.000228339
-0.000228329
-0.000228284
-0.000228287
-0.000228471
-0.000228351
-0.000228341
-0.000228296
-0.000228299
-0.000228542
-0.00022842
-0.00022841
-0.000228363
-0.000228365
-0.000451854
-0.000451819
-0.000451793
-0.00045177
-0.000451759
-0.000451852
-0.000451817
-0.000451791
-0.000451768
-0.000451758
-0.000451857
-0.000451822
-0.000451795
-0.000451773
-0.000451762
-0.000451871
-0.000451835
-0.000451809
-0.000451786
-0.000451776
-0.000451875
-0.000451839
-0.000451812
-0.000451788
-0.000451776
-0.00107061
-0.00107046
-0.0010704
-0.00107033
-0.00107031
-0.00107061
-0.00107046
-0.00107041
-0.00107033
-0.00107031
-0.00107065
-0.00107049
-0.00107043
-0.00107036
-0.00107034
-0.00107068
-0.00107053
-0.00107047
-0.00107039
-0.00107037
-0.00107077
-0.00107061
-0.00107055
-0.00107048
-0.00107045
-0.00138091
-0.00138078
-0.0013807
-0.00138062
-0.00138059
-0.00138092
-0.00138078
-0.00138071
-0.00138063
-0.00138059
-0.00138095
-0.00138081
-0.00138074
-0.00138066
-0.00138062
-0.001381
-0.00138086
-0.00138078
-0.0013807
-0.00138067
-0.00138107
-0.00138093
-0.00138086
-0.00138077
-0.00138074
-0.00195912
-0.00195889
-0.00195878
-0.00195866
-0.00195861
-0.00195913
-0.0019589
-0.00195879
-0.00195867
-0.00195862
-0.00195919
-0.00195896
-0.00195885
-0.00195872
-0.00195868
-0.00195926
-0.00195903
-0.00195892
-0.00195879
-0.00195875
-0.00195941
-0.00195918
-0.00195907
-0.00195894
-0.00195889
-0.00231222
-0.00231193
-0.00231179
-0.00231164
-0.00231158
-0.00231224
-0.00231195
-0.00231181
-0.00231165
-0.00231159
-0.00231232
-0.00231203
-0.00231189
-0.00231173
-0.00231167
-0.00231242
-0.00231213
-0.00231198
-0.00231182
-0.00231176
-0.00231261
-0.00231232
-0.00231217
-0.00231201
-0.00231195
-0.00285242
-0.00285201
-0.00285182
-0.00285161
-0.00285153
-0.00285245
-0.00285204
-0.00285184
-0.00285163
-0.00285155
-0.00285257
-0.00285216
-0.00285196
-0.00285175
-0.00285167
-0.00285272
-0.0028523
-0.0028521
-0.00285189
-0.00285181
-0.00285301
-0.00285259
-0.0028524
-0.00285218
-0.0028521
-0.00323679
-0.00323624
-0.00323597
-0.00323569
-0.00323559
-0.00323683
-0.00323628
-0.00323601
-0.00323572
-0.00323562
-0.00323702
-0.00323646
-0.00323619
-0.0032359
-0.0032358
-0.00323723
-0.00323667
-0.0032364
-0.0032361
-0.003236
-0.00323764
-0.00323708
-0.00323681
-0.00323652
-0.00323641
-0.00374764
-0.00374687
-0.00374651
-0.00374613
-0.003746
-0.00374771
-0.00374694
-0.00374657
-0.00374618
-0.00374606
-0.00374797
-0.0037472
-0.00374684
-0.00374645
-0.00374632
-0.00374826
-0.00374749
-0.00374713
-0.00374673
-0.0037466
-0.00374885
-0.00374809
-0.00374773
-0.00374733
-0.00374719
-0.00415326
-0.00415219
-0.00415168
-0.00415115
-0.00415097
-0.00415336
-0.00415229
-0.00415178
-0.00415124
-0.00415107
-0.00415376
-0.00415268
-0.00415218
-0.00415163
-0.00415145
-0.00415417
-0.0041531
-0.0041526
-0.00415205
-0.00415187
-0.00415502
-0.00415396
-0.00415346
-0.00415291
-0.00415273
-0.00464114
-0.00463968
-0.004639
-0.00463828
-0.00463806
-0.00464128
-0.00463982
-0.00463914
-0.00463841
-0.00463819
-0.00464182
-0.00464036
-0.00463969
-0.00463896
-0.00463874
-0.00464238
-0.00464093
-0.00464026
-0.00463954
-0.00463932
-0.00464354
-0.00464213
-0.00464147
-0.00464076
-0.00464053
-0.00505856
-0.0050565
-0.00505555
-0.00505454
-0.00505422
-0.00505877
-0.00505672
-0.00505577
-0.00505477
-0.00505445
-0.00505953
-0.00505748
-0.00505656
-0.00505556
-0.00505525
-0.0050603
-0.00505828
-0.00505737
-0.00505639
-0.00505609
-0.00506199
-0.00506
-0.00505912
-0.00505814
-0.00505784
-0.00552664
-0.00552391
-0.00552276
-0.00552152
-0.00552117
-0.00552688
-0.00552415
-0.00552302
-0.00552177
-0.00552144
-0.00552781
-0.00552513
-0.00552401
-0.00552279
-0.00552245
-0.00552877
-0.00552612
-0.00552501
-0.00552381
-0.00552348
-0.00553098
-0.00552842
-0.00552735
-0.00552618
-0.00552586
-0.00594522
-0.00594156
-0.00594028
-0.00593867
-0.00593825
-0.00594546
-0.00594183
-0.00594055
-0.00593905
-0.00593861
-0.00594666
-0.00594302
-0.00594175
-0.00594028
-0.00593995
-0.00594778
-0.00594419
-0.0059429
-0.00594143
-0.00594109
-0.00595086
-0.00594734
-0.0059461
-0.00594462
-0.0059443
-0.00639104
-0.00638696
-0.00638659
-0.00638631
-0.00638701
-0.00639113
-0.00638695
-0.00638643
-0.00638568
-0.00638634
-0.00639227
-0.00638802
-0.00638728
-0.00638614
-0.00638631
-0.00639324
-0.0063889
-0.00638792
-0.00638658
-0.00638657
-0.00639697
-0.00639275
-0.00639167
-0.00639024
-0.00639011
-0.00679264
-0.00678833
-0.00679099
-0.00679497
-0.00680031
-0.00679246
-0.00678797
-0.00678963
-0.00679114
-0.00679496
-0.00679353
-0.00678863
-0.00678937
-0.00678927
-0.00679054
-0.00679403
-0.00678876
-0.00678855
-0.00678754
-0.00678792
-0.00679868
-0.00679339
-0.0067928
-0.00679136
-0.00679154
-0.00719439
-0.0071919
-0.00719802
-0.00720516
-0.007209
-0.00719382
-0.00719027
-0.00719408
-0.00720113
-0.00720508
-0.00719486
-0.00718997
-0.007192
-0.00719377
-0.00719765
-0.00719446
-0.00718875
-0.00719008
-0.0071899
-0.00719136
-0.00720049
-0.00719373
-0.00719409
-0.00719273
-0.0071933
-0.00752838
-0.00752505
-0.00752698
-0.00752527
-0.00752541
-0.0075268
-0.00752262
-0.00752563
-0.0075245
-0.00752479
-0.00752775
-0.00752093
-0.0075233
-0.00752475
-0.0075257
-0.00752891
-0.00751955
-0.00752096
-0.00752189
-0.00752389
-0.00754157
-0.00752772
-0.00752656
-0.00752514
-0.00752638
-0.00780558
-0.00779398
-0.00778818
-0.00778109
-0.00777677
-0.00780696
-0.00779514
-0.00779028
-0.00778377
-0.00778046
-0.00781366
-0.00779862
-0.00779546
-0.007789
-0.00778636
-0.0078229
-0.00780352
-0.00779801
-0.00779369
-0.00779215
-0.00784358
-0.00782134
-0.00781189
-0.00780444
-0.00780305
-0.00799118
-0.00796021
-0.00793959
-0.00792009
-0.00790624
-0.00799605
-0.00796664
-0.00794721
-0.00792932
-0.00791868
-0.00801278
-0.00798098
-0.00796299
-0.00794515
-0.00793618
-0.00802746
-0.00799486
-0.00798008
-0.00796379
-0.00795647
-0.00805306
-0.00802564
-0.00800982
-0.00799151
-0.00798699
-0.00812469
-0.00807085
-0.00802867
-0.00799994
-0.00796627
-0.00813003
-0.00808197
-0.00804615
-0.00802199
-0.00799912
-0.00814686
-0.00810139
-0.00806955
-0.00804385
-0.00802556
-0.00816459
-0.00812743
-0.00810046
-0.00807872
-0.00806679
-0.00819638
-0.00816259
-0.00814387
-0.00812407
-0.00811809
-0.00818985
-0.00810832
-0.00805439
-0.00802068
-0.00799214
-0.00819522
-0.00812228
-0.00807704
-0.00804759
-0.00801877
-0.00820776
-0.00814542
-0.00810604
-0.00807446
-0.00805024
-0.00822159
-0.0081729
-0.00814411
-0.00811843
-0.008103
-0.00826104
-0.00821856
-0.00820366
-0.00818889
-0.00818212
-0.00821216
-0.00811936
-0.00803273
-0.00800262
-0.00792397
-0.00821882
-0.00814523
-0.00807719
-0.00805827
-0.00800358
-0.00823147
-0.00816312
-0.00810651
-0.0080745
-0.00803081
-0.00824842
-0.00819535
-0.00816275
-0.0081426
-0.00811778
-0.0082969
-0.00824504
-0.00822791
-0.00821232
-0.008207
-0.00824401
-0.00813725
-0.0080816
-0.00812259
-0.00837842
-0.00824195
-0.00815334
-0.00810753
-0.00810312
-0.00812059
-0.00825065
-0.00816642
-0.00813422
-0.00810646
-0.00808033
-0.00825715
-0.0081891
-0.00816553
-0.00815079
-0.00813361
-0.00831213
-0.0082536
-0.0082464
-0.00823574
-0.00823836
-0.00816802
-0.00802402
-0.00777261
-0.00751173
-0.00630926
-0.00818389
-0.00807782
-0.00795182
-0.00786724
-0.00751512
-0.00820141
-0.00810212
-0.00802235
-0.00794897
-0.00777205
-0.00823004
-0.00815879
-0.0081029
-0.00807585
-0.00802538
-0.00829376
-0.00822601
-0.00819824
-0.00817658
-0.00816428
-0.00823298
-0.00808063
-0.00802253
-0.00815889
-0.00936677
-0.00822295
-0.00810159
-0.008093
-0.00817011
-0.00815468
-0.0082415
-0.008119
-0.00808958
-0.00809462
-0.00802844
-0.00824399
-0.00815138
-0.00811813
-0.00810042
-0.00807924
-0.00832094
-0.00824025
-0.00823832
-0.00821846
-0.00823411
-0.00807862
-0.00781542
-0.00761618
-0.0073698
-0.00688109
-0.00808562
-0.00791382
-0.00776317
-0.00761504
-0.00730956
-0.00810545
-0.00797352
-0.00786616
-0.00776062
-0.00761636
-0.00814134
-0.00805191
-0.00797508
-0.00791296
-0.00781932
-0.0082131
-0.00813694
-0.00810325
-0.00807999
-0.00807779
-0.00825607
-0.00805679
-0.00830834
-0.00809092
-0.00635
-0.00817838
-0.00805008
-0.00811573
-0.00796824
-0.00774708
-0.00819622
-0.00807906
-0.00815746
-0.00812
-0.0083251
-0.00816672
-0.00808577
-0.00807993
-0.00805228
-0.00806189
-0.00824756
-0.00816377
-0.00819751
-0.00818098
-0.008272
-0.00808712
-0.00781419
-0.00817215
-0.0078604
-0.00906941
-0.00799405
-0.00791449
-0.0078957
-0.00789466
-0.0086187
-0.00797372
-0.00791123
-0.00797334
-0.00789476
-0.00818248
-0.00797875
-0.00793492
-0.00791738
-0.0079219
-0.00782849
-0.00800823
-0.00797529
-0.00797609
-0.00799892
-0.00809931
-0.0081299
-0.00784279
-0.00811061
-0.00674147
-0.00697452
-0.00799381
-0.00788289
-0.00794371
-0.00778613
-0.00804322
-0.00801567
-0.00791852
-0.00805138
-0.00794606
-0.00814139
-0.00797119
-0.00792605
-0.0079275
-0.00790031
-0.00787738
-0.00803541
-0.00797043
-0.00802311
-0.00800852
-0.00816323
-0.00756319
-0.00762741
-0.00765308
-0.00683651
-0.00658354
-0.007545
-0.00764541
-0.00755728
-0.00755929
-0.00746376
-0.00755847
-0.00759325
-0.00759295
-0.00757434
-0.00770852
-0.00759326
-0.00763298
-0.00760431
-0.00766955
-0.00766428
-0.00761133
-0.00759278
-0.00756642
-0.00756017
-0.00759266
-0.0076829
-0.0076746
-0.00800855
-0.00806844
-0.0122777
-0.00761755
-0.00764255
-0.00777888
-0.00791274
-0.00873081
-0.0076586
-0.00768509
-0.00783191
-0.00782223
-0.00809152
-0.0076385
-0.00767292
-0.00769923
-0.00767976
-0.00773499
-0.00765032
-0.00764308
-0.00767537
-0.00764993
-0.00773352
-0.00699776
-0.00700764
-0.00714189
-0.00773108
-0.0118458
-0.00698298
-0.00702748
-0.00693562
-0.00632303
-0.00783217
-0.00704051
-0.00709113
-0.00713117
-0.00700423
-0.00726294
-0.00707316
-0.00712877
-0.00710549
-0.00706724
-0.00704806
-0.00706653
-0.00707717
-0.0070556
-0.00701237
-0.00703438
-0.00705792
-0.00707558
-0.0070019
-0.00724682
-0.00631635
-0.00706977
-0.00712088
-0.00712316
-0.00721747
-0.00732263
-0.00711779
-0.00714068
-0.00716663
-0.00716798
-0.00708674
-0.00712366
-0.00715823
-0.00715325
-0.00715695
-0.00712511
-0.00712901
-0.00712947
-0.00713523
-0.00710401
-0.00710532
-0.00623644
-0.00626582
-0.00618108
-0.00618893
-0.00598488
-0.00625072
-0.00630497
-0.00624578
-0.00622698
-0.00618745
-0.0062663
-0.00630426
-0.00628608
-0.00626767
-0.00621415
-0.00626664
-0.00630566
-0.00631262
-0.00632884
-0.00629762
-0.00625919
-0.00627105
-0.00627891
-0.00627618
-0.00627016
-0.00582691
-0.00582958
-0.00580107
-0.00588282
-0.00577265
-0.00584614
-0.00585348
-0.00582896
-0.00587899
-0.0058863
-0.00587155
-0.00586849
-0.00584168
-0.00584148
-0.0058209
-0.00588941
-0.00589424
-0.00587487
-0.00587041
-0.00585267
-0.00589954
-0.00589318
-0.00588169
-0.00586577
-0.00585399
-0.00435175
-0.00436462
-0.00434592
-0.00438506
-0.00434863
-0.00436398
-0.00437483
-0.00436366
-0.00438737
-0.00438712
-0.00438335
-0.0043825
-0.00437419
-0.00437123
-0.00435739
-0.00440893
-0.00440507
-0.00438588
-0.00438449
-0.00437875
-0.00442376
-0.00441136
-0.00438929
-0.00437614
-0.00436919
-0.00363118
-0.00365252
-0.00371962
-0.00382831
-0.00387271
-0.00362987
-0.00364968
-0.00369221
-0.00378361
-0.00383057
-0.00362806
-0.00363568
-0.00364897
-0.00369603
-0.00372676
-0.0036286
-0.00363417
-0.00363713
-0.00365456
-0.00366066
-0.0036314
-0.00363015
-0.00363158
-0.0036371
-0.00364245
-0.00155446
-0.00158458
-0.00166068
-0.00165151
-0.00162724
-0.00154329
-0.00155266
-0.00164387
-0.00166982
-0.00165217
-0.0015375
-0.00153448
-0.00156969
-0.0016458
-0.00166404
-0.00153422
-0.00153238
-0.00153538
-0.00155587
-0.00159067
-0.00153697
-0.00153494
-0.00153906
-0.00154673
-0.00155962
-0.000845221
-0.000878382
-0.000934899
-0.0010423
-0.00112339
-0.000839907
-0.000865344
-0.000899991
-0.000973876
-0.00104253
-0.000836143
-0.000846603
-0.000862337
-0.000901584
-0.000936904
-0.000833061
-0.000840127
-0.000846795
-0.000866839
-0.000880007
-0.000836262
-0.000833765
-0.000837172
-0.000842217
-0.000847903
-0.00468727
-0.00818518
-0.00681824
-0.00983813
-0.00963736
-0.0085922
-0.0100156
-0.0108471
-0.00926112
-0.0124607
-0.0104618
-0.0147827
-0.00823392
-0.0107023
-0.0119623
-0.00822367
-0.0121883
-0.0075809
-0.00707393
-0.0061345
-0.00772264
-0.00679774
-0.00785482
-0.00690375
-0.00678457
-0.00459344
-0.00705376
-0.00685873
-0.00921
-0.00831573
-0.00905939
-0.00708883
-0.00832179
-0.00729318
-0.00706749
-0.00764735
-0.00763554
-0.00683305
-0.00801909
-0.00826646
-0.00821691
-0.00820909
-0.00859673
-0.00763505
-0.00862551
-0.00743176
-0.00803269
-0.00751362
-0.00766982
-0.0085731
-0.00764653
-0.0078578
-0.00766683
-0.00802067
-0.00748286
-0.00741787
-0.00820966
-0.00661753
-0.00793674
-0.00822896
-0.0078976
-0.00777344
-0.0080672
-0.0082039
-0.00659848
-0.00793486
-0.00822235
-0.0078889
-0.0077594
-0.00806247
-0.0121038
-0.0129112
-0.0137821
-0.0138284
-0.0122395
-0.0126251
-0.0126995
-0.00968529
-0.00813903
-0.00874382
-0.00804459
-0.00925285
-0.00775217
-0.00858572
-0.00980503
-0.00821152
-0.00816529
-0.00852041
-0.00937673
-0.0078624
-0.00819746
-0.0119109
-0.0114306
-0.0149834
-0.00889206
-0.0106111
-0.0125889
-0.0126554
-0.0119862
-0.0115876
-0.0151307
-0.00907679
-0.0107194
-0.0126918
-0.0128005
-0.00446705
-0.0076857
-0.00633366
-0.00996881
-0.00926209
-0.00842652
-0.00994309
-0.00847327
-0.00926941
-0.00926259
-0.00912198
-0.00924422
-0.00885889
-0.00884983
-0.00877911
-0.00949897
-0.00894977
-0.00857185
-0.00927775
-0.00827363
-0.00909251
-0.00877699
-0.00948684
-0.00893394
-0.00855373
-0.00926358
-0.00825754
-0.00908443
-0.011508
-0.0090019
-0.00934453
-0.00944117
-0.00977572
-0.00981341
-0.0115599
-0.0102388
-0.00874226
-0.00873287
-0.00720474
-0.00993533
-0.00862863
-0.00860096
-0.0117743
-0.0109295
-0.0109915
-0.0118286
-0.0110822
-0.0117545
-0.0118359
-0.0114318
-0.0111765
-0.0117892
-0.0119772
-0.0112096
-0.011338
-0.0116158
-0.0114996
-0.0113055
-0.0118837
-0.0121958
-0.0112817
-0.011446
-0.0117842
-0.00951535
-0.00950928
-0.00972553
-0.00977717
-0.00881396
-0.00929618
-0.00929097
-0.00855715
-0.00762951
-0.00775442
-0.00799093
-0.00882734
-0.00796897
-0.00822848
-0.00851698
-0.00763786
-0.00809131
-0.00825417
-0.00880229
-0.00795789
-0.00797332
-0.00862278
-0.00892645
-0.00883364
-0.00792012
-0.00831584
-0.00825552
-0.00808685
-0.00859076
-0.00890408
-0.00881182
-0.00791674
-0.00832176
-0.00826239
-0.00807469
-0.00991806
-0.0098458
-0.00986
-0.0105688
-0.010987
-0.0101778
-0.0101994
-0.00990169
-0.00980953
-0.00984936
-0.0105679
-0.0109513
-0.0101582
-0.0101857
-0.0117725
-0.0100144
-0.00994426
-0.00917501
-0.0117885
-0.00991326
-0.0100265
-0.00899566
-0.0089356
-0.0105716
-0.0114462
-0.00851694
-0.00930893
-0.00926958
-0.00821155
-0.00777113
-0.00791594
-0.00782713
-0.00792879
-0.0075246
-0.00790208
-0.00835325
-0.00807395
-0.00979569
-0.00983409
-0.0100228
-0.00828587
-0.00826094
-0.00636905
-0.00751575
-0.00734451
-0.00795736
-0.00896233
-0.00789585
-0.0084676
-0.00641598
-0.00749689
-0.00687847
-0.00847578
-0.00908241
-0.00776608
-0.00797399
-0.00856995
-0.00673721
-0.0101295
-0.00944457
-0.0074188
-0.0104878
-0.00905456
-0.00861185
-0.00691949
-0.010236
-0.00961745
-0.00755638
-0.0105196
-0.0091499
-0.00904149
-0.00947625
-0.0108663
-0.00879795
-0.00974953
-0.00790118
-0.0081742
-0.00954647
-0.00920067
-0.0110781
-0.00886445
-0.00995448
-0.00798482
-0.00829465
-0.00862963
-0.00709592
-0.00687262
-0.00640387
0.000532432
-0.00718649
-0.00643157
-0.00899318
-0.00549181
-0.00549713
-0.00740633
-0.00624423
-0.00817218
-0.00817063
-0.0107561
-0.00806654
-0.00745812
-0.00829279
-0.00782398
-0.00809
-0.00966835
-0.0107597
-0.00806351
-0.00744703
-0.00824842
-0.00782561
-0.0080992
-0.00966734
-0.00859338
-0.00832666
-0.00822353
-0.00885022
-0.00883467
-0.00815847
-0.00841423
-0.00856513
-0.00831265
-0.00820855
-0.00882242
-0.008812
-0.00816189
-0.00839944
-0.00691335
-0.00831324
-0.00942683
-0.00954264
-0.00858234
-0.00853148
-0.0105826
-0.00995936
-0.008285
-0.00827761
-0.00784002
-0.00712786
-0.00903006
-0.00900333
-0.00907891
-0.00845089
-0.00871236
-0.00869544
-0.00920357
-0.00843069
-0.00831067
-0.00798271
-0.0077897
-0.00796743
-0.0080811
-0.0083408
-0.00797081
-0.00806994
-0.00640848
-0.00528749
-0.00551173
-0.00611468
-0.00604608
-0.00619014
-0.00589406
-0.00862148
-0.00805489
-0.00826905
-0.00837964
-0.00866575
-0.0083546
-0.00806012
-0.00588087
-0.0033317
-0.00703374
-0.00578312
-0.00439312
-0.00687346
-0.00580473
-0.005898
-0.00341091
-0.00705057
-0.00598936
-0.00445451
-0.00711955
-0.00591696
-0.00845511
-0.00832745
-0.00909621
-0.00807955
-0.00823866
-0.00786332
-0.00770815
-0.00847841
-0.00922122
-0.00847397
-0.0080939
-0.00832171
-0.00795974
-0.00785636
-0.00074861
-0.000796706
-0.0030764
-0.000420055
0.00244577
0.000259943
0.000227372
-0.00717015
-0.00745514
-0.00731113
-0.00734608
-0.00674732
-0.00756045
-0.00738872
-0.00716491
-0.00745827
-0.00736537
-0.00740144
-0.00674388
-0.00755762
-0.00733768
-0.00817173
-0.00936909
-0.00922345
-0.00781021
-0.00766455
-0.0077596
-0.00784089
-0.00816764
-0.00935836
-0.0092206
-0.00780785
-0.00764556
-0.00775925
-0.00782743
-0.0085927
-0.00805453
-0.00827453
-0.00837103
-0.00864395
-0.00833345
-0.00806554
-0.00436455
-0.00701931
-0.00504056
-0.00326656
-0.00591583
-0.00641096
-0.00174635
-0.0043772
-0.00701377
-0.00503416
-0.00325226
-0.00590996
-0.00641482
-0.00175786
-0.00577026
-0.00709345
-0.00710966
-0.00771171
-0.00545075
-0.00742588
-0.00747088
-0.00702933
-0.00703754
-0.00575032
-0.00523185
-0.00723082
-0.00663679
-0.00664044
-0.00730986
-0.00792601
-0.00752257
-0.00790268
-0.00786135
-0.00767797
-0.00789846
-0.00810023
-0.00859137
-0.00810529
-0.00776953
-0.00827121
-0.00805173
-0.00814978
-0.00753433
-0.00824394
-0.00843453
-0.00831518
-0.00778618
-0.00807428
-0.00791646
-0.0054036
-0.005031
-0.00580713
-0.007888
-0.00647873
-0.00745483
-0.00700684
-0.0075512
-0.00822995
-0.00842558
-0.00830956
-0.00779722
-0.00810155
-0.0078944
-0.00854641
-0.00712858
-0.00815164
-0.00830619
-0.00679286
-0.00848657
-0.00750863
-0.00850538
-0.00706871
-0.00673629
-0.0073755
-0.0067933
-0.00842094
-0.00829151
-0.00900999
-0.00858291
-0.00871513
-0.00876671
-0.00944631
-0.00835494
-0.00809989
-0.00475842
-0.00746583
-0.00519089
-0.00731533
-0.0073389
-0.00768184
-0.00712874
-0.00465055
-0.00727086
-0.00506146
-0.00743234
-0.00732057
-0.0080477
-0.00706796
-0.0073873
-0.00622819
-0.00658968
-0.00725257
-0.00659511
-0.00801314
-0.00786082
-0.00618769
-0.00747364
-0.00669547
-0.00724612
-0.00665858
-0.0081385
-0.00796095
-0.00818544
-0.00854688
-0.00804293
-0.0074779
-0.00837418
-0.00825909
-0.00820574
-0.0112229
-0.00735185
-0.00935584
-0.00609385
-0.00271883
-0.00669752
-0.00611283
-0.00212472
-0.00730113
-0.00725692
-4.0972e-05
-0.00507065
-0.000968756
-0.00100666
)
;

boundaryField
{
    inlet
    {
        type            fixedValue;
        value           uniform 0;
    }
    wall
    {
        type            zeroGradient;
    }
    outlet
    {
        type            fixedValue;
        value           uniform 0;
    }
    procBoundary2to0
    {
        type            processor;
        value           nonuniform List<scalar> 
323
(
-0.00022844
-0.000228326
-0.000228317
-0.000228275
-0.000228278
-0.000451861
-0.000451826
-0.000451801
-0.000451777
-0.000451766
-0.00107062
-0.00107048
-0.00107042
-0.00107035
-0.00107032
-0.00138093
-0.00138079
-0.00138072
-0.00138064
-0.00138061
-0.00195914
-0.00195891
-0.00195881
-0.00195869
-0.00195864
-0.00231224
-0.00231196
-0.00231182
-0.00231167
-0.00231161
-0.00285244
-0.00285204
-0.00285185
-0.00285164
-0.00285158
-0.00323681
-0.00323627
-0.00323601
-0.00323573
-0.00323564
-0.00374766
-0.00374691
-0.00374655
-0.00374617
-0.00374606
-0.00415328
-0.00415223
-0.00415173
-0.0041512
-0.00415103
-0.00464116
-0.00463971
-0.00463904
-0.00463834
-0.00463812
-0.00505857
-0.00505654
-0.0050556
-0.00505461
-0.00505429
-0.00552664
-0.00552394
-0.0055228
-0.00552159
-0.00552125
-0.0059452
-0.0059416
-0.00594033
-0.00593877
-0.00593836
-0.00639099
-0.00638697
-0.00638661
-0.00638637
-0.00638709
-0.00679259
-0.00678837
-0.00679099
-0.00679489
-0.00680022
-0.00719431
-0.00719188
-0.00719796
-0.00720524
-0.00720907
-0.00752843
-0.0075252
-0.00752722
-0.00752571
-0.00752596
-0.00780576
-0.00779446
-0.0077887
-0.00778191
-0.00777765
-0.00799147
-0.00796081
-0.00794038
-0.00792125
-0.00790761
-0.0081248
-0.00807142
-0.00802939
-0.00800122
-0.00796753
-0.00819005
-0.00810914
-0.00805555
-0.00802238
-0.00799396
-0.00821183
-0.00811989
-0.00803329
-0.00800413
-0.00792538
-0.00824384
-0.00813808
-0.00808278
-0.00812516
-0.00838136
-0.00816695
-0.00802427
-0.00777242
-0.00751199
-0.00630582
-0.00823228
-0.00808198
-0.00802269
-0.0081649
-0.00937443
-0.00807619
-0.00781537
-0.00761474
-0.00737555
-0.0069607
-0.00825441
-0.0080568
-0.00830725
-0.00809546
-0.00635242
-0.00808259
-0.00781197
-0.0081663
-0.00785799
-0.00906708
-0.00812493
-0.00783881
-0.00810568
-0.00672502
-0.00690112
-0.00755651
-0.00762118
-0.00764487
-0.00681315
-0.00665403
-0.00767425
-0.00766723
-0.00799558
-0.00805461
-0.0122678
-0.00698794
-0.00699122
-0.00711419
-0.00769802
-0.0121827
-0.00704726
-0.00706879
-0.00698417
-0.00723942
-0.00627281
-0.00623119
-0.00625671
-0.00617331
-0.00615984
-0.00597276
-0.00582208
-0.00582782
-0.00579055
-0.0058756
-0.00575726
-0.00434878
-0.00436254
-0.00434358
-0.00437658
-0.00434554
-0.00362563
-0.00365089
-0.00372243
-0.00382617
-0.0038677
-0.00154835
-0.00158032
-0.00166943
-0.00165057
-0.00162419
-0.000841113
-0.000869692
-0.000916571
-0.00103889
-0.00112479
-0.00981536
-0.0096175
-0.00462434
-0.0105456
-0.014775
-0.0108184
-0.00762611
-0.00709584
-0.0120508
-0.00683288
-0.00474663
-0.00678455
-0.00710092
-0.00834371
-0.00921311
-0.00826009
-0.00821766
-0.00766742
-0.0074332
-0.00803084
-0.0085945
-0.00821392
-0.00806152
-0.00789802
-0.0128847
-0.0126078
-0.0137782
-0.00805313
-0.00925386
-0.00967407
-0.015025
-0.0126625
-0.0114499
-0.00996645
-0.00926412
-0.00447264
-0.00927161
-0.0088617
-0.00912694
-0.00856962
-0.00908775
-0.00949248
-0.0109019
-0.0117237
-0.0117948
-0.0119652
-0.0115859
-0.0111534
-0.00881646
-0.00929904
-0.00951615
-0.00799315
-0.00882545
-0.00856235
-0.00831206
-0.0080854
-0.00892584
-0.00991572
-0.0102015
-0.0109863
-0.00807387
-0.00826543
-0.00976905
-0.00794891
-0.00894635
-0.0063777
-0.0100968
-0.00902616
-0.00671934
-0.00903347
-0.00816721
-0.0108531
-0.00640784
0.000522931
-0.00865043
-0.00550732
-0.00817723
-0.00740931
-0.00828853
-0.0096692
-0.00807326
-0.00885069
-0.00840972
-0.00832216
-0.00528464
-0.00616566
-0.00614693
-0.00573997
-0.0057582
-0.00335668
-0.0084489
-0.00770151
-0.00831887
0.00242806
0.00014256
-0.000789324
-0.00735165
-0.0067408
-0.00717387
-0.00766006
-0.00783563
-0.00936712
-0.00437109
-0.00177468
-0.00593942
-0.00647816
-0.00744419
-0.00546709
-0.00829435
-0.00681828
-0.00851887
-0.00478196
-0.00711848
-0.00731736
-0.00738495
-0.00785725
-0.00657689
-0.00608688
-0.00269543
-0.0112397
-0.00734462
-0.000906533
-4.49382e-05
)
;
    }
    procBoundary2to3
    {
        type            processor;
        value           nonuniform List<scalar> 
323
(
-0.000228256
-0.000228258
-0.000228274
-0.000228286
-0.000228351
-0.000451751
-0.000451751
-0.000451755
-0.000451767
-0.000451767
-0.00107028
-0.00107029
-0.00107031
-0.00107035
-0.00107043
-0.00138056
-0.00138057
-0.0013806
-0.00138064
-0.00138071
-0.00195858
-0.00195859
-0.00195864
-0.00195871
-0.00195885
-0.00231154
-0.00231155
-0.00231163
-0.00231172
-0.0023119
-0.00285149
-0.00285151
-0.00285162
-0.00285175
-0.00285203
-0.00323554
-0.00323557
-0.00323574
-0.00323594
-0.00323634
-0.00374594
-0.00374599
-0.00374624
-0.00374652
-0.0037471
-0.0041509
-0.00415099
-0.00415136
-0.00415177
-0.00415261
-0.00463797
-0.0046381
-0.00463863
-0.0046392
-0.00464039
-0.00505411
-0.00505433
-0.00505511
-0.00505594
-0.00505766
-0.00552106
-0.00552131
-0.00552229
-0.00552331
-0.00552564
-0.0059381
-0.00593845
-0.00593975
-0.00594087
-0.00594403
-0.00638686
-0.0063862
-0.00638606
-0.00638629
-0.00638974
-0.00680039
-0.00679499
-0.00679021
-0.00678745
-0.00679097
-0.00720882
-0.00720489
-0.00719746
-0.0071909
-0.00719248
-0.00752468
-0.00752403
-0.00752485
-0.00752314
-0.00752538
-0.00777546
-0.00777911
-0.00778449
-0.00779016
-0.00780089
-0.00790458
-0.00791687
-0.00793407
-0.00795439
-0.00798525
-0.00796423
-0.00799706
-0.00802254
-0.00806385
-0.00811409
-0.0079902
-0.00801661
-0.00804739
-0.00809995
-0.00817846
-0.00792131
-0.00800065
-0.00802633
-0.00811304
-0.00820057
-0.00837444
-0.00811831
-0.00807726
-0.00813043
-0.00823176
-0.00631103
-0.00751167
-0.00776599
-0.00801781
-0.00815269
-0.0112168
-0.00814826
-0.00802118
-0.00807419
-0.00822519
-0.00863262
-0.00717663
-0.00760892
-0.00780983
-0.00806521
-0.00446684
-0.00851608
-0.0083203
-0.00805916
-0.0082636
-0.00920771
-0.00857237
-0.00816869
-0.0078225
-0.00809181
-0.00680433
-0.0084673
-0.00812771
-0.00788384
-0.00815746
-0.00474224
-0.00640165
-0.00766468
-0.00768449
-0.00758803
-0.0108772
-0.00982932
-0.0081038
-0.00773873
-0.00773715
-0.0119834
-0.00782133
-0.00721253
-0.0070448
-0.00703487
-0.00637063
-0.0073719
-0.00708113
-0.00713129
-0.00710728
-0.00600848
-0.00619386
-0.00622285
-0.00629845
-0.00627456
-0.00577826
-0.0059017
-0.00582501
-0.00585988
-0.00585813
-0.00435848
-0.00439151
-0.00436663
-0.00438603
-0.00437479
-0.00387341
-0.00383564
-0.00373684
-0.0036654
-0.00364371
-0.00162756
-0.00165431
-0.00167666
-0.00159226
-0.00155875
-0.00112577
-0.00104006
-0.000920168
-0.000874117
-0.000846529
-0.00675001
-0.0100232
-0.00965579
-0.0124922
-0.0107763
-0.0148263
-0.012328
-0.00780338
-0.00718664
-0.00700834
-0.00680031
-0.0044031
-0.00906024
-0.00706592
-0.00830152
-0.00826875
-0.00820995
-0.00761613
-0.00786217
-0.00741142
-0.00804067
-0.0082103
-0.00807133
-0.00788624
-0.0129516
-0.0127458
-0.0138893
-0.00821541
-0.00817563
-0.0094924
-0.0152108
-0.0128483
-0.0116261
-0.00633476
-0.00994191
-0.00925984
-0.00926191
-0.00885298
-0.00912278
-0.00855247
-0.00909499
-0.00949241
-0.0110231
-0.0118797
-0.0118674
-0.0122321
-0.0118316
-0.0113368
-0.00881176
-0.00928909
-0.00950814
-0.00809306
-0.00798746
-0.00880897
-0.00833094
-0.00808745
-0.00890515
-0.00990305
-0.0101857
-0.0109588
-0.00807099
-0.00827312
-0.00985591
-0.00687973
-0.00796232
-0.00907707
-0.00923687
-0.00833082
-0.0111118
-0.0102592
-0.00917496
-0.00692451
-0.00689786
-0.00644284
0.000530169
-0.00549551
-0.00816884
-0.00740484
-0.00825478
-0.00966681
-0.00805868
-0.00882889
-0.00841103
-0.00831807
-0.00549758
-0.005902
-0.00607593
-0.00604249
-0.00594419
-0.00337161
-0.00848102
-0.00786252
-0.00848394
0.00244622
0.000236299
-0.000801763
-0.00737089
-0.00733625
-0.00675036
-0.00765669
-0.00783469
-0.00936154
-0.00438769
-0.00174965
-0.00589703
-0.00647221
-0.00700644
-0.00493665
-0.00673738
-0.0082901
-0.00673906
-0.00746356
-0.00795794
-0.006678
-0.0046156
-0.00708444
-0.00734868
-0.00932504
-0.00612061
-0.00275343
-0.00725437
-0.001012
-6.25633e-05
)
;
    }
}


// ************************************************************************* //
