/*--------------------------------*- C++ -*----------------------------------*\
| =========                 |                                                 |
| \\      /  F ield         | OpenFOAM: The Open Source CFD Toolbox           |
|  \\    /   O peration     | Version:  5.x                                   |
|   \\  /    A nd           | Web:      www.OpenFOAM.org                      |
|    \\/     M anipulation  |                                                 |
\*---------------------------------------------------------------------------*/
FoamFile
{
    version     2.0;
    format      ascii;
    class       volVectorField;
    location    "0.075";
    object      U;
}
// * * * * * * * * * * * * * * * * * * * * * * * * * * * * * * * * * * * * * //

dimensions      [0 1 -1 0 0 0 0];

internalField   nonuniform List<vector> 
1574
(
(-3.63548e-05 -4.30313e-06 0.0278063)
(-3.92693e-05 -5.19054e-06 0.0277774)
(-2.60687e-05 -5.56278e-06 0.0277761)
(-2.49752e-05 -6.21461e-06 0.0277675)
(-8.15201e-06 -6.59885e-06 0.0277696)
(-3.66058e-05 1.17028e-05 0.0278049)
(-3.96411e-05 1.12485e-05 0.027776)
(-2.64123e-05 1.09938e-05 0.0277747)
(-2.53306e-05 1.05517e-05 0.0277661)
(-8.49562e-06 1.02258e-05 0.0277683)
(-3.68122e-05 1.37585e-05 0.0278103)
(-3.99778e-05 1.345e-05 0.0277814)
(-2.67655e-05 1.32698e-05 0.0277802)
(-2.57431e-05 1.29369e-05 0.0277716)
(-8.96876e-06 1.26734e-05 0.0277738)
(-3.69135e-05 2.63531e-05 0.0278116)
(-4.01294e-05 2.62314e-05 0.0277828)
(-2.69253e-05 2.60908e-05 0.0277816)
(-2.5927e-05 2.5862e-05 0.0277731)
(-9.1693e-06 2.56197e-05 0.0277754)
(-3.69271e-05 2.62841e-05 0.0278338)
(-4.02399e-05 2.62704e-05 0.0278052)
(-2.71349e-05 2.61806e-05 0.027804)
(-2.62143e-05 2.60644e-05 0.0277955)
(-9.60269e-06 2.58955e-05 0.0277977)
(-4.38793e-06 -5.57792e-06 -0.0155364)
(-7.03407e-06 -5.04754e-06 -0.0155327)
(-9.50427e-06 -4.96985e-06 -0.0155333)
(-1.04756e-05 -4.86914e-06 -0.0155331)
(-7.16736e-06 -4.98014e-06 -0.0155341)
(-4.28837e-06 -9.70503e-07 -0.0155362)
(-6.93261e-06 -7.77891e-07 -0.0155325)
(-9.52385e-06 -8.07526e-07 -0.0155331)
(-1.05622e-05 -8.44112e-07 -0.0155329)
(-7.34409e-06 -9.99019e-07 -0.015534)
(-4.18213e-06 1.87704e-07 -0.0155361)
(-6.87044e-06 2.80318e-07 -0.0155324)
(-9.57049e-06 2.12518e-07 -0.015533)
(-1.06671e-05 1.55806e-07 -0.0155328)
(-7.55121e-06 -2.47636e-09 -0.0155339)
(-4.18589e-06 -4.8779e-07 -0.015536)
(-6.90734e-06 -4.71502e-07 -0.0155323)
(-9.64835e-06 -5.50954e-07 -0.0155329)
(-1.07772e-05 -6.31134e-07 -0.0155328)
(-7.69988e-06 -7.75885e-07 -0.0155338)
(-4.1591e-06 4.10923e-07 -0.0155385)
(-6.9334e-06 4.37717e-07 -0.0155349)
(-9.73016e-06 3.90392e-07 -0.0155355)
(-1.08921e-05 3.59545e-07 -0.0155354)
(-7.8914e-06 2.78431e-07 -0.0155365)
(-3.33167e-05 -4.20439e-06 0.0211389)
(-3.69142e-05 -4.96649e-06 0.0211166)
(-2.706e-05 -5.29719e-06 0.0211144)
(-2.63878e-05 -6.00401e-06 0.0211017)
(-9.3626e-06 -6.44211e-06 0.0211008)
(-3.35592e-05 1.23671e-05 0.0211393)
(-3.72695e-05 1.19359e-05 0.0211168)
(-2.74204e-05 1.16791e-05 0.0211146)
(-2.67855e-05 1.11834e-05 0.0211017)
(-9.78102e-06 1.08066e-05 0.0211008)
(-3.37493e-05 1.44237e-05 0.021149)
(-3.76018e-05 1.41203e-05 0.0211265)
(-2.78124e-05 1.39168e-05 0.0211243)
(-2.72603e-05 1.35325e-05 0.0211114)
(-1.03552e-05 1.3212e-05 0.0211104)
(-3.38607e-05 2.44798e-05 0.0211506)
(-3.77761e-05 2.435e-05 0.021128)
(-2.80083e-05 2.41866e-05 0.0211258)
(-2.74903e-05 2.39222e-05 0.0211128)
(-1.06164e-05 2.36356e-05 0.0211118)
(-3.38707e-05 2.42366e-05 0.0211689)
(-3.78949e-05 2.42264e-05 0.0211466)
(-2.82403e-05 2.41263e-05 0.0211444)
(-2.78114e-05 2.39987e-05 0.0211315)
(-1.11196e-05 2.38077e-05 0.0211304)
(-2.75448e-05 -5.90952e-06 -0.00914809)
(-3.15094e-05 -5.86486e-06 -0.00916208)
(-2.43925e-05 -5.97969e-06 -0.00916458)
(-2.40857e-05 -6.16783e-06 -0.0091744)
(-9.59687e-06 -6.44653e-06 -0.0091763)
(-2.75854e-05 9.08269e-06 -0.0091477)
(-3.16029e-05 9.13435e-06 -0.00916173)
(-2.45613e-05 9.00572e-06 -0.00916425)
(-2.43074e-05 8.83319e-06 -0.00917413)
(-9.91638e-06 8.55772e-06 -0.00917608)
(-2.74763e-05 1.14535e-05 -0.00913976)
(-3.15857e-05 1.15173e-05 -0.00915369)
(-2.46936e-05 1.13944e-05 -0.00915623)
(-2.45337e-05 1.12588e-05 -0.00916612)
(-1.03468e-05 1.10026e-05 -0.00916816)
(-2.75052e-05 1.94964e-05 -0.00913832)
(-3.16615e-05 1.96254e-05 -0.00915225)
(-2.48199e-05 1.95167e-05 -0.0091548)
(-2.46991e-05 1.94273e-05 -0.00916472)
(-1.05753e-05 1.91845e-05 -0.00916678)
(-2.73286e-05 1.95861e-05 -0.00912597)
(-3.15652e-05 1.97627e-05 -0.00913977)
(-2.48919e-05 1.96999e-05 -0.00914233)
(-2.4866e-05 1.9702e-05 -0.00915217)
(-1.09971e-05 1.95422e-05 -0.0091543)
(-4.80476e-05 -4.45839e-06 0.0157802)
(-5.34744e-05 -5.30154e-06 0.015749)
(-3.94084e-05 -5.70067e-06 0.0157448)
(-3.81384e-05 -6.59573e-06 0.0157243)
(-1.23452e-05 -7.19183e-06 0.0157216)
(-4.83211e-05 2.07205e-05 0.0157813)
(-5.38831e-05 2.03569e-05 0.01575)
(-3.98575e-05 2.00571e-05 0.0157456)
(-3.86521e-05 1.94848e-05 0.0157251)
(-1.29365e-05 1.89801e-05 0.0157222)
(-4.84031e-05 2.3832e-05 0.015798)
(-5.41373e-05 2.36382e-05 0.0157667)
(-4.02805e-05 2.34008e-05 0.0157623)
(-3.92154e-05 2.29799e-05 0.0157417)
(-1.37665e-05 2.25455e-05 0.0157387)
(-4.85022e-05 3.82408e-05 0.0158009)
(-5.43138e-05 3.83258e-05 0.0157696)
(-4.05158e-05 3.8155e-05 0.0157652)
(-3.95074e-05 3.79321e-05 0.0157445)
(-1.41419e-05 3.75488e-05 0.0157414)
(-4.82947e-05 3.71872e-05 0.0158278)
(-5.4223e-05 3.73947e-05 0.015797)
(-4.06745e-05 3.73014e-05 0.0157926)
(-3.98218e-05 3.72499e-05 0.015772)
(-1.4871e-05 3.69971e-05 0.0157688)
(-6.00343e-05 -5.51514e-06 -0.00464176)
(-6.69565e-05 -6.0347e-06 -0.00467831)
(-4.90377e-05 -6.39321e-06 -0.0046841)
(-4.72236e-05 -7.10153e-06 -0.00470844)
(-1.44568e-05 -7.70449e-06 -0.00471236)
(-6.02253e-05 2.6804e-05 -0.00464045)
(-6.7277e-05 2.67819e-05 -0.00467706)
(-4.94425e-05 2.65223e-05 -0.00468289)
(-4.77094e-05 2.61319e-05 -0.00470736)
(-1.50817e-05 2.56117e-05 -0.00471138)
(-6.00282e-05 3.0975e-05 -0.00462039)
(-6.72374e-05 3.11117e-05 -0.00465665)
(-4.96877e-05 3.09089e-05 -0.00466248)
(-4.81343e-05 3.06648e-05 -0.00468685)
(-1.59405e-05 3.02105e-05 -0.004691)
(-6.00565e-05 4.94017e-05 -0.00461664)
(-6.73423e-05 4.98666e-05 -0.0046528)
(-4.98893e-05 4.97392e-05 -0.00465863)
(-4.84078e-05 4.9715e-05 -0.004683)
(-1.63535e-05 4.93114e-05 -0.00468721)
(-5.95177e-05 4.78038e-05 -0.00458462)
(-6.68998e-05 4.83426e-05 -0.00462018)
(-4.98399e-05 4.82912e-05 -0.00462591)
(-4.85625e-05 4.8421e-05 -0.00464995)
(-1.71374e-05 4.81601e-05 -0.00465423)
(-8.63286e-05 -4.15838e-06 0.0119782)
(-9.59123e-05 -5.31373e-06 0.0119214)
(-6.95846e-05 -5.90207e-06 0.0119124)
(-6.64412e-05 -7.23016e-06 0.0118748)
(-1.84788e-05 -8.15407e-06 0.011869)
(-8.66508e-05 4.21197e-05 0.0119808)
(-9.64251e-05 4.20589e-05 0.0119238)
(-7.02077e-05 4.17133e-05 0.0119148)
(-6.71851e-05 4.11136e-05 0.011877)
(-1.94022e-05 4.03708e-05 0.0118711)
(-8.63547e-05 4.76695e-05 0.0120124)
(-9.63178e-05 4.79339e-05 0.0119559)
(-7.05299e-05 4.77004e-05 0.0119469)
(-6.77836e-05 4.73769e-05 0.0119092)
(-2.07192e-05 4.67557e-05 0.0119031)
(-8.63425e-05 7.39939e-05 0.0120187)
(-9.63931e-05 7.48874e-05 0.0119623)
(-7.07646e-05 7.48136e-05 0.0119534)
(-6.81298e-05 7.49243e-05 0.0119157)
(-2.13074e-05 7.44134e-05 0.0119095)
(-8.53928e-05 7.06984e-05 0.0120687)
(-9.5498e-05 7.1648e-05 0.0120135)
(-7.04939e-05 7.16617e-05 0.0120047)
(-6.81846e-05 7.19631e-05 0.0119675)
(-2.24424e-05 7.16423e-05 0.0119612)
(-0.000119356 -3.93023e-06 -0.00155336)
(-0.000132723 -5.08775e-06 -0.00162974)
(-9.55162e-05 -5.75654e-06 -0.00164233)
(-9.05417e-05 -7.1998e-06 -0.00169273)
(-2.33323e-05 -8.28918e-06 -0.00170077)
(-0.000119637 6.09979e-05 -0.00154976)
(-0.000133215 6.13124e-05 -0.00162607)
(-9.61822e-05 6.10014e-05 -0.0016387)
(-9.13703e-05 6.04904e-05 -0.00168921)
(-2.44305e-05 5.96327e-05 -0.00169744)
(-0.000118973 6.88367e-05 -0.00150771)
(-0.000132718 6.95783e-05 -0.00158281)
(-9.63381e-05 6.94155e-05 -0.00159524)
(-9.19104e-05 6.92629e-05 -0.00164518)
(-2.59803e-05 6.85587e-05 -0.00165352)
(-0.000118814 0.000105758 -0.00149905)
(-0.000132634 0.000107397 -0.00157368)
(-9.64976e-05 0.000107461 -0.00158601)
(-9.22271e-05 0.000107916 -0.00163575)
(-2.66849e-05 0.000107362 -0.00164414)
(-0.000117215 0.000100234 -0.00143234)
(-0.000131015 0.000101833 -0.00150495)
(-9.58207e-05 0.000101971 -0.00151679)
(-9.20108e-05 0.000102589 -0.00156537)
(-2.80177e-05 0.000102254 -0.00157369)
(-0.000166232 -1.8347e-06 0.00935393)
(-0.000185031 -3.4665e-06 0.00924252)
(-0.000132634 -4.35759e-06 0.00922272)
(-0.000124944 -6.40399e-06 0.00914953)
(-3.02084e-05 -7.88247e-06 0.00913714)
(-0.000166468 8.78106e-05 0.00936032)
(-0.00018551 8.90309e-05 0.00924914)
(-0.000133411 8.88492e-05 0.00922938)
(-0.000125979 8.87069e-05 0.00915613)
(-3.16899e-05 8.7671e-05 0.00914362)
(-0.000164903 9.84207e-05 0.00942296)
(-0.00018399 0.00010038 0.00931319)
(-0.000132958 0.000100445 0.00929387)
(-0.000126122 0.00010089 0.00922108)
(-3.37821e-05 0.000100109 0.00920848)
(-0.000164376 0.000149372 0.00943705)
(-0.000183483 0.000152891 0.00932819)
(-0.000132901 0.0001534 0.00930913)
(-0.000126315 0.000154885 0.00923678)
(-3.46981e-05 0.000154393 0.00922422)
(-0.00016119 0.000140512 0.00953542)
(-0.000179962 0.000143698 0.00942944)
(-0.000130966 0.000144228 0.00941127)
(-0.000125131 0.000145766 0.00934033)
(-3.64013e-05 0.000145521 0.00932798)
(-0.000235721 1.22849e-06 0.000467784)
(-0.000263936 -5.44243e-07 0.000313496)
(-0.000188442 -1.54487e-06 0.000285284)
(-0.000176053 -3.94178e-06 0.000183884)
(-4.04485e-05 -5.68178e-06 0.000166496)
(-0.00023575 0.000129974 0.000476974)
(-0.000264156 0.000131926 0.000323447)
(-0.000189124 0.000132095 0.000295399)
(-0.000177069 0.00013198 0.000194218)
(-4.22011e-05 0.000130916 0.000176598)
(-0.00023358 0.000145522 0.000561179)
(-0.000261812 0.000148562 0.000411474)
(-0.000188388 0.000149106 0.000384401)
(-0.000177232 0.000149848 0.000285526)
(-4.47098e-05 0.000149102 0.000268145)
(-0.000232484 0.000218362 0.000580957)
(-0.000260567 0.00022365 0.00043308)
(-0.000187839 0.000224872 0.000406553)
(-0.000177073 0.000227168 0.000308629)
(-4.5759e-05 0.000226863 0.000291405)
(-0.00022797 0.000203263 0.000713805)
(-0.000255301 0.000207777 0.000571933)
(-0.000184874 0.00020885 0.000547265)
(-0.000175245 0.000210966 0.000453081)
(-4.77209e-05 0.000210864 0.000436629)
(-0.000327583 6.02309e-06 0.00754408)
(-0.000367772 4.13606e-06 0.00732094)
(-0.000262323 2.9642e-06 0.00727398)
(-0.000243803 3.23786e-08 0.00712842)
(-5.32664e-05 -2.31401e-06 0.00709934)
(-0.000327017 0.000181265 0.00756027)
(-0.000367325 0.000187071 0.00733886)
(-0.000262717 0.00018803 0.00729264)
(-0.000244852 0.000190414 0.00714802)
(-5.5644e-05 0.000189386 0.00711941)
(-0.000321454 0.000202456 0.00768495)
(-0.000361001 0.000210082 0.00746741)
(-0.00025898 0.000211669 0.00742341)
(-0.000242447 0.000215373 0.00728004)
(-5.87283e-05 0.00021499 0.00725231)
(-0.000319005 0.000302048 0.00771766)
(-0.000358105 0.000313568 0.00750376)
(-0.000257426 0.000316491 0.00746116)
(-0.000241531 0.000322673 0.00732001)
(-5.99646e-05 0.000323112 0.00729297)
(-0.000309395 0.000279555 0.00791265)
(-0.000346557 0.000289165 0.00770613)
(-0.000249882 0.000291641 0.00766717)
(-0.000235832 0.000297095 0.00752983)
(-6.20988e-05 0.000297661 0.00750448)
(-0.000468898 1.61684e-05 0.00168945)
(-0.000534102 1.46636e-05 0.00137798)
(-0.000380872 1.37867e-05 0.00131123)
(-0.000350614 1.07254e-05 0.00110655)
(-7.68272e-05 8.55722e-06 0.00106619)
(-0.000467126 0.00027078 0.00171258)
(-0.000531855 0.000278322 0.00140457)
(-0.000379874 0.000281456 0.00133916)
(-0.000350219 0.00028353 0.00113608)
(-7.9045e-05 0.00028381 0.00109545)
(-0.000460822 0.000302857 0.0018779)
(-0.000523415 0.000313386 0.00158132)
(-0.000375664 0.000317543 0.00151931)
(-0.00034826 0.000321754 0.0013246)
(-8.2227e-05 0.000322578 0.00128571)
(-0.000455964 0.000446319 0.00192375)
(-0.000517156 0.000462451 0.00163346)
(-0.000371507 0.000468697 0.00157394)
(-0.000345184 0.000477026 0.00138257)
(-8.32126e-05 0.000479103 0.00134503)
(-0.000443809 0.0004074 0.00218392)
(-0.000501036 0.000419554 0.00191037)
(-0.000361102 0.0004244 0.00185727)
(-0.000337864 0.000430589 0.00167704)
(-8.50202e-05 0.000432248 0.00164305)
(-0.000653285 2.82362e-05 0.00622264)
(-0.000746415 2.80108e-05 0.00577056)
(-0.000533853 2.74783e-05 0.00565133)
(-0.000488944 2.41767e-05 0.00535749)
(-0.000101997 2.0535e-05 0.00528053)
(-0.00064912 0.000369794 0.00626413)
(-0.000741159 0.000390492 0.0058198)
(-0.000531304 0.0003962 0.00570433)
(-0.000488658 0.000408554 0.00541726)
(-0.000105743 0.000408999 0.00534436)
(-0.000631655 0.00041368 0.00651104)
(-0.000719992 0.000439061 0.00607666)
(-0.000515792 0.000446537 0.00597043)
(-0.000476145 0.000461962 0.00568498)
(-0.000109553 0.000464667 0.00561869)
(-0.000622626 0.000608213 0.00658855)
(-0.000708281 0.000642993 0.00616772)
(-0.000508404 0.000654843 0.00606726)
(-0.000470528 0.000675523 0.00579095)
(-0.000110182 0.000680871 0.00572806)
(-0.000595384 0.000551967 0.00697278)
(-0.000673362 0.000579209 0.00657073)
(-0.000483283 0.000588376 0.00648394)
(-0.000450133 0.000605441 0.00621734)
(-0.000111149 0.000609699 0.00616226)
(-0.000941496 5.68415e-05 0.00228718)
(-0.00110563 6.05244e-05 0.00165523)
(-0.000793805 6.23563e-05 0.00148741)
(-0.000721305 6.30028e-05 0.0010733)
(-0.000165497 6.33837e-05 0.000974832)
(-0.000931684 0.000559091 0.00234599)
(-0.00109188 0.000584325 0.00172716)
(-0.000782277 0.000600451 0.00156706)
(-0.000710076 0.000610914 0.00115533)
(-0.000165258 0.000621858 0.00105663)
(-0.000914736 0.000627202 0.00266636)
(-0.00106424 0.000661184 0.00207936)
(-0.000767219 0.000680345 0.00192919)
(-0.000699897 0.000695317 0.00154574)
(-0.000164318 0.000706145 0.00144982)
(-0.000895892 0.000908503 0.00277471)
(-0.00103869 0.00095676 0.00220852)
(-0.000748143 0.000982421 0.0020686)
(-0.000684273 0.00100961 0.00169527)
(-0.000162974 0.0010229 0.00160737)
(-0.000864059 0.000809581 0.00327826)
(-0.000990324 0.000841414 0.00275532)
(-0.000714406 0.00086037 0.00263665)
(-0.000659448 0.000876958 0.00229402)
(-0.00015981 0.000886709 0.00221948)
(-0.00131422 8.75988e-05 0.00506265)
(-0.00154698 9.73351e-05 0.00413591)
(-0.00111592 0.00010356 0.00381914)
(-0.00100167 9.94437e-05 0.00321328)
(-0.000212363 9.41953e-05 0.0029896)
(-0.00129641 0.000749084 0.00517147)
(-0.00152087 0.000814741 0.00427553)
(-0.00110326 0.000838116 0.00397068)
(-0.000999229 0.000881126 0.00340304)
(-0.000217713 0.000884128 0.00319528)
(-0.00124587 0.000842459 0.00565617)
(-0.0014579 0.000920537 0.00478681)
(-0.00104954 0.000948201 0.00451548)
(-0.000955655 0.00100202 0.00394063)
(-0.000224525 0.00101554 0.00377118)
(-0.00121513 0.00122046 0.00584401)
(-0.00141506 0.00131962 0.00502248)
(-0.00102178 0.00136304 0.00477298)
(-0.000931886 0.00142458 0.00423097)
(-0.000217985 0.00145131 0.00407104)
(-0.00114255 0.00107945 0.00658821)
(-0.00131532 0.00115203 0.00581593)
(-0.000944651 0.00118335 0.00561491)
(-0.000867425 0.00123235 0.00509846)
(-0.000210658 0.00125048 0.0049704)
(-0.00191073 0.000166135 0.00231014)
(-0.00234971 0.000196187 0.00102323)
(-0.00171616 0.000208027 0.000535419)
(-0.00155063 0.000240517 -0.00036064)
(-0.000408918 0.000254829 -0.000689631)
(-0.00186905 0.00115248 0.0024644)
(-0.00229322 0.00123508 0.00122537)
(-0.0016545 0.00129663 0.000790928)
(-0.00148527 0.00133807 -8.46818e-05)
(-0.000396135 0.00140323 -0.000381262)
(-0.00182372 0.00129963 0.00308636)
(-0.00220547 0.00140791 0.00192506)
(-0.00161315 0.00148241 0.00152868)
(-0.00144404 0.00152299 0.000758371)
(-0.000359626 0.00158164 0.000482082)
(-0.00175544 0.0018414 0.0033496)
(-0.00211032 0.00198647 0.00225924)
(-0.00153942 0.00208238 0.00191036)
(-0.00138605 0.002168 0.00118043)
(-0.000350808 0.0022227 0.000957311)
(-0.00167179 0.00158886 0.00431643)
(-0.00196448 0.00167251 0.00332204)
(-0.00143175 0.00174156 0.00304547)
(-0.00130381 0.0017855 0.00238933)
(-0.000321359 0.00182817 0.00221399)
(-0.00266112 0.000246137 0.0036865)
(-0.00332312 0.000297668 0.00176442)
(-0.00249971 0.000355446 0.000845317)
(-0.00222685 0.000364202 -0.000457968)
(-0.000563839 0.000389962 -0.00112417)
(-0.00259354 0.00152545 0.00398006)
(-0.00319576 0.0017167 0.00216692)
(-0.00241326 0.00183148 0.00132075)
(-0.00217151 0.00200022 9.72175e-05)
(-0.00053543 0.00205597 -0.000484489)
(-0.002462 0.00172764 0.004919)
(-0.00301697 0.00195448 0.00319137)
(-0.00221627 0.00206768 0.00246955)
(-0.00200236 0.00226708 0.00127203)
(-0.0005344 0.00235403 0.000769773)
(-0.00235726 0.00245127 0.00539668)
(-0.00285551 0.0027178 0.00381861)
(-0.00210067 0.00288122 0.00317089)
(-0.00188507 0.00305695 0.002097)
(-0.000472107 0.00318463 0.00167215)
(-0.00218377 0.00209268 0.00680033)
(-0.00258702 0.00226616 0.00535142)
(-0.00187734 0.00237289 0.0048563)
(-0.00169907 0.00249888 0.00386153)
(-0.000429265 0.00256669 0.00354338)
(-0.00392111 0.000463264 0.00165146)
(-0.00519248 0.000593184 -0.000910682)
(-0.00393832 0.000676405 -0.00233733)
(-0.00352043 0.000780662 -0.00418473)
(-0.00110365 0.000876042 -0.00530657)
(-0.00376667 0.00238482 0.00206875)
(-0.00495394 0.00266187 -0.000306532)
(-0.00372387 0.00292081 -0.00159308)
(-0.00329068 0.00306823 -0.00323968)
(-0.00101109 0.00329747 -0.00421968)
(-0.00363127 0.00271604 0.00332764)
(-0.00465624 0.00305916 0.0010711)
(-0.00353205 0.0033321 -3.04864e-05)
(-0.00314376 0.00352244 -0.00163245)
(-0.000909051 0.00373806 -0.00240515)
(-0.00340793 0.00372436 0.00395824)
(-0.00433745 0.00414784 0.00195111)
(-0.00326058 0.00447044 0.00105641)
(-0.00288463 0.00475891 -0.000367529)
(-0.000828939 0.00499789 -0.00100214)
(-0.00318849 0.0030597 0.00574981)
(-0.00391016 0.00327914 0.00391992)
(-0.00292142 0.00350632 0.00327155)
(-0.00261656 0.00363387 0.00196604)
(-0.000703457 0.00378702 0.00153012)
(-0.00534391 0.000676798 0.00193705)
(-0.00731514 0.000905049 -0.00186503)
(-0.00577378 0.00110323 -0.00472728)
(-0.00519651 0.00129897 -0.00774303)
(-0.00171094 0.00146911 -0.0102625)
(-0.00508324 0.00320165 0.00271205)
(-0.00686049 0.00369878 -0.000728778)
(-0.00534639 0.00413881 -0.00314402)
(-0.0047985 0.00455289 -0.00578527)
(-0.00153627 0.00495779 -0.00777548)
(-0.00482578 0.00361666 0.00451434)
(-0.00637747 0.00421188 0.00122855)
(-0.00491971 0.00471707 -0.000793504)
(-0.00437753 0.00513922 -0.0032243)
(-0.00135217 0.00557159 -0.00484225)
(-0.00446171 0.00487476 0.00562698)
(-0.00575928 0.00556855 0.00281839)
(-0.00441905 0.00618562 0.00121101)
(-0.00394394 0.00665832 -0.000824296)
(-0.00114869 0.00712311 -0.00199315)
(-0.00409982 0.00396982 0.00832956)
(-0.0050666 0.00433171 0.00555157)
(-0.00383075 0.00469466 0.00441975)
(-0.00344054 0.00494625 0.00253403)
(-0.000940364 0.00521905 0.00171278)
(-0.00789979 0.00124911 0.000314179)
(-0.0118609 0.00172511 -0.00486263)
(-0.00981614 0.00225334 -0.00930225)
(-0.00905591 0.0027138 -0.0137532)
(-0.00367128 0.00333308 -0.0180406)
(-0.00737221 0.00496221 0.00145652)
(-0.0108138 0.0057555 -0.00306482)
(-0.00878008 0.00685488 -0.00677998)
(-0.00792231 0.00758713 -0.0103789)
(-0.00305755 0.00871798 -0.0137721)
(-0.00707219 0.00563052 0.00385751)
(-0.0099675 0.00660562 -0.000476292)
(-0.00798445 0.00768672 -0.00342191)
(-0.00719281 0.00848315 -0.00684722)
(-0.00260034 0.00952025 -0.00937123)
(-0.00635354 0.00754272 0.00541229)
(-0.00875633 0.00847376 0.00174655)
(-0.00690255 0.00968709 -0.000488738)
(-0.00608884 0.010521 -0.0031459)
(-0.00207547 0.011557 -0.00495646)
(-0.00609475 0.00588963 0.00878592)
(-0.00782313 0.00614842 0.00534493)
(-0.00593848 0.0068692 0.0037943)
(-0.00532362 0.00715591 0.001309)
(-0.00162536 0.00766837 0.000183961)
(-0.0107662 0.00184136 -6.98232e-05)
(-0.0169376 0.00270239 -0.00812172)
(-0.0146647 0.00363155 -0.0169653)
(-0.0139357 0.00464943 -0.0247414)
(-0.00605686 0.00573332 -0.0351005)
(-0.00982854 0.00674509 0.00191212)
(-0.0151025 0.00808528 -0.00480549)
(-0.0126603 0.0100195 -0.0117299)
(-0.0117909 0.0114591 -0.0176725)
(-0.00495635 0.013628 -0.024794)
(-0.00936893 0.00757122 0.00536035)
(-0.013662 0.00902258 -0.000984031)
(-0.0112902 0.0110079 -0.00646124)
(-0.0103272 0.012372 -0.0118526)
(-0.00398314 0.0143876 -0.0171275)
(-0.00831172 0.00980642 0.00792817)
(-0.0116642 0.0113936 0.00283928)
(-0.00931081 0.013407 -0.00100046)
(-0.00841185 0.0148201 -0.00494354)
(-0.00304324 0.0166843 -0.00829251)
(-0.00771032 0.00751204 0.0124245)
(-0.0100615 0.00811341 0.00782327)
(-0.00786543 0.00918627 0.00523024)
(-0.00705101 0.00962417 0.00165597)
(-0.00223133 0.0106043 -0.000350927)
(-0.0163311 0.0032485 -0.000983797)
(-0.0287641 0.00503363 -0.011857)
(-0.0264382 0.00748114 -0.0261524)
(-0.0271916 0.00974262 -0.0384446)
(-0.0141141 0.0135985 -0.058137)
(-0.0144232 0.0103926 0.00190368)
(-0.024462 0.0128924 -0.00646652)
(-0.0216475 0.0173585 -0.0172107)
(-0.0209858 0.0204753 -0.0251409)
(-0.0102788 0.0266914 -0.038407)
(-0.0137262 0.0116457 0.00617882)
(-0.0217956 0.0142488 -0.00185275)
(-0.0188523 0.0184155 -0.00986793)
(-0.0178587 0.0212125 -0.0173197)
(-0.00799748 0.0260241 -0.0261852)
(-0.0117056 0.0146132 0.00945013)
(-0.01769 0.017286 0.00362099)
(-0.0146838 0.0213851 -0.00184206)
(-0.0133801 0.0240356 -0.00656045)
(-0.00554411 0.0283413 -0.0119224)
(-0.0109289 0.0106174 0.0148728)
(-0.0150237 0.011394 0.00935434)
(-0.0121048 0.0134078 0.00611839)
(-0.010905 0.0140872 0.00166813)
(-0.00377176 0.0159877 -0.00111272)
(-0.0221834 0.0047618 0.000234988)
(-0.0421123 0.00809389 -0.0167667)
(-0.0412616 0.0125955 -0.0431847)
(-0.0459069 0.0179384 -0.0668387)
(-0.025911 0.0255538 -0.113367)
(-0.018658 0.0139076 0.00481882)
(-0.0342231 0.0180871 -0.00763148)
(-0.0313372 0.0263004 -0.0259379)
(-0.0329806 0.0325772 -0.0400915)
(-0.0182355 0.0455662 -0.0670345)
(-0.0178187 0.0151142 0.0103932)
(-0.0297168 0.0191085 -0.000850997)
(-0.0267561 0.0263755 -0.0141566)
(-0.026641 0.0309551 -0.0261096)
(-0.013073 0.0408815 -0.043426)
(-0.0144772 0.0185057 0.0151347)
(-0.022962 0.0226063 0.00750824)
(-0.0194906 0.0294012 -0.000863338)
(-0.0184898 0.033814 -0.00781565)
(-0.00851739 0.0417628 -0.0170131)
(-0.0135206 0.0132254 0.0218016)
(-0.0188212 0.0141818 0.0149794)
(-0.0155481 0.0175642 0.0102216)
(-0.0142821 0.0183107 0.00447178)
(-0.00535146 0.0219581 -0.000154703)
(-0.0341803 0.00785974 0.000931355)
(-0.0721917 0.0141576 -0.0203024)
(-0.0765567 0.0247408 -0.0651639)
(-0.0973587 0.0364915 -0.109134)
(-0.0610571 0.0601635 -0.220486)
(-0.0275486 0.0205498 0.0076323)
(-0.0552227 0.0288041 -0.00505303)
(-0.0541266 0.0463764 -0.0337504)
(-0.0620523 0.0611751 -0.0512779)
(-0.0374888 0.0966175 -0.10891)
(-0.0255756 0.0219593 0.0142243)
(-0.0463549 0.0293902 0.00180774)
(-0.0441178 0.0434972 -0.0177406)
(-0.0471181 0.0535077 -0.0339304)
(-0.0255503 0.0760921 -0.0650625)
(-0.0197804 0.0260314 0.0200365)
(-0.0336929 0.0331211 0.0128539)
(-0.0300093 0.0457725 0.00187737)
(-0.0295259 0.0546207 -0.00511915)
(-0.0149155 0.0716206 -0.0202185)
(-0.018144 0.0176746 0.0271847)
(-0.0266136 0.0193112 0.0198908)
(-0.02261 0.0250952 0.0141948)
(-0.0212804 0.0270472 0.00730858)
(-0.00861109 0.03369 0.000918543)
(-0.0445952 0.0115066 0.0136602)
(-0.108146 0.023362 -0.0160047)
(-0.130155 0.0441391 -0.0824417)
(-0.200597 0.0763653 -0.16908)
(-0.13991 0.139952 -0.36527)
(-0.0322166 0.0271928 0.0211019)
(-0.0755832 0.0401717 0.00447103)
(-0.0775865 0.073641 -0.0343083)
(-0.107951 0.107591 -0.0682914)
(-0.076222 0.200359 -0.169893)
(-0.0309986 0.0275077 0.0286412)
(-0.0616798 0.0370203 0.0135632)
(-0.0625028 0.0620122 -0.00993242)
(-0.0738811 0.0771382 -0.0345248)
(-0.0447761 0.129635 -0.0826351)
(-0.0221834 0.0314687 0.0342775)
(-0.0411163 0.0406844 0.0265939)
(-0.0374684 0.0613343 0.0135807)
(-0.0405602 0.07503 0.00431261)
(-0.023759 0.107681 -0.0163167)
(-0.0212739 0.0208314 0.0412902)
(-0.031814 0.0217405 0.0340902)
(-0.0281194 0.0306443 0.0284626)
(-0.027551 0.0316097 0.0206586)
(-0.0123641 0.0442743 0.0132872)
(-0.0656545 0.01535 0.024501)
(-0.168201 0.0347144 -0.00235891)
(-0.229696 0.0734588 -0.107762)
(-0.4502 0.141432 -0.296254)
(-0.205059 0.252564 -0.867233)
(-0.0453591 0.0355213 0.0343428)
(-0.110624 0.0583333 0.0247934)
(-0.127011 0.118683 -0.0253295)
(-0.197403 0.195509 -0.0551277)
(-0.144194 0.449068 -0.29602)
(-0.041652 0.0351335 0.0401728)
(-0.0849346 0.0515543 0.0297596)
(-0.0922852 0.0914651 0.00177139)
(-0.119625 0.126229 -0.0255022)
(-0.0748358 0.229738 -0.10741)
(-0.0280818 0.0386866 0.0450049)
(-0.0543904 0.0536486 0.0419635)
(-0.0523315 0.0841727 0.0298886)
(-0.0593852 0.109794 0.0248056)
(-0.0357691 0.167452 -0.00216004)
(-0.0259003 0.0252405 0.0494109)
(-0.039448 0.0274222 0.0448465)
(-0.0360403 0.040972 0.0402201)
(-0.0364472 0.0445681 0.0339693)
(-0.0164508 0.0650964 0.0247051)
(-0.0736022 0.0214197 0.07302)
(-0.23957 0.0508735 0.0605036)
(-0.364328 0.128982 0.0138369)
(-0.776054 0.188166 -0.196001)
(-1.68638 0.655151 -1.70276)
(-0.0429792 0.0428323 0.0719474)
(-0.135074 0.0720307 0.0724306)
(-0.156124 0.182507 0.044567)
(-0.362425 0.361106 -0.0170179)
(-0.412282 0.846524 -0.441243)
(-0.0424251 0.0381748 0.0750796)
(-0.100004 0.0541969 0.0709095)
(-0.117788 0.117252 0.065178)
(-0.182401 0.155698 0.0440135)
(-0.130199 0.364648 0.0145742)
(-0.0257968 0.0407004 0.0729672)
(-0.0561925 0.0557307 0.0747638)
(-0.0546332 0.0997074 0.0710472)
(-0.0723492 0.134322 0.0725492)
(-0.0509799 0.238961 0.0606579)
(-0.0263642 0.0257611 0.0737038)
(-0.0409981 0.0251936 0.072827)
(-0.0390001 0.0419893 0.0750133)
(-0.0430339 0.0419828 0.0715655)
(-0.0226545 0.0732957 0.073028)
(-0.0805293 0.0143937 0.124755)
(-0.218368 0.0472455 0.153519)
(-0.337996 0.106045 0.295262)
(-1.11686 0.215653 0.302181)
(-2.3251 0.533778 -4.46202)
(-0.0460413 0.0375378 0.107772)
(-0.136695 0.0681261 0.128871)
(-0.15452 0.163258 0.202505)
(-0.501751 0.360031 0.329159)
(-0.936695 1.26373 0.479683)
(-0.0468115 0.0361735 0.0973531)
(-0.0946893 0.0538545 0.115491)
(-0.118208 0.116963 0.157718)
(-0.163382 0.153479 0.202011)
(-0.108523 0.337138 0.294501)
(-0.0267562 0.0373042 0.0856517)
(-0.0562572 0.0555136 0.0961886)
(-0.0545132 0.0938614 0.115655)
(-0.0691576 0.136014 0.129053)
(-0.0475721 0.216851 0.153769)
(-0.0271752 0.0263727 0.0781279)
(-0.0381322 0.0259538 0.0856085)
(-0.0373236 0.0459225 0.0974589)
(-0.038391 0.0447427 0.10762)
(-0.0158843 0.0798101 0.124971)
(-0.0462672 0.00449991 0.171629)
(-0.060092 0.0269984 0.202044)
(-0.138751 0.034097 0.398636)
(-0.355521 0.0135028 0.416452)
(0.128283 -0.113995 -7.79641)
(-0.0224965 0.0153484 0.146968)
(-0.0410939 0.0343661 0.17466)
(-0.0289397 0.0369226 0.273005)
(-0.0173298 0.0175666 0.369704)
(0.103776 -0.0895136 0.547859)
(-0.0247284 0.0160097 0.133018)
(-0.0400544 0.0218509 0.15742)
(-0.0319908 0.0310521 0.218595)
(-0.037554 0.0271288 0.273228)
(-0.0354575 0.138406 0.398969)
(-0.0153127 0.021446 0.11579)
(-0.0263293 0.0259882 0.131166)
(-0.0221003 0.0398602 0.157409)
(-0.0345988 0.0407235 0.174592)
(-0.0274905 0.0604598 0.202369)
(-0.0189185 0.018268 0.103983)
(-0.0216383 0.0146625 0.115938)
(-0.0169452 0.0242325 0.133224)
(-0.0154372 0.0211607 0.147472)
(-0.00569317 0.0459342 0.172193)
(-0.0494687 -0.0101502 0.120608)
(0.0121846 0.0201621 0.164025)
(-0.102791 -0.0278655 0.192447)
(0.307219 -0.0538683 -0.315567)
(0.447566 -0.269519 -5.3758)
(-0.0175486 -0.00102569 0.109799)
(-0.0133513 0.024311 0.137778)
(-0.00598637 -0.0224892 0.168309)
(0.0289964 -0.0286176 0.14924)
(0.16863 -0.333507 -0.421287)
(-0.021799 0.00501976 0.101668)
(-0.00929777 0.0104394 0.123384)
(-0.00502283 0.00402414 0.15214)
(0.0226291 0.00589123 0.168398)
(0.0268741 0.102691 0.193175)
(-0.010814 0.0083337 0.0902111)
(-0.0147231 0.0141159 0.105795)
(-0.011167 0.00867536 0.123326)
(-0.0250236 0.0129833 0.137706)
(-0.0206009 -0.0134147 0.163668)
(-0.0148002 0.0141479 0.0789625)
(-0.00895485 0.010161 0.0904813)
(-0.00581381 0.021135 0.101894)
(0.000535116 0.0168326 0.110509)
(0.00932225 0.0490289 0.121069)
(-0.000490216 -0.00605846 0.140939)
(0.0155507 0.000750849 0.204625)
(0.00755151 -0.00339157 0.213787)
(-0.175857 0.0373024 -0.268234)
(-1.45251 0.377025 -4.44372)
(0.00727221 -0.00340217 0.13552)
(0.0142347 -0.00528335 0.173294)
(0.027003 -0.00962185 0.206166)
(-0.114804 -0.0348965 0.237798)
(-0.277945 0.225743 -0.504945)
(-0.00145558 -0.00346624 0.124862)
(0.0100335 -0.0100301 0.153592)
(0.0100296 -0.0109243 0.175486)
(0.0097388 -0.0271659 0.207043)
(0.00176625 -0.00601642 0.214786)
(0.00125764 -0.001192 0.116463)
(0.00669805 -0.00682771 0.135449)
(0.00970671 -0.00999523 0.153596)
(0.00472982 -0.0139419 0.173778)
(-0.00101328 -0.015419 0.20536)
(-0.00666511 0.00628628 0.103554)
(0.00122703 -0.00163702 0.116704)
(0.00296708 0.00125007 0.125121)
(0.00355511 -0.00781674 0.136277)
(0.00540757 0.00102777 0.141575)
(0.0187796 -0.0154355 0.100187)
(0.095503 -0.0122694 0.152861)
(0.130378 -0.0539396 0.26069)
(0.036028 -0.0029725 0.357297)
(0.0685102 -0.0575553 -7.7587)
(0.0229547 -0.0171954 0.0864689)
(0.0566677 -0.027115 0.127834)
(0.0887829 -0.072963 0.188877)
(-0.00815994 -0.088214 0.373126)
(0.0430904 -0.0845816 0.561675)
(0.00912996 -0.0141496 0.075473)
(0.0412736 -0.0274337 0.102945)
(0.0483659 -0.0485132 0.139879)
(0.0740471 -0.089283 0.190276)
(0.0562703 -0.131414 0.25976)
(0.00958229 -0.013029 0.0651273)
(0.0223458 -0.0227063 0.0840924)
(0.0271893 -0.0416349 0.102756)
(0.0271224 -0.0571534 0.128092)
(0.0123609 -0.0970853 0.153019)
(-0.000620879 0.000208724 0.0540181)
(0.012664 -0.00999471 0.0655171)
(0.0138721 -0.00955137 0.0756416)
(0.0170791 -0.0234063 0.0874992)
(0.0155281 -0.019338 0.100232)
(0.0569953 -0.0193105 0.115792)
(0.183 -0.0241139 0.140093)
(0.277827 -0.0843997 0.170818)
(0.6741 -0.285508 -0.198677)
(1.44668 -0.646493 -4.8674)
(0.0521902 -0.0280166 0.112248)
(0.115999 -0.05505 0.130448)
(0.190957 -0.136698 0.159147)
(0.303585 -0.306473 0.154117)
(0.281762 -0.673504 -0.198011)
(0.0284038 -0.0247141 0.103505)
(0.0744092 -0.0537956 0.121087)
(0.0968931 -0.0965809 0.135326)
(0.136059 -0.190979 0.159743)
(0.0844724 -0.275614 0.170372)
(0.0218957 -0.0225815 0.0994006)
(0.0443951 -0.0443204 0.110854)
(0.0537359 -0.0742091 0.120935)