/*--------------------------------*- C++ -*----------------------------------*\
| =========                 |                                                 |
| \\      /  F ield         | OpenFOAM: The Open Source CFD Toolbox           |
|  \\    /   O peration     | Version:  5.x                                   |
|   \\  /    A nd           | Web:      www.OpenFOAM.org                      |
|    \\/     M anipulation  |                                                 |
\*---------------------------------------------------------------------------*/
FoamFile
{
    version     2.0;
    format      ascii;
    class       volScalarField;
    location    "0.039";
    object      interFace;
}
// * * * * * * * * * * * * * * * * * * * * * * * * * * * * * * * * * * * * * //

dimensions      [0 0 0 0 0 0 0];

internalField   nonuniform List<scalar> 
1553
(
0
0
0
0
0
0
0
0
0
0
0
0
0
0
0
0
0
0
0
0
0
0
0
0
0
0
0
0
0
0
0
0
0
0
0
0
0
0
0
0
0
0
0
0
0
0
0
0
0
0
0
0
0
0
0
0
0
0
0
0
0
0
0
0
0
0
0
0
0
0
0
0
0
0
0
0
0
0
0
0
0
0
0
0
0
0
0
0
0
0
0
0
0
0
0
0
0
0
0
0
0
0
0
0
0
0
0
0
0
0
0
0
0
0
0
0
0
0
0
0
0
0
0
0
0
0
0
0
0
0
0
0
0
0
0
0
0
0
0
0
0
0
0
0
0
0
0
0
0
0
0
0
0
0
0
0
0
0
0
0
0
0
0
0
0
0
0
0
0
0
0
0
0
0
0
0
0
0
0
0
0
0
0
0
0
0
0
0
0
0
0
0
0
0
0
0
0
0
0
0
0
0
0
0
0
0
0
0
0
0
0
0
0
0
0
0
0
0
0
0
0
0
0
0
0
0
0
0
0
0
0
0
0
0
0
0
0
0
0
0
0
0
0
0
0
0
0
0
0
0
0
0
0
0
0
0
0
0
0
0
0
0
0
0
0
0
0
0
0
0
0
0
0
0
0
0
0
0
0
0
0
0
0
0
0
0
0
0
0
0
0
0
0
0
0
0
0
0
0
0
0
0
0
0
0
0
0
0
0
0
0
0
0
0
0
0
0
0
0
0
0
0
0
0
0
0
0
0
0
0
0
0
0
0
0
0
0
0
0
0
0
0
0
0
0
0
0
0
0
0
0
0
0
0
0
0
0
0
0
0
0
0
0
0
0
0
0
0
0
0
0
0
0
0
0
0
0
0
0
0
0
0
0
0
0
0
0
0
0
0
0
0
0
0
0
0
0
0
0
0
0
0
0
0
0
0
0
0
0
0
0
0
0
0
0
0
0
0
0
0
0
0
0
0
0
0
0
0
0
0
0
0
0
0
0
0
0
0
0
0
0
0
0
0
0
0
0
0
0
0
0
0
0
0
0
0
0
0
0
0
0
0
0
0
0
0
0
0
0
0
0
0
0
0
0
0
0
0
0
0
0
0
0
0
0
0
0
0
0
0
0
0
0
0
0
0
0
0
0
0
0
0
0
0
0
0
0
0
0
0
0
0
0
0
0
0
0
0
0
0
0
0
0
0
0
0
0
0
0
0
0
0
0
0
0
0
0
0
0
0
0
0
0
0
0
0
0
0
0
0
0
0
0
0
0
0
0
0
0
0
0
0
0
0
0
0
0
0
0
0
0
0
0
0
0
0
0
0
0
0
0
0
0
0
0
0
0
0
0
0
0
0
0
0
0
0
0
0
0
0
0
0
0
0
0
0
0
0
0
0
0
0
0
0
0
0
0
0
0
0
0
0
0
0
0
0
0
0
0
0
0
0
0
0
0
0
0
0
0
0
0
0
0
0
0
0
0
0
0
0
0
0
0
0
0
0
0
0
0
0
0
0
0
0
0
0
0
0
0
0
0
0
0
0
0
0
0
0
0
0
0
0
0
0
0
0
0
0
0
0
0
0
0
0
0
0
0
0
0
0
0
0
0
0
0
0
0
0
0
0
0
0
0
0
0
0
0
0
0
0
0
0
0
0
0
0
0
0
0
0.674437
0
0
0
0
0
0
0
0
0
0
0
0
0
0
0
0
0
0
0
0
0
0
0
0
0.280958
0
0
0
0
0.729192
0
0
0
0
0
0
0
0
0
0
0
0
0
0
0
0
0
0
0
0.604608
0
0
0
0
0
0
0
0
0
0
0
0
0
0
0
0
0
0
0
0
0
0
0
0
0.836546
0
0
0
0
0
0
0
0
0
0
0
0
0
0
0
0
0
0
0
0
0
0
0
0
0.347004
0
0
0
0
0.795239
0
0
0
0
0
0
0
0
0
0
0
0
0
0
0
0
0
0
0
0.395814
0
0
0
0
0.934196
0
0
0
0
0
0
0
0
0
0
0
0
0
0
0
0
0
0
0
0
0
0
0
0
0
0
0
0
0
0
0
0
0
0
0
0
0
0
0
0
0
0
0
0
0
0
0
0
0
0
0
0
0
0
0
0
0
0
0
0
0
0
0
0
0
0
0
0
0
0
0
0
0
0
0
0
0
0
0
0
0
0
0
0
0
0
0
0
0
0
0
0
0
0
0
0
0
0
0
0
0
0
0
0
0
0
0
0
0
0
0
0
0
0
0
0
0
0
0
0
0
0
0
0
0
0
0
0
0
0
0
0
0
0
0
0
0
0
0
0
0.460233
0
0.729178
0
0.63574
0
0.881029
0.0120553
0.549903
0.281
0.456465
0.187562
0.72541
0.456507
0.46029
0
0
0.881058
0.635796
0
0
0.998019
0
0
0
0
0
0
0.335705
0.873553
0.60465
0
0.935769
0
0
0.998076
0
0
0
0
0
0
0.657278
0
0.836575
0.446852
0.177951
0.715798
0.446896
0.526279
0
0.795224
0
0.495656
0
0.764601
0.0781022
0.615949
0.347048
0.316381
0.0474792
0.585326
0.316425
0.526337
0
0
0.764616
0.495714
0
0
0.575089
0
0.934167
0
0
0
0
0.126913
0.664759
0.395858
0.903037
0.634136
0.913766
0.903081
0.575148
0
0
0
0
0
0
0
0
0
0
0
0
0
0.707945
0.470153
0.649436
0.797572
0.514981
0.8424
0.663117
0.430442
0.26136
0.440642
0.520068
0.306188
0.564896
0.385614
0.263515
0.353142
0.32201
0.501292
0.39797
0.366838
0.218687
0.173881
0.0842392
0.232376
0.23239
0.277203
0.129053
0.129067
0.353163
0.622087
0.590941
0.590955
0.487618
0.487632
0.456486
0.263529
0.353184
0.322038
0.501321
0.397998
0.366852
0.218715
0.618311
0.380519
0.380533
0.528669
0.425347
0.573483
0.573497
0.797593
0.739084
0.739098
0
0.604629
0.932048
0.932062
0.707959
0.470181
0.649464
0.797614
0.514995
0.842428
0.663145
0.192141
0.281768
0.181926
0.361209
0.326596
0.226754
0.147313
0.102508
0.0128663
0.0922924
0.0923071
0.13712
0.0576796
0.0576943
0.192156
0.281812
0.181956
0.361238
0.326625
0.226769
0.147343
0.968266
0.799184
0.619917
0.699343
0.844012
0.744171
0.923438
0.340808
0.171726
0.17174
0.251166
0.216554
0.29598
0.295994
0.52009
0.53029
0.530305
0.789013
0.395836
0.654544
0.654559
0.430456
0.261389
0.440671
0.520112
0.306202
0.564925
0.385643
0.599516
0.689142
0.768583
0.947865
0.73397
0.813411
0.554688
0.509882
0.420241
0.678949
0.678964
0.723777
0.465054
0.465069
0.599531
0.689186
0.768612
0.947895
0.734
0.813426
0.554717
0.968325
0.619961
0.799258
0.699401
0.844071
0.744215
0.923512
0.405534
0.943382
0.674479
0.312097
0.0431941
0.581042
0.312139
0.115378
0.056869
0.0568831
0.025737
0.101697
0.0705506
0.0705648
0.205013
0.146503
0.325786
0.29464
0.191331
0.339467
0.160185
0.801341
0.532417
0.859836
0.680568
0.577245
0.904664
0.756513
0.205027
0.146531
0.325814
0.294682
0.191345
0.339496
0.160213
0.801397
0.532474
0.68061
0.859906
0.577287
0.90472
0.756584
0.28179
0.550713
0.450857
0.450872
0.416244
0.416259
0.316403
0.294661
0.415434
0.415448
0.563585
0.280979
0.429116
0.42913
0.112715
0.122916
0.12293
0.023074
0.167743
0.0678873
0.067902
0
0
0
0
0
0
0
0.202349
0.212549
0.391832
0.291975
0.257377
0.336803
0.157521
0.729966
0.461043
0.719751
0.540483
0.505871
0.764579
0.685138
0.202364
0.212579
0.391861
0.292019
0.257392
0.336833
0.15755
0.730025
0.461101
0.540527
0.719824
0.505915
0.764638
0.685211
0.0880078
0.0880219
0.132836
0.208795
0.119154
0.163967
0.163981
0.888566
0
0
0
0.491372
0
0.826303
0.888622
0
0
0.826331
0.491429
0
0
0.742839
0.684329
0.505061
0.473915
0.729157
0.518743
0.698011
0.742895
0.505103
0.6844
0.473971
0.729213
0.518785
0.698081
0.177642
0.356925
0.22247
0.298429
0.388056
0.432884
0.253601
0.17767
0.356953
0.222484
0.298443
0.388099
0.432912
0.25363
0.291998
0.48148
0.481495
0.560921
0.347026
0.426452
0.426467
0.446573
0.446587
0.312118
0.388078
0.657001
0.522532
0.522546
0
0
0
0
0
0
0
0.819615
0.729988
0.630132
0.988696
0.595519
0.954084
0.854227
0.819659
0.730003
0.630161
0.988726
0.595548
0.954113
0.854271
0.412262
0.32262
0.222764
0.222779
0.267592
0.367434
0.367448
0.832529
0.594738
0.953302
0.742874
0.818848
0.608419
0.966984
0.832487
0.594709
0.953274
0.74286
0.818805
0.608391
0.966956
0
0
0
0
0.816116
0
0.995413
0
0
0
0.995442
0.816175
0
0
0.501895
0.591522
0.312398
0.49168
0.63635
0.357226
0.457067
0.50191
0.591566
0.312427
0.49171
0.636379
0.357241
0.457097
0.740174
0.750374
0.571107
0.47125
0.795202
0.516078
0.695346
0.740232
0.571151
0.750447
0.471309
0.795261
0.516122
0.695419
0
0
0
0.950857
0.771589
0
0.950885
0.329575
0.450348
0.450362
0.239933
0.495175
0.284747
0.284761
0.419209
0.539982
0.719264
0.508836
0.58481
0.553664
0.374381
0.419223
0.54001
0.719293
0.508878
0.584824
0.553692
0.37441
0.715468
0.5362
0.760296
0.567331
0.612159
0.836255
0.791427
0.536242
0.715539
0.760352
0.567388
0.612202
0.836312
0.791498
0.591544
0.860467
0.581329
0.581344
0.725998
0.726013
0.446875
0.508858
0.808913
0.808927
0.777781
0.674458
0.643312
0.643326
0.829866
0.660784
0
0.740211
0.884894
0.605756
0.964321
0.829822
0.660755
0
0.740196
0.88485
0.605727
0.964291
)
;

boundaryField
{
    inlet
    {
        type            calculated;
        value           uniform 0;
    }
    wall
    {
        type            calculated;
        value           uniform 0;
    }
    outlet
    {
        type            calculated;
        value           uniform 0;
    }
    procBoundary2to0
    {
        type            processor;
        value           uniform 0;
    }
    procBoundary2to3
    {
        type            processor;
        value           uniform 0;
    }
}


// ************************************************************************* //
