/*--------------------------------*- C++ -*----------------------------------*\
| =========                 |                                                 |
| \\      /  F ield         | OpenFOAM: The Open Source CFD Toolbox           |
|  \\    /   O peration     | Version:  5.x                                   |
|   \\  /    A nd           | Web:      www.OpenFOAM.org                      |
|    \\/     M anipulation  |                                                 |
\*---------------------------------------------------------------------------*/
FoamFile
{
    version     2.0;
    format      ascii;
    class       surfaceScalarField;
    location    "0.039";
    object      phi;
}
// * * * * * * * * * * * * * * * * * * * * * * * * * * * * * * * * * * * * * //

dimensions      [0 3 -1 0 0 0 0];

internalField   nonuniform List<scalar> 
4297
(
-5.57843e-08
1.45212e-08
-9.26648e-09
-4.34017e-08
1.43657e-08
-2.78551e-08
-3.58805e-08
1.41431e-08
-2.32174e-08
-1.80239e-08
1.41721e-08
-3.38502e-08
1.40378e-08
-3.20983e-08
-5.59913e-08
3.16496e-08
-1.14633e-08
-4.35992e-08
3.18985e-08
-2.99138e-08
-3.60255e-08
3.18439e-08
-2.52635e-08
-1.81361e-08
3.20781e-08
-3.5783e-08
3.20439e-08
-3.40409e-08
-5.56775e-08
3.93859e-08
-2.09231e-09
-4.33261e-08
3.98036e-08
-2.02461e-08
-3.57745e-08
3.98065e-08
-1.55041e-08
-1.79564e-08
4.01187e-08
-2.58473e-08
4.01187e-08
-2.40384e-08
-5.56731e-08
5.19389e-08
-6.9055e-09
-4.33382e-08
5.24731e-08
-2.4995e-08
-3.57663e-08
5.25213e-08
-2.02775e-08
-1.79714e-08
5.29115e-08
-3.05776e-08
5.29456e-08
-2.87868e-08
-5.5118e-08
1.02026e-08
-4.28481e-08
-7.60503e-09
-3.53595e-08
-2.82911e-09
-1.76857e-08
-1.29706e-08
-1.11401e-08
-3.05408e-08
7.79686e-09
-1.78646e-08
-3.16144e-08
8.75319e-09
-4.08676e-08
-2.55935e-08
9.19838e-09
-4.30285e-08
-1.56415e-08
9.82461e-09
-5.73257e-08
1.01831e-08
-5.85429e-08
-3.01867e-08
1.92013e-08
-1.69572e-08
-3.12218e-08
1.98131e-08
-3.9927e-08
-2.52438e-08
2.00652e-08
-4.20964e-08
-1.53213e-08
2.05107e-08
-5.63788e-08
2.07385e-08
-5.76069e-08
-2.96734e-08
2.62323e-08
-3.3026e-09
-3.07185e-08
2.67172e-08
-2.60941e-08
-2.48097e-08
2.68978e-08
-2.82342e-08
-1.49878e-08
2.72559e-08
-4.24019e-08
2.7419e-08
-4.36161e-08
-2.95111e-08
2.65289e-08
-1.42731e-09
-3.05336e-08
2.69083e-08
-2.41533e-08
-2.46386e-08
2.70249e-08
-2.6289e-08
-1.48395e-08
2.73087e-08
-4.0418e-08
2.74105e-08
-4.16342e-08
-2.91533e-08
2.06329e-08
-3.01909e-08
-1.77992e-09
-2.43374e-08
-3.85172e-09
-1.46327e-08
-1.77818e-08
-1.89656e-08
-6.24629e-08
1.87158e-08
-3.10942e-08
-5.26614e-08
1.866e-08
-7.07214e-08
-4.25279e-08
1.85673e-08
-7.33259e-08
-2.23921e-08
1.85703e-08
-9.78712e-08
1.84811e-08
-9.9451e-08
-6.25802e-08
3.84275e-08
-3.02301e-08
-5.2782e-08
3.8708e-08
-6.97677e-08
-4.26326e-08
3.87053e-08
-7.23786e-08
-2.24887e-08
3.89165e-08
-9.68643e-08
3.88895e-08
-9.84516e-08
-6.22486e-08
4.86987e-08
-7.16532e-09
-5.24938e-08
4.91641e-08
-4.62989e-08
-4.23941e-08
4.9212e-08
-4.88346e-08
-2.23492e-08
4.95392e-08
-7.30634e-08
4.95511e-08
-7.46066e-08
-6.22027e-08
5.88525e-08
-5.17433e-09
-5.2462e-08
5.94424e-08
-4.4166e-08
-4.23734e-08
5.95268e-08
-4.66863e-08
-2.23551e-08
5.99382e-08
-7.0829e-08
5.99782e-08
-7.23667e-08
-6.15962e-08
3.24757e-08
-5.19219e-08
-5.87794e-09
-4.19316e-08
-8.26205e-09
-2.20834e-08
-3.20114e-08
-3.34724e-08
-6.68223e-08
1.75576e-08
-4.71976e-08
-5.8969e-08
1.8606e-08
-1.0218e-07
-4.75233e-08
1.88908e-08
-1.08336e-07
-2.62003e-08
1.96374e-08
-1.42713e-07
1.98935e-08
-1.46155e-07
-6.64937e-08
3.95266e-08
-4.46946e-08
-5.86346e-08
4.05467e-08
-9.9567e-08
-4.72142e-08
4.08102e-08
-1.05718e-07
-2.59433e-08
4.15356e-08
-1.40035e-07
4.17537e-08
-1.43483e-07
-6.56236e-08
5.1821e-08
-1.20886e-08
-5.7828e-08
5.28229e-08
-6.63685e-08
-4.65064e-08
5.30569e-08
-7.24008e-08
-2.54462e-08
5.37496e-08
-1.06336e-07
5.39354e-08
-1.09725e-07
-6.537e-08
6.07752e-08
-6.81066e-09
-5.7582e-08
6.17453e-08
-6.08731e-08
-4.62824e-08
6.19578e-08
-6.68841e-08
-2.52862e-08
6.26212e-08
-1.00695e-07
6.27784e-08
-1.04075e-07
-6.44171e-08
4.56494e-08
-5.67144e-08
-7.43532e-09
-4.55501e-08
-1.32294e-08
-2.48281e-08
-4.64204e-08
-4.96897e-08
-1.02636e-07
3.1628e-08
-7.02173e-08
-8.78793e-08
3.19581e-08
-1.51199e-07
-7.05237e-08
3.19991e-08
-1.601e-07
-3.72682e-08
3.21999e-08
-2.10721e-07
3.21858e-08
-2.15716e-07
-1.02588e-07
6.42461e-08
-6.66406e-08
-8.78472e-08
6.50785e-08
-1.47431e-07
-7.0505e-08
6.52617e-08
-1.56325e-07
-3.72892e-08
6.57781e-08
-2.06834e-07
6.58454e-08
-2.11836e-07
-1.01821e-07
8.17425e-08
-1.90122e-08
-8.71906e-08
8.28485e-08
-9.87688e-08
-6.99677e-08
8.30797e-08
-1.07442e-07
-3.70065e-08
8.37579e-08
-1.57279e-07
8.38651e-08
-1.62167e-07
-1.01577e-07
9.69522e-08
-1.14889e-08
-8.69729e-08
9.82446e-08
-9.08717e-08
-6.97791e-08
9.85145e-08
-9.95115e-08
-3.69259e-08
9.933e-08
-1.4912e-07
9.94679e-08
-1.53993e-07
-1.00272e-07
6.5281e-08
-8.58194e-08
-1.24302e-08
-6.88505e-08
-2.06958e-08
-3.64172e-08
-6.92452e-08
-7.39162e-08
-1.34453e-07
3.92148e-08
-1.01164e-07
-1.15935e-07
4.05167e-08
-2.15285e-07
-9.29698e-08
4.07972e-08
-2.28748e-07
-4.95573e-08
4.17525e-08
-3.00237e-07
4.19794e-08
-3.07777e-07
-1.34048e-07
8.21416e-08
-9.56394e-08
-1.15562e-07
8.40153e-08
-2.09416e-07
-9.26452e-08
8.44175e-08
-2.22864e-07
-4.93217e-08
8.57371e-08
-2.94145e-07
8.60063e-08
-3.01682e-07
-1.32361e-07
1.0553e-07
-2.87574e-08
-1.14019e-07
1.07673e-07
-1.40768e-07
-9.13381e-08
1.08128e-07
-1.53832e-07
-4.85136e-08
1.09605e-07
-2.23972e-07
1.09893e-07
-2.31297e-07
-1.31823e-07
1.24925e-07
-1.73442e-08
-1.13551e-07
1.27227e-07
-1.28696e-07
-9.09486e-08
1.27736e-07
-1.41721e-07
-4.82822e-08
1.29293e-07
-2.11475e-07
1.29598e-07
-2.1878e-07
-1.29539e-07
9.0093e-08
-1.11495e-07
-1.84291e-08
-8.92479e-08
-3.07946e-08
-4.73132e-08
-9.87581e-08
-1.05712e-07
-1.94112e-07
6.042e-08
-1.45287e-07
-1.66742e-07
6.16085e-08
-3.07976e-07
-1.33489e-07
6.19009e-08
-3.27676e-07
-7.02894e-08
6.2681e-08
-4.29965e-07
6.28094e-08
-4.41037e-07
-1.93746e-07
1.21756e-07
-1.37133e-07
-1.66407e-07
1.24107e-07
-2.99252e-07
-1.33202e-07
1.24747e-07
-3.18914e-07
-7.01625e-08
1.26317e-07
-4.2082e-07
1.26631e-07
-4.31881e-07
-1.9164e-07
1.54936e-07
-4.2461e-08
-1.64533e-07
1.57905e-07
-2.0167e-07
-1.3161e-07
1.58605e-07
-2.20612e-07
-6.93336e-08
1.60488e-07
-3.2042e-07
1.60864e-07
-3.3109e-07
-1.90901e-07
1.82836e-07
-2.59072e-08
-1.63842e-07
1.86197e-07
-1.84043e-07
-1.30974e-07
1.8695e-07
-2.02932e-07
-6.90239e-08
1.89081e-07
-3.02016e-07
1.89496e-07
-3.12641e-07
-1.87528e-07
1.26156e-07
-1.60847e-07
-2.7381e-08
-1.28574e-07
-4.5196e-08
-6.77473e-08
-1.41342e-07
-1.51378e-07
-2.67825e-07
8.1656e-08
-2.05808e-07
-2.2991e-07
8.42319e-08
-4.35941e-07
-1.83556e-07
8.4674e-08
-4.64433e-07
-9.65836e-08
8.64041e-08
-6.0875e-07
8.66971e-08
-6.24782e-07
-2.67024e-07
1.65617e-07
-1.93857e-07
-2.29261e-07
1.70172e-07
-4.22951e-07
-1.83033e-07
1.71019e-07
-4.51483e-07
-9.62864e-08
1.73987e-07
-5.95145e-07
1.74487e-07
-6.11199e-07
-2.62987e-07
2.11314e-07
-6.16173e-08
-2.25635e-07
2.16787e-07
-2.85633e-07
-1.80072e-07
2.1789e-07
-3.13044e-07
-9.463e-08
2.21485e-07
-4.53357e-07
2.22094e-07
-4.68749e-07
-2.61573e-07
2.49445e-07
-3.7703e-08
-2.24523e-07
2.55512e-07
-2.59814e-07
-1.79229e-07
2.5691e-07
-2.87244e-07
-9.4208e-08
2.60887e-07
-4.26436e-07
2.61638e-07
-4.41863e-07
-2.55505e-07
1.74649e-07
-2.1909e-07
-3.95442e-08
-1.74759e-07
-6.50697e-08
-9.17854e-08
-1.99164e-07
-2.13538e-07
-3.80411e-07
1.18761e-07
-2.92112e-07
-3.27194e-07
1.22e-07
-6.16958e-07
-2.61218e-07
1.22735e-07
-6.59001e-07
-1.36911e-07
1.25152e-07
-8.64145e-07
1.25406e-07
-8.87337e-07
-3.7926e-07
2.37287e-07
-2.74413e-07
-3.26177e-07
2.43681e-07
-5.9771e-07
-2.60528e-07
2.45176e-07
-6.39567e-07
-1.36654e-07
2.49986e-07
-8.43846e-07
2.50675e-07
-8.67299e-07
-3.73588e-07
3.02101e-07
-8.94823e-08
-3.20734e-07
3.09975e-07
-4.04776e-07
-2.55692e-07
3.11717e-07
-4.44624e-07
-1.34191e-07
3.17148e-07
-6.42018e-07
3.18188e-07
-6.64627e-07
-3.71643e-07
3.55673e-07
-5.45925e-08
-3.18996e-07
3.64575e-07
-3.67055e-07
-2.54187e-07
3.6653e-07
-4.06862e-07
-1.3343e-07
3.7219e-07
-6.02232e-07
3.73373e-07
-6.24628e-07
-3.6274e-07
2.42691e-07
-3.11106e-07
-5.70118e-08
-2.47741e-07
-9.40004e-08
-1.30124e-07
-2.81342e-07
-3.02176e-07
-5.35221e-07
1.65136e-07
-4.1089e-07
-4.56796e-07
1.71389e-07
-8.74484e-07
-3.60354e-07
1.7142e-07
-9.34523e-07
-1.88134e-07
1.74237e-07
-1.21809e-06
1.74069e-07
-1.25004e-06
-5.33221e-07
3.29716e-07
-3.84858e-07
-4.56042e-07
3.41653e-07
-8.45148e-07
-3.60382e-07
3.4235e-07
-9.06151e-07
-1.88289e-07
3.47485e-07
-1.18918e-06
3.47424e-07
-1.22201e-06
-5.22868e-07
4.20337e-07
-1.27436e-07
-4.47963e-07
4.34969e-07
-5.72992e-07
-3.55194e-07
4.36934e-07
-6.31975e-07
-1.85478e-07
4.44934e-07
-9.09181e-07
4.4562e-07
-9.41505e-07
-5.19302e-07
4.94129e-07
-7.58159e-08
-4.45989e-07
5.10719e-07
-5.16113e-07
-3.54512e-07
5.14276e-07
-5.75677e-07
-1.85481e-07
5.24587e-07
-8.50913e-07
5.26556e-07
-8.84263e-07
-5.02703e-07
3.39367e-07
-4.31378e-07
-7.8903e-08
-3.42617e-07
-1.33229e-07
-1.79277e-07
-3.93703e-07
-4.23727e-07
-7.63286e-07
2.40777e-07
-5.7546e-07
-6.67154e-07
2.49138e-07
-1.22907e-06
-5.42655e-07
2.53499e-07
-1.32203e-06
-2.87066e-07
2.64236e-07
-1.74767e-06
2.68024e-07
-1.80544e-06
-7.58755e-07
4.74549e-07
-5.35323e-07
-6.61719e-07
4.915e-07
-1.18454e-06
-5.36017e-07
4.98253e-07
-1.2766e-06
-2.83175e-07
5.18872e-07
-1.69665e-06
5.25487e-07
-1.75296e-06
-7.4246e-07
6.02008e-07
-1.75246e-07
-6.44028e-07
6.234e-07
-8.03321e-07
-5.15262e-07
6.29629e-07
-8.92116e-07
-2.72228e-07
6.47295e-07
-1.28064e-06
6.52804e-07
-1.33143e-06
-7.36198e-07
7.00876e-07
-9.67916e-08
-6.37698e-07
7.251e-07
-7.16311e-07
-5.08307e-07
7.31322e-07
-8.06759e-07
-2.67566e-07
7.47561e-07
-1.19192e-06
7.5211e-07
-1.24159e-06
-7.12004e-07
4.83075e-07
-6.16358e-07
-1.00818e-07
-4.91324e-07
-1.82794e-07
-2.5913e-07
-5.46827e-07
-5.92224e-07
-1.12954e-06
3.64157e-07
-7.89851e-07
-1.03202e-06
3.8571e-07
-1.72437e-06
-8.59939e-07
4.00041e-07
-1.90647e-06
-4.63163e-07
4.28878e-07
-2.58597e-06
4.38756e-07
-2.70801e-06
-1.11498e-06
7.04391e-07
-7.22921e-07
-1.01015e-06
7.45159e-07
-1.64882e-06
-8.42161e-07
7.68408e-07
-1.81296e-06
-4.53184e-07
8.20605e-07
-2.47734e-06
8.38445e-07
-2.59367e-06
-1.07483e-06
8.74128e-07
-2.07034e-07
-9.57061e-07
9.19671e-07
-1.0956e-06
-7.89723e-07
9.39386e-07
-1.23043e-06
-4.23834e-07
9.92565e-07
-1.81848e-06
1.01477e-06
-1.91997e-06
-1.05933e-06
9.97735e-07
-8.8347e-08
-9.37158e-07
1.04608e-06
-9.64889e-07
-7.66152e-07
1.06157e-06
-1.09994e-06
-4.08839e-07
1.10188e-06
-1.65855e-06
1.11683e-06
-1.74112e-06
-1.011e-06
7.23346e-07
-8.91551e-07
-9.34921e-08
-7.25032e-07
-2.1665e-07
-3.86721e-07
-7.37639e-07
-8.11053e-07
-1.6872e-06
5.55896e-07
-1.01686e-06
-1.65716e-06
5.89001e-07
-2.35941e-06
-1.51406e-06
6.44511e-07
-2.71149e-06
-7.95373e-07
7.33866e-07
-4.0569e-06
7.58225e-07
-4.26207e-06
-1.64923e-06
1.05808e-06
-9.13986e-07
-1.59287e-06
1.11834e-06
-2.23452e-06
-1.46102e-06
1.19916e-06
-2.49947e-06
-7.70641e-07
1.42948e-06
-3.86333e-06
1.48189e-06
-4.06938e-06
-1.5515e-06
1.28877e-06
-1.93548e-07
-1.45018e-06
1.36209e-06
-1.44067e-06
-1.23053e-06
1.42533e-06
-1.67625e-06
-6.81854e-07
1.56884e-06
-2.50652e-06
1.63635e-06
-2.73817e-06
-1.51348e-06
1.42138e-06
-2.27708e-09
-1.38624e-06
1.49546e-06
-1.2255e-06
-1.1479e-06
1.53345e-06
-1.44641e-06
-6.21998e-07
1.6317e-06
-2.24731e-06
1.67109e-06
-2.38098e-06
-1.43957e-06
1.11821e-06
-1.31288e-06
-8.73442e-09
-1.0868e-06
-2.05633e-07
-5.8772e-07
-9.32077e-07
-1.04301e-06
-2.63344e-06
8.27314e-07
-1.18595e-06
-2.36858e-06
9.28661e-07
-3.57256e-06
-1.86246e-06
9.53577e-07
-4.19055e-06
-9.9302e-07
9.55928e-07
-5.90127e-06
9.5625e-07
-6.21228e-06
-2.55276e-06
1.57128e-06
-1.04366e-06
-2.34028e-06
1.7671e-06
-3.28544e-06
-1.86642e-06
1.87317e-06
-3.89291e-06
-9.92926e-07
1.83069e-06
-5.61158e-06
1.82734e-06
-5.91492e-06
-2.28922e-06
1.87052e-06
-6.96442e-08
-2.16314e-06
2.03401e-06
-1.83365e-06
-1.90924e-06
2.13422e-06
-2.19121e-06
-9.89975e-07
2.30984e-06
-3.90494e-06
2.33571e-06
-4.21815e-06
-2.19851e-06
2.02028e-06
2.0349e-07
-2.06229e-06
2.17781e-06
-1.50552e-06
-1.80391e-06
2.26944e-06
-1.84001e-06
-9.67568e-07
2.53469e-06
-3.3085e-06
2.61734e-06
-3.61115e-06
-2.0412e-06
1.71735e-06
-1.8982e-06
1.95306e-07
-1.60407e-06
-8.42389e-08
-8.6249e-07
-1.06585e-06
-1.2168e-06
-3.46225e-06
1.07106e-06
-1.50383e-06
-2.90026e-06
1.12188e-06
-5.27666e-06
-2.19937e-06
1.11436e-06
-6.02642e-06
-1.1691e-06
1.12692e-06
-8.07931e-06
1.12769e-06
-8.50957e-06
-3.42411e-06
2.03848e-06
-1.25246e-06
-2.88991e-06
2.20392e-06
-4.90169e-06
-2.19927e-06
2.16605e-06
-5.63524e-06
-1.16761e-06
2.1608e-06
-7.6771e-06
2.15931e-06
-8.09282e-06
-3.25136e-06
2.49346e-06
1.4887e-07
-2.87919e-06
2.77361e-06
-2.7755e-06
-2.20328e-06
2.84508e-06
-3.54616e-06
-1.15431e-06
2.85512e-06
-5.64821e-06
2.86266e-06
-6.05405e-06
-3.05227e-06
2.66626e-06
5.4832e-07
-2.80687e-06
3.02645e-06
-2.00377e-06
-2.24078e-06
3.22565e-06
-2.78666e-06
-1.16242e-06
3.39384e-06
-4.92558e-06
3.42812e-06
-5.31695e-06
-2.6936e-06
2.32491e-06
-2.52766e-06
5.38054e-07
-2.07809e-06
1.31037e-07
-1.11534e-06
-1.28308e-06
-1.55284e-06
-4.48389e-06
1.56264e-06
-2.50434e-06
-3.97637e-06
1.56545e-06
-7.37253e-06
-3.11181e-06
1.56431e-06
-8.47848e-06
-1.66703e-06
1.60991e-06
-1.11569e-05
1.62182e-06
-1.17998e-05
-4.49549e-06
2.86274e-06
-1.91388e-06
-3.95625e-06
2.95388e-06
-6.82935e-06
-3.09289e-06
2.96887e-06
-7.90315e-06
-1.65468e-06
3.05016e-06
-1.05555e-05
3.06791e-06
-1.11709e-05
-4.38478e-06
3.41241e-06
2.74005e-07
-3.8288e-06
3.72135e-06
-4.09895e-06
-3.01066e-06
3.79199e-06
-5.18741e-06
-1.6086e-06
3.91643e-06
-7.91654e-06
3.93408e-06
-8.50666e-06
-4.27129e-06
3.75272e-06
8.47069e-07
-3.75747e-06
4.24244e-06
-3.03867e-06
-2.99611e-06
4.35415e-06
-4.11018e-06
-1.60974e-06
4.45721e-06
-6.85271e-06
4.44035e-06
-7.41035e-06
-3.78289e-06
3.1814e-06
-3.45027e-06
8.35295e-07
-2.90932e-06
2.54029e-07
-1.60359e-06
-1.96759e-06
-2.57058e-06
-5.75451e-06
1.94254e-06
-3.96219e-06
-5.198e-06
2.0239e-06
-9.98016e-06
-4.07061e-06
2.05544e-06
-1.16893e-05
-2.22636e-06
2.13204e-06
-1.51618e-05
2.16852e-06
-1.61954e-05
-5.70989e-06
3.79869e-06
-3.2322e-06
-5.13716e-06
3.79418e-06
-9.17236e-06
-4.01653e-06
3.83464e-06
-1.0803e-05
-2.18944e-06
3.96278e-06
-1.42134e-05
4.0159e-06
-1.51779e-05
-5.69072e-06
4.56675e-06
1.73677e-07
-5.00304e-06
4.86519e-06
-5.85764e-06
-3.88837e-06
4.95641e-06
-7.42383e-06
-2.11281e-06
5.09044e-06
-1.08197e-05
5.14977e-06
-1.1723e-05
-5.58778e-06
5.14842e-06
9.32507e-07
-4.91077e-06
5.55075e-06
-4.40122e-06
-3.84709e-06
5.65288e-06
-5.87032e-06
-2.08058e-06
5.67261e-06
-9.20138e-06
5.71604e-06
-1.00264e-05
-5.18626e-06
4.281e-06
-4.61141e-06
9.17069e-07
-3.84436e-06
1.43781e-07
-1.99675e-06
-3.28883e-06
-4.0382e-06
-8.87934e-06
2.82358e-06
-5.79818e-06
-8.05011e-06
3.07686e-06
-1.39195e-05
-6.34144e-06
3.18207e-06
-1.6614e-05
-3.52483e-06
3.35887e-06
-2.13706e-05
3.45819e-06
-2.31806e-05
-8.74246e-06
5.33437e-06
-4.70221e-06
-7.88952e-06
5.72358e-06
-1.2672e-05
-6.19626e-06
5.87611e-06
-1.51902e-05
-3.42517e-06
6.13371e-06
-1.97593e-05
6.27823e-06
-2.13895e-05
-8.4562e-06
6.54471e-06
3.84753e-08
-7.5575e-06
7.26031e-06
-8.29305e-06
-5.93843e-06
7.50244e-06
-1.06692e-05
-3.24805e-06
7.83371e-06
-1.52101e-05
7.99303e-06
-1.66529e-05
-8.15859e-06
7.27589e-06
1.24088e-06
-7.31404e-06
8.11396e-06
-6.09941e-06
-5.78492e-06
8.41047e-06
-8.30746e-06
-3.14197e-06
8.6951e-06
-1.27057e-05
8.83047e-06
-1.39718e-05
-7.32168e-06
5.89537e-06
-6.59898e-06
1.22014e-06
-5.39485e-06
9.54744e-10
-2.88742e-06
-4.77075e-06
-5.88712e-06
-1.19536e-05
3.79682e-06
-8.30615e-06
-1.12511e-05
4.23149e-06
-1.88951e-05
-9.04522e-06
4.50088e-06
-2.33635e-05
-5.20173e-06
4.86795e-06
-3.01264e-05
5.11154e-06
-3.34948e-05
-1.16751e-05
6.98399e-06
-6.59674e-06
-1.08979e-05
7.67862e-06
-1.68964e-05
-8.69646e-06
8.059e-06
-2.09498e-05
-4.95771e-06
8.61297e-06
-2.7243e-05
8.9609e-06
-3.01494e-05
-1.11284e-05
8.98147e-06
-7.08027e-07
-1.02957e-05
9.78376e-06
-1.12309e-05
-8.14346e-06
1.02195e-05
-1.49819e-05
-4.59067e-06
1.08242e-05
-2.09741e-05
1.11764e-05
-2.34115e-05
-1.07763e-05
9.97914e-06
1.48246e-06
-9.85858e-06
1.07122e-05
-7.94559e-06
-7.7614e-06
1.10596e-05
-1.12448e-05
-4.32e-06
1.16125e-05
-1.69354e-05
1.189e-05
-1.89567e-05
-1.00433e-05
8.17222e-06
-9.05916e-06
1.45588e-06
-7.0616e-06
-7.68298e-07
-3.88324e-06
-6.67549e-06
-8.40927e-06
-1.87215e-05
5.84821e-06
-1.15144e-05
-1.82273e-05
6.70109e-06
-2.61405e-05
-1.50423e-05
7.39039e-06
-3.39913e-05
-8.88942e-06
8.189e-06
-4.45203e-05
8.78575e-06
-5.11729e-05
-1.80413e-05
1.06994e-05
-8.86634e-06
-1.73204e-05
1.19318e-05
-2.2848e-05
-1.41636e-05
1.28951e-05
-2.96113e-05
-8.29268e-06
1.40655e-05
-3.89903e-05
1.49438e-05
-4.45454e-05
-1.71877e-05
1.30893e-05
-6.2903e-07
-1.61306e-05
1.49436e-05
-1.52998e-05
-1.29939e-05
1.60423e-05
-2.12657e-05
-7.4944e-06
1.72341e-05
-2.96421e-05
1.81411e-05
-3.40495e-05
-1.61168e-05
1.42381e-05
2.58749e-06
-1.50302e-05
1.60428e-05
-1.01312e-05
-1.20286e-05
1.71089e-05
-1.53129e-05
-6.80349e-06
1.79653e-05
-2.28918e-05
1.86452e-05
-2.621e-05
-1.43135e-05
1.16488e-05
-1.31795e-05
2.55423e-06
-1.07928e-05
-7.10324e-07
-5.94822e-06
-8.96124e-06
-1.16339e-05
-2.62199e-05
8.11041e-06
-1.52495e-05
-2.66807e-05
9.72735e-06
-3.54709e-05
-2.22463e-05
1.10382e-05
-4.95299e-05
-1.35228e-05
1.22925e-05
-6.56065e-05
1.33823e-05
-7.80784e-05
-2.48988e-05
1.42987e-05
-1.10871e-05
-2.50524e-05
1.67431e-05
-2.97101e-05
-2.07405e-05
1.87111e-05
-4.15962e-05
-1.24317e-05
2.06077e-05
-5.56142e-05
2.21103e-05
-6.56279e-05
-2.29759e-05
1.79873e-05
-8.6762e-07
-2.27834e-05
2.05949e-05
-1.9344e-05
-1.88465e-05
2.26656e-05
-2.91572e-05
-1.11774e-05
2.49384e-05
-4.16419e-05
2.65623e-05
-4.96e-05
-2.14574e-05
1.91824e-05
4.45923e-06
-2.07118e-05
2.13566e-05
-1.16386e-05
-1.68777e-05
2.28766e-05
-1.93581e-05
-9.86675e-06
2.4804e-05
-2.97684e-05
2.61218e-05
-3.55553e-05
-1.9282e-05
1.69959e-05
-1.81e-05
4.4138e-06
-1.4433e-05
-9.50336e-07
-8.24702e-06
-1.12015e-05
-1.53882e-05
-4.23633e-05
1.26177e-05
-1.90643e-05
-4.49813e-05
1.58768e-05
-4.88061e-05
-3.89034e-05
1.89585e-05
-7.46449e-05
-2.52841e-05
2.19283e-05
-0.000101233
2.51238e-05
-0.000128489
-3.9127e-05
2.20617e-05
-1.27021e-05
-4.09045e-05
2.64717e-05
-3.85275e-05
-3.47814e-05
3.08268e-05
-5.95876e-05
-2.20913e-05
3.46249e-05
-8.10009e-05
3.87496e-05
-0.00010126
-3.59858e-05
2.68482e-05
9.40204e-07
-3.67475e-05
3.19464e-05
-2.40569e-05
-3.09814e-05
3.66135e-05
-4.07101e-05
-1.91186e-05
4.07677e-05
-5.96474e-05
4.48456e-05
-7.47279e-05
-3.21962e-05
2.79552e-05
8.93167e-06
-3.20821e-05
3.20793e-05
-1.18855e-05
-2.66289e-05
3.58769e-05
-2.40746e-05
-1.60382e-05
3.90123e-05
-3.86036e-05
4.22493e-05
-4.89073e-05
-2.80714e-05
2.5413e-05
-2.69762e-05
8.87096e-06
-2.22224e-05
8.68831e-07
-1.27764e-05
-1.28449e-05
-1.92263e-05
-5.89108e-05
1.77292e-05
-2.27377e-05
-6.47073e-05
2.26027e-05
-6.57073e-05
-5.7027e-05
2.78256e-05
-0.00011025
-3.79653e-05
3.25204e-05
-0.000152925
3.77473e-05
-0.0002042
-5.405e-05
2.96179e-05
-1.23608e-05
-5.80942e-05
3.67613e-05
-4.86419e-05
-5.02276e-05
4.37469e-05
-8.33754e-05
-3.27333e-05
5.0025e-05
-0.000116
5.68121e-05
-0.000152933
-4.85564e-05
3.62108e-05
4.74662e-06
-5.14195e-05
4.40009e-05
-2.84335e-05
-4.39582e-05
5.12311e-05
-5.56556e-05
-2.80393e-05
5.79174e-05
-8.34586e-05
6.45166e-05
-0.000110343
-4.29914e-05
3.62523e-05
1.73687e-05
-4.41823e-05
4.28315e-05
-9.52509e-06
-3.69673e-05
4.83864e-05
-2.84449e-05
-2.28138e-05
5.38981e-05
-4.87377e-05
5.87428e-05
-6.58171e-05
-3.64143e-05
3.8521e-05
-3.63928e-05
1.72965e-05
-2.9819e-05
4.65986e-06
-1.79363e-05
-1.25248e-05
-2.29205e-05
-9.95748e-05
2.82957e-05
-2.27407e-05
-0.000117762
3.89446e-05
-8.65764e-05
-0.000112301
5.25127e-05
-0.000168334
-8.45529e-05
6.50901e-05
-0.000245877
8.43269e-05
-0.000373073
-8.67963e-05
4.63314e-05
-6.73482e-06
-9.94637e-05
5.93727e-05
-5.64026e-05
-9.08607e-05
7.66676e-05
-0.000116133
-6.53438e-05
9.06142e-05
-0.000167041
0.000112077
-0.000245908
-7.77168e-05
5.44829e-05
1.59214e-05
-8.58803e-05
6.86686e-05
-2.95659e-05
-7.68988e-05
8.56704e-05
-7.364e-05
-5.27507e-05
9.92418e-05
-0.000116234
0.000117553
-0.000168434
-6.49613e-05
5.3209e-05
3.39728e-05
-6.88855e-05
6.47712e-05
-1.70336e-06
-5.96158e-05
7.75292e-05
-2.95734e-05
-3.91942e-05
8.66052e-05
-5.65227e-05
9.93886e-05
-8.67051e-05
-5.33978e-05
5.84049e-05
-5.46962e-05
3.38882e-05
-4.65656e-05
1.58158e-05
-2.8539e-05
-6.93325e-06
-2.29492e-05
-0.000133796
3.92646e-05
-2.01565e-05
-0.000165801
5.38417e-05
-0.000108556
-0.000163722
7.52727e-05
-0.000245842
-0.000123234
9.60076e-05
-0.000382559
0.000122887
-0.00061919
-0.00011558
6.05609e-05
6.21172e-06
-0.000137514
8.01733e-05
-6.08004e-05
-0.000130419
0.000106609
-0.000154564
-9.63367e-05
0.000130125
-0.000235241
0.000163385
-0.000382531
-0.000100319
6.99159e-05
3.47896e-05
-0.000116147
9.15057e-05
-2.507e-05
-0.000106932
0.000115855
-9.21013e-05
-7.55978e-05
0.00013725
-0.000154694
0.000165494
-0.000245923
-8.16577e-05
6.50697e-05
5.9147e-05
-9.17782e-05
8.14109e-05
1.8512e-05
-8.04852e-05
0.000100057
-2.50678e-05
-5.41554e-05
0.000115342
-6.09438e-05
0.00013352
-0.000108678
-6.53236e-05
8.7427e-05
-7.01894e-05
5.9051e-05
-6.08646e-05
3.46814e-05
-3.95342e-05
5.94475e-06
-2.0347e-05
-0.000238592
6.46505e-05
3.15803e-06
-0.000327661
9.71827e-05
-0.000116828
-0.000376219
0.000156872
-0.000354287
-0.000343604
0.000216115
-0.000631436
0.000343426
-0.00130616
-0.000189916
9.32438e-05
4.52232e-05
-0.00024418
0.000131378
-4.07318e-05
-0.00025495
0.000198525
-0.000185447
-0.000216503
0.000254557
-0.000312131
0.000375952
-0.000631452
-0.000163146
0.000103346
7.66559e-05
-0.000199098
0.000143388
-1.12685e-06
-0.000198836
0.000198797
-9.26359e-05
-0.000157174
0.000243827
-0.000185626
0.000327375
-0.000354325
-0.000120689
9.42035e-05
0.000103563
-0.000143721
0.000120387
6.45447e-05
-0.000131748
0.000162873
-1.11659e-06
-9.75584e-05
0.000189615
-4.09216e-05
0.000238327
-0.000116986
-9.44935e-05
0.000129999
-0.000103655
0.000103439
-9.3585e-05
7.65354e-05
-6.49806e-05
4.48776e-05
2.95469e-06
-0.000312136
7.634e-05
5.27133e-05
-0.000455184
0.000128419
-0.000102424
-0.000551559
0.000218199
-0.000476372
-0.000490985
0.000329607
-0.00102198
0.000490245
-0.00228746
-0.000238813
0.000110967
0.000100092
-0.000327089
0.00017013
5.83427e-06
-0.000369177
0.000268016
-0.000193177
-0.000330155
0.0003688
-0.000390346
0.000551078
-0.00102202
-0.000192017
0.000121263
0.000131478
-0.000255549
0.000171233
6.13028e-05
-0.000268481
0.000255111
-6.67989e-05
-0.000218691
0.000326706
-0.000193322
0.000454677
-0.000476219
-0.00014101
0.000106061
0.000160747
-0.000171655
0.000140636
0.000125786
-0.000170606
0.00019163
6.13158e-05
-0.000128884
0.000238546
5.51565e-06
0.00031175
-0.000102607
-0.000106444
0.000185947
-0.000121657
0.000160611
-0.000111394
0.000131373
-7.67913e-05
9.98052e-05
5.25516e-05
-0.000557411
0.000120687
0.0001895
-0.00092623
0.000229468
3.66932e-05
-0.00148701
0.000461738
-0.000377486
-0.00170752
0.000778237
-0.00157992
0.00170835
-0.00137589
-0.0018807
-0.00107034
-0.00137608
-0.00037461
0.000161469
0.000222414
-0.000564506
0.000264743
0.000160455
-0.000742759
0.000499318
-5.25037e-05
-0.000778724
0.000742098
-0.000318241
0.0014868
-0.00157939
-0.000296912
0.000165883
0.000238651
-0.000419843
0.000250734
0.000198243
-0.000499647
0.000419427
9.28964e-05
-0.000461932
0.000563965
-5.29035e-05
0.000925827
-0.000376888
-0.000193704
0.000140531
0.000253601
-0.000251244
0.000193235
0.000240824
-0.000265305
0.000296522
0.000198282
-0.000230061
0.000374151
0.000160085
0.000557081
3.6328e-05
-0.000140964
0.000260601
-0.000166315
0.000253408
-0.000161903
0.000238492
-0.000121098
0.000221984
0.000189323
-0.000655732
0.000135468
0.000375169
-0.00127798
0.000265476
0.000393098
-0.00257247
0.000607978
0.000308613
-0.000619626
0.00134417
-0.000242404
-0.000760563
-0.000123809
-0.000414415
-0.000597309
-0.00160859
-0.00113072
-0.000518097
0.000434549
-0.00191372
-0.000413535
0.000173346
0.000371642
-0.000671149
0.000295008
0.000388537
-0.00108462
0.000608671
0.000360276
-0.00134553
0.00108406
0.00020278
0.0025713
-0.000412947
-0.000760315
-0.000124789
-0.000242311
-0.000597311
-0.000619366
-0.00113011
-0.001608
-0.000311836
0.000171263
0.000366211
-0.000463055
0.000264386
0.000380085
-0.00060919
0.000462416
0.000385286
-0.00060864
0.00067057
0.000360034
0.00127711
0.000309479
-0.000198401
0.00014065
0.000354893
-0.000265025
0.000197827
0.000374006
-0.000295698
0.000311271
0.000380099
-0.000266286
0.000413068
0.000388175
0.000655117
0.000392553
-0.000141218
0.00034282
-0.000171829
0.000354675
-0.000173909
0.000366019
-0.000136021
0.00037116
0.000375012
-0.000886632
0.000150975
0.000679786
-0.00177441
0.000338322
0.000942182
-0.00117499
0.000869608
0.00180483
-0.000963449
-0.00111784
-0.000884727
-0.0020806
0.000419694
0.000242624
0.000832342
0.000587136
-0.00100032
0.000282564
-0.000702189
-0.000520479
0.000184252
0.000589394
-0.000907752
0.000359453
0.000754679
-0.0016839
0.000832061
0.00117397
-0.000883672
0.00168371
0.000626163
0.000879435
0.000479627
0.000626133
-0.000520111
-0.000883599
-0.000463667
-0.00101917
-0.000520636
-0.00102171
-0.000463614
-0.000481955
-0.000845593
0.00141643
0.000309686
-0.000523828
-0.00051186
-0.000659496
-0.000368274
0.000172419
0.000528622
-0.000578976
0.000298323
0.000651916
-0.000832193
0.000578207
0.000892357
-0.000869372
0.000907108
0.00117382
0.00177416
0.00180492
-0.00096338
-0.0011752
-0.000883421
-0.00111611
-0.00021363
0.000138465
0.000471054
-0.00029912
0.000212934
0.000544885
-0.000360466
0.000367691
0.000651962
-0.000339462
0.000519989
0.00075429
0.000885962
0.000941579
-0.000139102
0.000420815
-0.000173067
0.000470806
-0.000184794
0.000528273
-0.000151381
0.000588749
0.000679295
-0.000390842
9.00572e-05
0.000784969
-0.0005996
0.000128914
0.00102158
-0.000729214
0.000314186
0.0017997
-0.00048165
0.000164215
0.000137187
0.000244717
0.00127015
-0.000955701
-0.000206412
-0.000449229
-0.00041794
-0.000214751
0.000486251
0.00262857
-6.29433e-05
0.000166008
-0.00321792
-0.000278774
0.000123193
0.00068502
-0.000434942
0.000169018
0.000870743
-0.000366103
0.000376581
0.00127997
-0.000235553
4.82337e-05
-4.99122e-05
-0.000315684
-0.000404082
0.000280134
0.000699691
-0.000399604
0.000209182
-0.000423923
-0.000212248
0.000304352
0.000522241
-0.000211632
0.00012141
0.00061029
-0.000316495
0.00017059
0.000755206
-0.000376541
0.000315905
0.00101308
-0.000314489
0.000434458
0.00127878
-0.000234765
-0.00036579
-4.94173e-05
4.84965e-05
0.000599624
0.00179872
-0.000480617
-0.000727975
0.000137597
0.000164132
-0.000129301
0.000102398
0.000534381
-0.000171309
0.000128652
0.000628832
-0.000170034
0.000211022
0.00075557
-0.00012967
0.000278022
0.000870361
0.000389896
0.00102211
-0.000103198
0.000468015
-0.00012206
0.00053412
-0.000123737
0.000609888
-9.07718e-05
0.000684295
0.000784036
0.000117794
-3.57208e-05
0.000606769
0.000325053
1.57476e-05
0.000798021
0.000563905
-0.000303517
0.000629976
0.000446634
0.000448913
0.000338113
-0.000824748
0.00153206
-0.000194681
5.21772e-05
0.00211121
-0.000778046
0.000676396
-0.000343408
-0.0016648
1.94007e-05
-2.02969e-05
0.00059653
0.000143539
1.58819e-05
0.00074647
0.000599867
-0.00023443
0.000754551
0.000643617
-0.000599604
0.000430755
0.000211898
0.000646304
0.000117504
0.000485109
0.000211567
0.000485449
0.000117159
-0.00046727
-0.000789145
-0.000425777
-0.0004677
-0.00085263
0.000440354
0.000677331
-0.00101476
-0.000200074
0.000629831
0.000386264
0.000577303
-9.32549e-06
4.8147e-06
0.000551875
8.0305e-05
1.90069e-05
0.000662451
0.000233926
-8.15386e-05
0.000706567
0.000303587
-0.000144277
0.000753794
-0.000324984
0.000628114
0.000447406
0.000562255
0.00034075
0.000449797
-2.93303e-05
1.73794e-05
0.000519499
-2.00466e-05
2.83674e-05
0.000610188
-1.73422e-05
8.59279e-06
0.000662734
-1.74983e-05
-2.02556e-05
0.000746495
-0.000118895
0.000799283
-1.82974e-05
0.000457241
-5.57121e-06
0.000519052
1.94644e-05
0.000551743
3.50534e-05
0.000595467
0.000604867
-2.88173e-05
-3.15001e-06
0.000632871
-0.00017516
1.58564e-05
0.000927548
-1.27008e-05
6.68021e-05
0.00106352
3.22317e-05
-0.000470926
-0.000224128
0.000406928
-0.000174061
0.00012414
-0.000368766
0.00486915
-0.000522813
0.000125231
0.000458526
-0.00138759
-0.00103557
-0.000934946
-0.00157082
3.13969e-05
4.79549e-07
0.000595683
-2.8495e-06
-8.11649e-06
0.00080469
-0.000172427
3.73951e-05
0.000953535
-9.19417e-05
0.000170582
0.000371738
0.000419013
0.000280842
0.000371702
-0.000158233
-9.79124e-05
2.50981e-05
-0.00045131
-0.000155705
-0.000449099
2.35546e-05
0.000736493
-5.55011e-05
-8.29345e-05
9.24566e-06
-0.000699244
1.19268e-05
-1.01627e-06
0.000542348
5.29001e-06
-2.57653e-05
0.000686736
-3.93824e-05
-7.48776e-06
0.000796123
-6.97013e-05
1.56655e-06
0.000953129
0.000170898
0.00106365
2.9999e-05
-7.37818e-06
-0.000228227
-0.000470169
2.18305e-05
7.89827e-06
0.000503787
2.4427e-05
-2.32356e-05
0.000605061
6.80407e-06
-1.39306e-05
0.0006868
-1.6656e-05
-3.29647e-05
0.000804487
2.72975e-05
0.000927238
-9.39588e-06
0.000436644
-5.0929e-07
0.000503411
-1.89798e-06
0.000541796
1.1783e-06
0.000595158
0.000632623
7.31698e-05
-2.08031e-05
0.000725315
7.26243e-05
-7.30049e-05
0.00100019
-0.000619639
0.000106921
0.00194723
-0.000386339
-3.14738e-06
9.02416e-05
0.000252104
0.000872616
-8.51291e-05
-0.000361371
-0.000463403
-0.000439091
-0.000395425
0.00134824
0.00102866
-0.000597709
0.000386517
-0.00216561
9.84319e-05
-3.80636e-05
0.000632579
0.000107099
-0.000102297
0.000825315
-0.000256735
3.72127e-05
0.00133581
-6.66845e-05
3.59183e-05
8.2034e-05
-0.000251789
-0.00040547
0.000157115
0.000615147
-0.00044514
0.000211206
-9.5574e-05
-0.000281201
0.000350488
0.000260221
8.16011e-05
-5.7135e-05
0.000550665
5.21143e-05
-9.56512e-05
0.000709577
-3.77109e-05
-5.3343e-05
0.000976504
-0.000107439
-0.000108381
0.00133423
-6.5774e-05
-0.000256255
8.26612e-05
3.63704e-05
-7.36246e-05
0.00194846
-0.000386947
-0.000617476
9.03176e-05
-3.20494e-06
8.30488e-05
-5.45905e-05
0.000485167
9.433e-05
-8.44506e-05
0.000582579