/*--------------------------------*- C++ -*----------------------------------*\
| =========                 |                                                 |
| \\      /  F ield         | OpenFOAM: The Open Source CFD Toolbox           |
|  \\    /   O peration     | Version:  5.x                                   |
|   \\  /    A nd           | Web:      www.OpenFOAM.org                      |
|    \\/     M anipulation  |                                                 |
\*---------------------------------------------------------------------------*/
FoamFile
{
    version     2.0;
    format      ascii;
    class       volScalarField;
    location    "0.096";
    object      interFace;
}
// * * * * * * * * * * * * * * * * * * * * * * * * * * * * * * * * * * * * * //

dimensions      [0 0 0 0 0 0 0];

internalField   nonuniform List<scalar> 
1539
(
0
0
0
0
0
0
0
0
0
0
0
0
0
0
0
0
0
0
0
0
0
0
0
0
0
0
0
0
0
0
0
0
0
0
0
0
0
0
0
0
0
0
0
0
0
0
0
0
0
0
0
0
0
0
0
0
0
0
0
0
0
0
0
0
0
0
0
0
0
0
0
0
0
0
0
0
0
0
0
0
0
0
0
0
0
0
0
0
0
0
0
0
0
0
0
0
0
0
0
0
0
0
0
0
0
0
0
0
0
0
0
0
0
0
0
0
0
0
0
0
0
0
0
0
0
0
0
0
0
0
0
0
0
0
0
0
0
0
0
0
0
0
0
0
0
0
0
0
0
0
0
0
0
0
0
0
0
0
0
0
0
0
0
0
0
0
0
0
0
0
0
0
0
0
0
0
0
0
0
0
0
0
0
0
0
0
0
0
0
0
0
0
0
0
0
0
0
0
0
0
0
0
0
0
0
0
0
0
0
0
0
0
0
0
0
0
0
0
0
0
0
0
0
0
0
0
0
0
0
0
0
0
0
0
0
0
0
0
0
0
0
0
0
0
0
0
0
0
0
0
0
0
0
0
0
0
0
0
0
0
0
0
0
0
0
0
0
0
0
0
0
0
0
0
0
0
0
0
0
0
0
0
0
0
0
0
0
0
0
0
0
0
0
0
0
0
0
0
0
0
0
0
0
0
0
0
0
0
0
0
0
0
0
0
0
0
0
0
0
0
0
0
0
0
0
0
0
0
0
0
0
0
0
0
0
0
0
0
0
0
0
0
0
0
0
0
0
0
0
0
0
0
0
0
0
0
0
0
0
0
0
0
0
0
0
0
0
0
0
0
0
0
0
0
0
0
0
0
0
0
0
0
0
0
0
0
0
0
0
0
0
0
0
0
0
0
0
0
0
0
0
0
0
0
0
0
0
0
0
0
0
0
0
0
0
0
0
0
0
0
0
0
0
0
0
0
0
0
0
0
0
0
0
0
0
0
0
0
0
0
0
0
0
0
0
0
0
0
0
0
0
0
0
0
0
0
0
0
0
0
0
0
0
0
0
0
0
0
0
0
0
0
0
0
0
0
0
0
0
0
0
0
0
0
0
0
0
0
0
0
0
0
0
0
0
0
0
0
0
0
0
0
0
0
0
0
0
0
0
0
0
0
0
0
0
0
0
0
0
0
0
0
0
0
0
0
0
0
0
0
0
0
0
0
0
0
0
0
0
0
0
0
0
0
0
0
0
0
0
0
0
0
0
0
0
0
0
0
0
0
0
0
0
0
0
0
0
0
0
0
0
0
0
0
0
0
0
0
0
0
0
0
0
0
0
0
0
0
0
0
0
0
0
0
0
0
0
0
0
0
0.834157
0
0
0
0
0
0
0
0
0
0
0
0
0
0
0
0
0
0
0
0
0
0
0
0
0.144079
0.592687
0
0
0
0.592676
0
0
0
0
0
0
0
0
0
0
0
0
0
0
0
0
0
0
0
0.0662574
0.514865
0
0
0
0.514854
0
0
0
0
0
0
0
0
0
0
0
0
0
0
0
0
0
0
0
0.869615
0
0
0
0
0
0
0
0
0
0
0
0
0
0
0
0
0
0
0
0
0
0
0
0
0.28736
0.785907
0
0
0
0.785923
0
0
0
0
0
0
0
0
0
0
0
0
0
0
0
0
0
0
0
0.0166128
0.464933
0
0
0
0.464949
0
0
0
0
0
0
0
0
0
0
0
0
0
0
0
0
0
0
0
0.462994
0
0
0
0
0
0
0
0
0
0
0
0
0
0
0
0
0
0
0
0
0
0
0
0
0
0
0
0
0
0
0
0
0
0
0
0
0
0
0
0
0
0
0
0
0
0
0
0
0
0
0
0
0
0
0
0
0
0
0
0
0
0
0
0
0
0
0
0
0
0
0
0
0
0
0
0
0
0
0
0
0
0
0
0
0
0
0
0
0
0
0
0
0
0
0
0
0
0
0
0
0
0
0
0
0
0
0
0
0
0
0
0
0
0
0
0
0
0
0
0
0
0
0
0
0
0
0
0
0
0
0
0
0
0
0
0
0
0
0
0
0
0
0
0
0
0
0
0
0
0
0
0
0
0
0
0
0
0
0
0
0
0
0
0
0
0
0
0
0
0
0
0
0
0
0
0
0
0
0
0
0
0
0
0
0
0
0
0
0
0
0
0
0
0
0
0
0
0
0
0
0
0
0
0
0
0
0
0
0
0
0
0
0
0
0
0
0
0
0
0
0
0
0
0
0
0
0
0
0
0
0
0
0
0
0
0
0
0
0
0
0
0
0
0
0
0
0
0
0
0.732003
0.732015
0.961548
0
0
0
0
0.285622
0.285634
0.554644
0.284168
0.553177
0.553189
0.822199
0.55637
0.556382
0.825392
0.0170689
0.286078
0.286091
0.5551
0
0
0
0.467099
0.786762
0.78677
0.966109
0
0
0
0
0
0
0
0
0
0
0
0
0
0
0.335483
0.335474
0.6047
0.478507
0.747732
0.747724
0
0.776343
0.507843
0.507847
0.68664
0.552696
0.73149
0.731494
0.866013
0.597513
0.776857
0.95565
0.642366
0
0.821159
0.866017
0.597521
0.776865
0.955662
0.64237
0
0.821167
0.523428
0.523425
0.568346
0.386109
0.29627
0.341191
0.341188
0
0.858394
0
0.953749
0
0
0
0.858389
0
0
0.953738
0
0
0
0.61317
0.79265
0.658088
0.475851
0.565495
0.610413
0.430933
0.613164
0.792645
0.658085
0.475848
0.565487
0.610408
0.430927
0.882389
0.882387
0.747827
0.56559
0.834712
0.700152
0.70015
0.329017
0.329021
0.37387
0.239865
0.150162
0.195011
0.195015
0
0.733955
0
0.732488
0
0.962518
0
0.733959
0
0
0.732504
0.962526
0
0
0.418687
0.598031
0.46354
0.329535
0.419172
0.464025
0.284681
0.418695
0.598039
0.463544
0.329539
0.419184
0.464033
0.284689
0.413304
0.413296
0.682521
0.018482
0.287707
0.287699
0.556924
0.248693
0.111179
0.111176
0.158853
0.156097
0.203774
0.203772
0.687704
0.687708
0.553214
0.419209
0.688193
0.553699
0.553703
0.338435
0.20092
0.380401
0.428078
0.245839
0.472997
0.293516
0.338432
0.200915
0.380396
0.42807
0.245836
0.472991
0.293511
0.428174
0.47014
0.470137
0.697295
0.335578
0.562736
0.562733
0.15068
0.0614621
0.0614661
0.0609772
0.106315
0.105827
0.105831
0.24035
0.151132
0.330476
0.329987
0.195985
0.37484
0.195496
0.240354
0.15114
0.330484
0.329999
0.195989
0.374848
0.195504
0.95662
0.777342
0
0.598483
0.643336
0.867467
0.822614
0.777354
0.95664
0
0.598499
0.643348
0.867484
0.822634
0.0634032
0.0634005
0.108322
0.105367
0.0155272
0.0604484
0.0604456
0
0.846575
0
0.46709
0
0.762844
0
0.84657
0
0
0.467079
0.762838
0
0
0.559784
0.607461
0.65238
0.876583
0.739069
0.783987
0.831665
0.559776
0.60745
0.652371
0.876572
0.739055
0.783976
0.831651
0.330024
0.42015
0.420154
0.599008
0.285659
0.464514
0.464518
0.153145
0.332626
0.198063
0.195109
0.284752
0.329671
0.15019
0.153139
0.33262
0.198061
0.195106
0.284744
0.329665
0.150185
0.422365
0.422362
0.287802
0.284848
0.553969
0.41941
0.419407
0.0619182
0.0619222
0.106772
0.152048
0.0623456
0.107195
0.107199
0
0.965255
0
0.465389
0
0.734411
0
0.965263
0
0
0.465405
0.734415
0
0
0.509787
0.509298
0.554151
0.689065
0.733918
0.778283
0.733429
0.509799
0.509314
0.554163
0.689085
0.733934
0.778299
0.733449
0.151588
0.330932
0.196441
0.241718
0.331355
0.376208
0.196865
0.151596
0.33094
0.196445
0.241722
0.331367
0.376217
0.196873
0
0
0
0.275586
0.544811
0.544803
0.814028
0.147233
0.189
0.188998
0.0573929
0.233919
0.102314
0.102311
0.420606
0.42061
0.286115
0.331392
0.600377
0.465882
0.465886
0.236974
0.278742
0.458223
0.326618
0.32366
0.371537
0.192056
0.236972
0.278737
0.458217
0.32661
0.323658
0.371531
0.19205
0.512008
0.691293
0.736212
0.464135
0.509054
0.733257
0.688338
0.512
0.69128
0.736201
0.464124
0.509045
0.733246
0.688325
0.326713
0.547962
0.547959
0.595835
0.413399
0.461275
0.461273
0.242145
0.33221
0.332214
0.152443
0.377063
0.197292
0.197296
0.331815
0.42188
0.601223
0.421452
0.466733
0.466306
0.286962
0.331819
0.421888
0.601231
0.421464
0.466737
0.466314
0.28697
0.510243
0.689521
0.734374
0.510666
0.555519
0.779651
0.734798
0.510255
0.689541
0.73439
0.510682
0.555531
0.779667
0.734818
0.421489
0.690897
0.690901
0.690474
0.556407
0.55598
0.555984
0.320507
0.320504
0.365426
0.541753
0.451913
0.496834
0.496832
0
0
0
0.930111
0
0
0
0
0
0
0.9301
0
0
0
0.637606
0.506001
0.550919
0.775123
0.81689
0.861809
0.730204
0.637597
0.50599
0.550911
0.775112
0.816877
0.861798
0.730191
0.410249
0.58973
0.455167
0.631495
0.721138
0.766057
0.586576
0.410243
0.589724
0.455165
0.631492
0.72113
0.766051
0.586571
0
0
0
0
0
0
0
0.599461
0.778319
0.643825
0.958086
0.823592
0.867956
0
0.599469
0.778323
0.643833
0.958094
0.823604
0.867968
0
0
0
0
0
0
0
0
0.599917
0.958543
0.824048
0.779688
0.645193
0.869325
0
0.599925
0.958551
0.82406
0.779692
0.645201
0.869337
0
0.679469
0.679466
0.544906
0.721234
0.990355
0.855796
0.855793
0.511948
0.511952
0.556801
0.78136
0.691658
0.736507
0.736511
)
;

boundaryField
{
    inlet
    {
        type            calculated;
        value           uniform 0;
    }
    wall
    {
        type            calculated;
        value           uniform 0;
    }
    outlet
    {
        type            calculated;
        value           uniform 0;
    }
    procBoundary3to1
    {
        type            processor;
        value           uniform 0;
    }
    procBoundary3to2
    {
        type            processor;
        value           uniform 0;
    }
}


// ************************************************************************* //
