/*--------------------------------*- C++ -*----------------------------------*\
| =========                 |                                                 |
| \\      /  F ield         | OpenFOAM: The Open Source CFD Toolbox           |
|  \\    /   O peration     | Version:  5.x                                   |
|   \\  /    A nd           | Web:      www.OpenFOAM.org                      |
|    \\/     M anipulation  |                                                 |
\*---------------------------------------------------------------------------*/
FoamFile
{
    version     2.0;
    format      ascii;
    class       volScalarField;
    location    "0.096";
    object      phiIB;
}
// * * * * * * * * * * * * * * * * * * * * * * * * * * * * * * * * * * * * * //

dimensions      [0 2 -1 0 0 0 0];

internalField   nonuniform List<scalar> 
1539
(
-0.000406918
-0.000406946
-0.000406901
-0.000406934
-0.000406974
-0.000406945
-0.000406978
-0.00040693
-0.000406966
-0.000406999
-0.000406904
-0.000406933
-0.00040687
-0.000406904
-0.000406921
-0.000406936
-0.000406968
-0.000406904
-0.000406938
-0.000406944
-0.00040698
-0.000407005
-0.000406924
-0.000406949
-0.000406931
-0.000786251
-0.000786221
-0.000786193
-0.000786185
-0.000786152
-0.000786223
-0.000786191
-0.000786159
-0.000786148
-0.000786112
-0.000786197
-0.000786162
-0.000786124
-0.00078611
-0.000786067
-0.000786191
-0.000786152
-0.00078611
-0.000786091
-0.000786046
-0.00078616
-0.000786118
-0.00078607
-0.000786049
-0.000785997
-0.00191041
-0.00191036
-0.00191029
-0.00191029
-0.00191033
-0.00191037
-0.00191031
-0.00191023
-0.00191023
-0.00191025
-0.0019103
-0.00191023
-0.00191013
-0.00191012
-0.00191012
-0.00191031
-0.00191024
-0.00191012
-0.00191009
-0.00191008
-0.00191035
-0.00191027
-0.00191013
-0.00191009
-0.00191005
-0.00243665
-0.00243657
-0.00243651
-0.00243651
-0.00243655
-0.00243658
-0.00243649
-0.00243641
-0.00243641
-0.00243643
-0.00243652
-0.00243642
-0.00243633
-0.00243631
-0.00243631
-0.00243653
-0.00243642
-0.00243631
-0.00243628
-0.00243627
-0.00243658
-0.00243645
-0.00243632
-0.00243627
-0.00243624
-0.00349797
-0.00349786
-0.00349778
-0.00349781
-0.00349795
-0.00349786
-0.00349775
-0.00349765
-0.00349767
-0.00349779
-0.0034978
-0.00349766
-0.00349752
-0.00349752
-0.0034976
-0.00349784
-0.00349769
-0.00349753
-0.00349752
-0.00349758
-0.00349798
-0.00349781
-0.00349762
-0.00349759
-0.00349761
-0.00409303
-0.00409289
-0.00409287
-0.00409294
-0.00409318
-0.0040929
-0.00409275
-0.00409271
-0.00409277
-0.004093
-0.0040929
-0.00409273
-0.00409265
-0.00409267
-0.00409283
-0.00409298
-0.0040928
-0.00409268
-0.00409269
-0.00409284
-0.00409323
-0.00409304
-0.00409284
-0.00409285
-0.00409295
-0.00508997
-0.0050898
-0.0050898
-0.00508993
-0.00509034
-0.00508981
-0.00508961
-0.00508959
-0.0050897
-0.00509009
-0.00508983
-0.00508961
-0.00508955
-0.00508963
-0.00508993
-0.00508998
-0.00508973
-0.00508964
-0.0050897
-0.00508997
-0.0050904
-0.00509014
-0.00508994
-0.00508998
-0.00509019
-0.00573892
-0.00573875
-0.00573885
-0.0057391
-0.00573978
-0.00573878
-0.00573853
-0.00573861
-0.00573884
-0.00573947
-0.0057389
-0.00573864
-0.00573866
-0.00573885
-0.00573942
-0.00573916
-0.00573888
-0.00573887
-0.00573902
-0.00573954
-0.00573986
-0.00573953
-0.00573945
-0.00573956
-0.00573997
-0.00668101
-0.00668089
-0.00668107
-0.00668145
-0.00668246
-0.00668093
-0.00668068
-0.00668081
-0.00668115
-0.0066821
-0.00668113
-0.00668084
-0.0066809
-0.0066812
-0.00668205
-0.00668153
-0.0066812
-0.00668122
-0.00668148
-0.00668227
-0.00668256
-0.00668217
-0.00668209
-0.00668229
-0.00668294
-0.00736895
-0.00736887
-0.00736928
-0.00736994
-0.00737164
-0.0073689
-0.00736881
-0.00736917
-0.00736972
-0.00737123
-0.00736937
-0.00736921
-0.00736945
-0.00736996
-0.00737135
-0.00737006
-0.00736979
-0.00736998
-0.00737045
-0.00737176
-0.00737177
-0.00737133
-0.00737141
-0.0073718
-0.00737291
-0.00826368
-0.00826358
-0.00826412
-0.00826501
-0.00826737
-0.00826362
-0.00826352
-0.00826403
-0.00826483
-0.00826694
-0.00826422
-0.00826409
-0.00826443
-0.00826516
-0.00826712
-0.00826515
-0.00826492
-0.00826519
-0.00826585
-0.00826772
-0.00826754
-0.00826707
-0.00826719
-0.00826776
-0.00826936
-0.00897439
-0.00897437
-0.00897545
-0.00897682
-0.0089804
-0.00897443
-0.00897438
-0.00897542
-0.00897674
-0.00898022
-0.00897559
-0.0089755
-0.00897629
-0.00897748
-0.00898065
-0.00897701
-0.00897687
-0.00897753
-0.00897858
-0.00898154
-0.00898065
-0.0089804
-0.00898075
-0.00898159
-0.00898411
-0.00982407
-0.00982399
-0.00982511
-0.00982663
-0.00983118
-0.00982407
-0.00982398
-0.00982502
-0.00982652
-0.00983097
-0.00982528
-0.00982512
-0.00982594
-0.00982728
-0.00983139
-0.00982687
-0.00982668
-0.00982735
-0.00982852
-0.00983238
-0.00983148
-0.00983118
-0.00983151
-0.00983243
-0.00983576
-0.010539
-0.0105386
-0.01054
-0.0105416
-0.010548
-0.0105387
-0.0105383
-0.0105399
-0.0105413
-0.0105476
-0.0105403
-0.01054
-0.010541
-0.0105424
-0.0105482
-0.0105419
-0.0105415
-0.0105425
-0.0105437
-0.0105491
-0.0105484
-0.010548
-0.0105484
-0.0105492
-0.0105538
-0.0113467
-0.0113424
-0.0113397
-0.0113374
-0.0113427
-0.0113426
-0.0113389
-0.011337
-0.0113358
-0.0113412
-0.01134
-0.0113371
-0.0113366
-0.0113356
-0.0113412
-0.0113379
-0.011336
-0.0113357
-0.0113353
-0.011341
-0.0113433
-0.0113416
-0.0113414
-0.0113411
-0.0113462
-0.0120645
-0.0120476
-0.0120255
-0.0120146
-0.0120185
-0.0120479
-0.0120321
-0.0120154
-0.0120093
-0.0120151
-0.012026
-0.0120157
-0.0120102
-0.0120077
-0.0120141
-0.0120153
-0.0120098
-0.0120078
-0.0120057
-0.0120127
-0.0120193
-0.0120156
-0.0120144
-0.0120129
-0.0120192
-0.0127184
-0.0127104
-0.0127013
-0.0126886
-0.0126913
-0.0127108
-0.0127026
-0.0126921
-0.0126806
-0.0126848
-0.0127021
-0.0126925
-0.0126807
-0.0126762
-0.0126834
-0.0126895
-0.0126811
-0.0126764
-0.012674
-0.0126819
-0.0126924
-0.0126855
-0.0126837
-0.0126821
-0.0126922
-0.0131687
-0.0131728
-0.0131776
-0.0131827
-0.0131932
-0.0131734
-0.0131746
-0.0131782
-0.0131807
-0.0131911
-0.0131787
-0.0131787
-0.0131802
-0.0131794
-0.0131937
-0.0131841
-0.0131815
-0.0131797
-0.0131806
-0.0132003
-0.0131948
-0.0131922
-0.0131942
-0.0132006
-0.013229
-0.0135027
-0.0135207
-0.0135397
-0.0135624
-0.0135957
-0.0135215
-0.0135325
-0.0135465
-0.0135662
-0.0135984
-0.0135412
-0.0135473
-0.0135588
-0.0135736
-0.0136115
-0.0135644
-0.0135675
-0.0135742
-0.0135917
-0.0136335
-0.0135979
-0.0135999
-0.0136123
-0.0136338
-0.0136688
-0.013589
-0.0136399
-0.0136894
-0.0137519
-0.0138294
-0.0136411
-0.0136723
-0.0137107
-0.0137655
-0.0138388
-0.0136917
-0.0137119
-0.0137444
-0.0137926
-0.0138618
-0.0137548
-0.0137673
-0.0137933
-0.0138336
-0.0138878
-0.0138327
-0.0138412
-0.013863
-0.0138884
-0.0139323
-0.0135967
-0.0137254
-0.0137779
-0.0138727
-0.0139779
-0.0137273
-0.0137938
-0.0138215
-0.0138948
-0.0139866
-0.013781
-0.013823
-0.0138554
-0.0139161
-0.0139971
-0.0138766
-0.0138972
-0.0139171
-0.0139611
-0.0140193
-0.0139823
-0.0139895
-0.0139986
-0.0140199
-0.0140661
-0.0136202
-0.0136919
-0.0137763
-0.0138658
-0.0140198
-0.0136949
-0.0137538
-0.0138088
-0.0138902
-0.0140165
-0.013781
-0.013811
-0.0138561
-0.0139226
-0.0140253
-0.0138716
-0.0138937
-0.0139239
-0.0139637
-0.0140419
-0.0140262
-0.0140209
-0.0140275
-0.0140429
-0.0141071
-0.0131439
-0.0136139
-0.0136582
-0.0138407
-0.0139662
-0.0136192
-0.0138218
-0.013787
-0.0139026
-0.0139837
-0.0136651
-0.0137899
-0.013812
-0.0138974
-0.0139841
-0.0138492
-0.0139074
-0.0138993
-0.0139493
-0.0140081
-0.0139752
-0.0139894
-0.013987
-0.0140091
-0.0140641
-0.01344
-0.0137422
-0.0138086
-0.0137853
-0.0140115
-0.0137511
-0.0137454
-0.0138248
-0.0138163
-0.0139892
-0.0138193
-0.0138288
-0.0138599
-0.0138576
-0.0140059
-0.0137982
-0.0138232
-0.0138601
-0.0139033
-0.0140133
-0.0140246
-0.0139975
-0.0140098
-0.0140148
-0.0141014
-0.0106392
-0.0131027
-0.0132667
-0.0135889
-0.0137891
-0.013116
-0.013153
-0.013449
-0.013695
-0.0138187
-0.0132859
-0.013454
-0.013541
-0.0137012
-0.0138278
-0.0136089
-0.013704
-0.0137044
-0.0138106
-0.0138811
-0.0138065
-0.0138286
-0.0138323
-0.0138824
-0.0139494
-0.00636644
-0.0130963
-0.0137164
-0.0136958
-0.0139583
-0.0131129
-0.0129415
-0.0140248
-0.0137164
-0.0139112
-0.0137417
-0.0140276
-0.0138297
-0.0137683
-0.0139327
-0.0137187
-0.0137258
-0.0137716
-0.0138051
-0.0139183
-0.013977
-0.0139221
-0.0139376
-0.0139201
-0.0140199
-0.0152138
-0.0148709
-0.0137691
-0.0135426
-0.0137186
-0.0148082
-0.0135716
-0.0136008
-0.0136095
-0.0136895
-0.0137845
-0.0136046
-0.0135362
-0.0136002
-0.0136444
-0.0135611
-0.0136181
-0.0136034
-0.0136231
-0.0136797
-0.0137354
-0.013699
-0.0136488
-0.013681
-0.0137171
-0.0124345
-0.0130907
-0.0135255
-0.0135131
-0.0138414
-0.0130902
-0.0133608
-0.0134339
-0.0135813
-0.013697
-0.0135351
-0.0134367
-0.0136452
-0.0135951
-0.0137391
-0.0135256
-0.013588
-0.0135977
-0.0136352
-0.0137202
-0.0138549
-0.0137047
-0.0137427
-0.0137215
-0.0137998
-0.00744598
-0.0107735
-0.0126927
-0.0133161
-0.0131795
-0.0107751
-0.0122334
-0.0129777
-0.0132997
-0.0131966
-0.0126983
-0.0129805
-0.01302
-0.0132031
-0.0131868
-0.0133242
-0.0133046
-0.013205
-0.0132452
-0.0132474
-0.0131888
-0.0132021
-0.0131894
-0.0132482
-0.0132866
-0.0134269
-0.0134727
-0.0136645
-0.0134637
-0.013487
-0.0134736
-0.0132251
-0.0134318
-0.0134351
-0.0134044
-0.0136688
-0.0134338
-0.0134699
-0.0134185
-0.0133928
-0.0134694
-0.0134387
-0.0134198
-0.0133983
-0.0133843
-0.0134934
-0.0134087
-0.0133948
-0.013385
-0.0134201
-0.0132791
-0.0132556
-0.0127568
-0.0127681
-0.0127004
-0.013257
-0.0129361
-0.0127094
-0.0127642
-0.0126901
-0.0127595
-0.0127107
-0.0127046
-0.012722
-0.0126818
-0.0127719
-0.0127665
-0.012723
-0.0127214
-0.012691
-0.0127046
-0.0126929
-0.0126831
-0.0126914
-0.0126802
-0.0124276
-0.0129653
-0.0127249
-0.0128285
-0.0127816
-0.0129662
-0.01304
-0.0128429
-0.0128585
-0.012801
-0.0127267
-0.0128439
-0.0127889
-0.0128148
-0.0127902
-0.0128309
-0.0128602
-0.0128153
-0.0128167
-0.0127905
-0.0127844
-0.0128031
-0.0127911
-0.0127909
-0.0127766
-0.0117932
-0.0118769
-0.0117879
-0.011804
-0.0117645
-0.0118775
-0.0119067
-0.0118233
-0.0118153
-0.0117637
-0.0117892
-0.0118239
-0.011792
-0.0117796
-0.0117502
-0.0118058
-0.0118163
-0.01178
-0.0117661
-0.0117349
-0.0117664
-0.0117651
-0.0117508
-0.0117351
-0.0117187
-0.0113074
-0.0114738
-0.0113566
-0.0114106
-0.0114057
-0.0114742
-0.0114789
-0.0113992
-0.0114315
-0.0114205
-0.0113575
-0.0113997
-0.0113815
-0.0114179
-0.0114152
-0.0114117
-0.0114323
-0.0114181
-0.0114305
-0.0114231
-0.0114069
-0.0114214
-0.0114156
-0.0114233
-0.0114183
-0.00959084
-0.0096444
-0.00958578
-0.00960177
-0.00961014
-0.00964475
-0.00964839
-0.00959688
-0.00961632
-0.00962775
-0.0095864
-0.00959717
-0.00959254
-0.00963198
-0.00964609
-0.00960254
-0.00961676
-0.00963213
-0.00966355
-0.00967075
-0.00961097
-0.00962828
-0.00964631
-0.00967085
-0.00967842
-0.00900012
-0.00889968
-0.00872764
-0.00869814
-0.00868932
-0.0088999
-0.00880755
-0.00870529
-0.00869574
-0.00868866
-0.00872804
-0.00870551
-0.00867303
-0.00868186
-0.00868128
-0.00869865
-0.00869607
-0.00868196
-0.0086857
-0.0086831
-0.00868989
-0.00868907
-0.00868145
-0.00868318
-0.00868329
-0.00643161
-0.0063852
-0.00631933
-0.00627538
-0.00625629
-0.00638534
-0.00634592
-0.00628994
-0.00625001
-0.00623965
-0.00631963
-0.00629009
-0.00625239
-0.00621908
-0.00621393
-0.00627578
-0.00625025
-0.00621916
-0.00620213
-0.00619947
-0.00625674
-0.00623996
-0.00621407
-0.00619953
-0.00619662
-0.00542213
-0.00534007
-0.00521946
-0.00515607
-0.00512934
-0.00534018
-0.00526651
-0.00518413
-0.00514255
-0.00511637
-0.00521961
-0.00518416
-0.00513874
-0.00511177
-0.00509449
-0.00515626
-0.00514263
-0.00511182
-0.00509512
-0.00508143
-0.00512949
-0.00511643
-0.00509451
-0.00508141
-0.00507363
-0.0020908
-0.00213138
-0.00215793
-0.00213912
-0.00213967
-0.00213141
-0.00214815
-0.00216692
-0.00213396
-0.002126
-0.00215801
-0.00216698
-0.00214477
-0.00211567
-0.00210363
-0.00213918
-0.002134
-0.00211567
-0.00209706
-0.00209112
-0.00213973
-0.00212603
-0.00210369
-0.00209117
-0.0020897
-0.00144239
-0.00133987
-0.00120539
-0.00116811
-0.00114192
-0.00133999
-0.00127578
-0.00119411
-0.00116061
-0.00113745
-0.0012054
-0.00119404
-0.00116184
-0.00114502
-0.00112908
-0.00116814
-0.00116058
-0.00114506
-0.00113727
-0.00112508
-0.00114186
-0.00113733
-0.00112904
-0.00112501
-0.00111984
-0.0132386
-0.0132396
-0.0126076
-0.0124492
-0.0123206
-0.0123211
-0.0124744
-0.015352
-0.0153525
-0.0135739
-0.0141925
-0.0138294
-0.0138304
-0.0121081
-0.0115931
-0.011594
-0.013219
-0.0124059
-0.011646
-0.0116468
-0.0129994
-0.0128661
-0.0128623
-0.0130971
-0.00860411
-0.011742
-0.0117419
-0.0121519
-0.0128189
-0.0128735
-0.0128201
-0.0129405
-0.0125798
-0.0129965
-0.0125011
-0.0128742
-0.0128209
-0.0128215
-0.0129417
-0.0129972
-0.0125813
-0.0125022
-0.0159708
-0.0159107
-0.0146985
-0.0143895
-0.0131577
-0.0131391
-0.01224
-0.0130475
-0.0133034
-0.0133037
-0.0133624
-0.0132516
-0.0132508
-0.0132509
-0.0137008
-0.0133074
-0.013115
-0.0125832
-0.0136077
-0.0125182
-0.0135154
-0.0137014
-0.0133082
-0.0131157
-0.012584
-0.0136082
-0.0125188
-0.0135161
-0.0138032
-0.0137952
-0.0130065
-0.0138223
-0.0143255
-0.014244
-0.0142308
-0.0141067
-0.0144184
-0.0136775
-0.0144201
-0.0129085
-0.0139351
-0.012645
-0.0144082
-0.0140768
-0.0136672
-0.014401
-0.0139277
-0.0128964
-0.0126403
-0.014775
-0.0124476
-0.0140708
-0.0143913
-0.0142676
-0.0139222
-0.0146172
-0.0147601
-0.0124361
-0.0140642
-0.0143815
-0.0142386
-0.0139059
-0.014593
-0.0135011
-0.013497
-0.0147486
-0.0146978
-0.0135199
-0.0141981
-0.0141919
-0.0139079
-0.0139081
-0.0136277
-0.0143334
-0.0141623
-0.014256
-0.0142562
-0.013576
-0.0134683
-0.0134103
-0.0139092
-0.0133184
-0.0136894
-0.0131021
-0.0134691
-0.0135793
-0.013412
-0.0139106
-0.0136903
-0.0133211
-0.0131038
-0.0142618
-0.0135168
-0.0140776
-0.0144212
-0.0146094
-0.014334
-0.0143936
-0.0142625
-0.0135175
-0.014078
-0.0144217
-0.0146102
-0.0143345
-0.0143942
-0.0130214
-0.0130239
-0.0131204
-0.0150004
-0.0170357
-0.0169707
-0.0152848
-0.0148237
-0.0155303
-0.0155079
-0.0148237
-0.0157268
-0.0149502
-0.0149323
-0.0134459
-0.0134462
-0.0154283
-0.0152225
-0.0134728
-0.0137796
-0.0137798
-0.0153528
-0.0161541
-0.0158019
-0.0149157
-0.0160067
-0.0145629
-0.0158471
-0.0153388
-0.0161104
-0.0157758
-0.0148702
-0.0159902
-0.0145391
-0.0158125
-0.0155909
-0.0149899
-0.014982
-0.0139205
-0.0164287
-0.0146178
-0.01461
-0.0143916
-0.0136356
-0.0136358
-0.0139746
-0.01394
-0.0141464
-0.0141466
-0.0146033
-0.014115
-0.0146886
-0.0156547
-0.0144824
-0.0153435
-0.014376
-0.0146035
-0.0141155
-0.0146893
-0.0156554
-0.0144829
-0.015344
-0.0143764
-0.0133152
-0.0138603
-0.0131496
-0.0136166
-0.0136455
-0.0136232
-0.0136936
-0.0138614
-0.0133173
-0.0131512
-0.0136182
-0.0136465
-0.0136249
-0.0136959
-0.0155056
-0.015482
-0.0159712
-0.0154475
-0.0138278
-0.0146181
-0.014599
-0.0134008
-0.012891
-0.0132312
-0.0150705
-0.0141008
-0.014439
-0.0139664
-0.0128902
-0.0134049
-0.0132328
-0.0150083
-0.0144326
-0.0140514
-0.0139548
-0.0147586
-0.015438
-0.0149911
-0.0132626
-0.0145901
-0.0144455
-0.0135022
-0.0147267
-0.0153915
-0.0149631
-0.0132348
-0.0145414
-0.0144157
-0.0134633
-0.0155226
-0.0140062
-0.0140066
-0.0135901
-0.015515
-0.0140127
-0.0140131
-0.016417
-0.0164097
-0.016735
-0.0172034
-0.0150089
-0.0147079
-0.0161414
-0.0163719
-0.0163841
-0.0167186
-0.0171894
-0.0149544
-0.0146868
-0.0161051
-0.0159001
-0.0158925
-0.0176585
-0.0166481
-0.0143895
-0.0158717
-0.0158686
-0.0125345
-0.0125347
-0.0128779
-0.0110583
-0.0109709
-0.0109507
-0.0109509
-0.0134378
-0.0121617
-0.0135353
-0.012855
-0.0127218
-0.0129986
-0.0127143
-0.0121631
-0.0134409
-0.0135372
-0.0128564
-0.0129993
-0.0127252
-0.0127164
-0.0135867
-0.0137215
-0.0136816
-0.0135407
-0.0134159
-0.0136391
-0.0137228
-0.0135891
-0.013723
-0.0136831
-0.0135427
-0.0134182
-0.0136412
-0.0137252
-0.0127744
-0.012238
-0.013609
-0.010937
-0.0101411
-0.0116058
-0.0112013
-0.0127751
-0.0122389
-0.0136101
-0.0109371
-0.0101424
-0.0116066
-0.0112018
-0.0118479
-0.0118508
-0.01255
-0.00582228
-0.0115025
-0.0115071
-0.0126105
-0.0130111
-0.00742088
-0.00741958
-0.0111265
-0.0100528
-0.0121797
-0.0121699
-0.0132222
-0.0132225
-0.0128898
-0.00938568
-0.0128385
-0.0122975
-0.0122981
-0.0143525
-0.010661
-0.0134836
-0.0122148
-0.0117115
-0.0130954
-0.0148282
-0.0143428
-0.01066
-0.0134809
-0.0121953
-0.0116822
-0.0130944
-0.0148091
-0.0150264
-0.0142414
-0.0139282
-0.0157239
-0.0156551
-0.0136107
-0.0139408
-0.0149978
-0.0141933
-0.0138988
-0.0156833
-0.0156359
-0.01359
-0.0139078
-0.013112
-0.0132221
-0.0132284
-0.0135456
-0.0121424
-0.0142506
-0.014252
-0.0110977
-0.0081955
-0.00819565
-0.00912667
-0.00784746
-0.00911549
-0.00911556
-0.00884313
-0.00839106
-0.0121544
-0.0105375
-0.00940671
-0.0116164
-0.00889887
-0.00884269
-0.00839168
-0.0121552
-0.010539
-0.00940661
-0.0116174
-0.00889925
-0.0129821
-0.0122684
-0.0124076
-0.011964
-0.0120547
-0.0125413
-0.0123341
-0.012984
-0.0122707
-0.0124099
-0.0119652
-0.0120556
-0.012543
-0.012336
-0.00961996
-0.011931
-0.0119314
-0.0125291
-0.0102772
-0.0118567
-0.0118574
-0.0082933
-0.00829472
-0.00830516
-0.0104662
-0.00771853
-0.00921719
-0.0092131
-0.0128927
-0.0131638
-0.0129386
-0.0124031
-0.0133636
-0.0127355
-0.0133726
-0.0131693
-0.0129059
-0.012947
-0.0124181
-0.0127414
-0.0133776
-0.0133798
-0.0128085
-0.0145612
-0.0139927
-0.0134733
-0.013177
-0.0130784
-0.0134048
-0.0128063
-0.0145536
-0.0139892
-0.0134749
-0.0132027
-0.013087
-0.013411
-0.00887047
-0.0117456
-0.00964971
-0.0117482
-0.0123982
-0.0124145
-0.0113924
-0.00885858
-0.0117678
-0.00964918
-0.011767
-0.0124007
-0.0124143
-0.0113934
-0.0134536
-0.0134543
-0.013324
-0.013279
-0.0133111
-0.0133116
-0.0131323
-0.0133405
-0.013492
-0.0136683
-0.013423
-0.0134821
-0.0135344
-0.0133571
-0.0133423
-0.0134929
-0.0136697
-0.0134245
-0.0134841
-0.0135356
-0.0133585
-0.013097
-0.0130977
-0.0133961
-0.0125451
-0.0132725
-0.0132734
-0.0131281
-0.0123727
-0.0128863
-0.0128358
-0.012579
-0.0115213
-0.0126573
-0.0128573
-0.0123743
-0.0128877
-0.0128379
-0.0125794
-0.0115221
-0.0126586
-0.0128582
-0.0123819
-0.0123828
-0.0110345
-0.0126765
-0.0123951
-0.0127667
-0.0127587
-0.00930927
-0.00930839
-0.00829233
-0.0143092
-0.0121019
-0.0124331
-0.0124321
)
;

boundaryField
{
    inlet
    {
        type            fixedValue;
        value           uniform 0;
    }
    wall
    {
        type            zeroGradient;
    }
    outlet
    {
        type            fixedValue;
        value           uniform 0;
    }
    procBoundary3to1
    {
        type            processor;
        value           nonuniform List<scalar> 
320
(
-0.000407016
-0.000407045
-0.000407016
-0.000407049
-0.000407107
-0.000786297
-0.00078627
-0.000786246
-0.000786241
-0.000786212
-0.00191058
-0.00191054
-0.00191048
-0.0019105
-0.00191056
-0.00243681
-0.00243674
-0.0024367
-0.00243671
-0.00243677
-0.00349821
-0.00349811
-0.00349808
-0.00349813
-0.0034983
-0.00409329
-0.00409318
-0.00409319
-0.00409328
-0.00409356
-0.00509032
-0.00509019
-0.00509024
-0.0050904
-0.00509086
-0.00573927
-0.00573919
-0.00573935
-0.00573962
-0.00574037
-0.00668151
-0.00668144
-0.0066817
-0.00668212
-0.00668323
-0.00736954
-0.00736949
-0.00737001
-0.00737071
-0.00737248
-0.00826442
-0.00826436
-0.00826504
-0.008266
-0.00826846
-0.00897521
-0.00897523
-0.00897647
-0.00897794
-0.00898172
-0.00982516
-0.00982512
-0.00982645
-0.00982809
-0.00983291
-0.0105402
-0.0105399
-0.0105417
-0.0105434
-0.0105501
-0.0113479
-0.0113442
-0.0113421
-0.0113401
-0.0113458
-0.0120652
-0.0120483
-0.0120273
-0.0120178
-0.0120225
-0.0127204
-0.0127128
-0.0127044
-0.0126924
-0.0126962
-0.0131751
-0.0131797
-0.0131849
-0.0131897
-0.0132008
-0.013509
-0.0135275
-0.0135478
-0.0135708
-0.0136048
-0.013597
-0.0136488
-0.0136991
-0.0137617
-0.0138395
-0.0136056
-0.0137351
-0.0137903
-0.0138841
-0.0139928
-0.0136341
-0.013708
-0.0137909
-0.0138807
-0.0140395
-0.0131584
-0.0136329
-0.0136761
-0.0138567
-0.0139948
-0.0134616
-0.0137617
-0.0138261
-0.0138081
-0.0140447
-0.0106583
-0.0131196
-0.0133138
-0.0136295
-0.0138408
-0.00632421
-0.0130778
-0.0137492
-0.0137323
-0.0140059
-0.0152205
-0.014868
-0.0138183
-0.013598
-0.0137676
-0.012335
-0.0132003
-0.013552
-0.0135432
-0.0138699
-0.00768077
-0.0107174
-0.0127172
-0.0133419
-0.0132103
-0.0134547
-0.0135183
-0.0136649
-0.0134882
-0.0135054
-0.0132804
-0.0132751
-0.0127667
-0.0127879
-0.0127192
-0.0124463
-0.0129809
-0.0127423
-0.0128391
-0.012795
-0.0117841
-0.0118765
-0.0117904
-0.011811
-0.0117726
-0.0113123
-0.0114769
-0.0113594
-0.0114107
-0.0114038
-0.00959143
-0.00964481
-0.00958806
-0.00960175
-0.00960966
-0.00900257
-0.00890581
-0.00873035
-0.00869744
-0.00868619
-0.00643578
-0.00639305
-0.00632541
-0.00627619
-0.00625655
-0.00542633
-0.00535584
-0.00522711
-0.00515519
-0.00512908
-0.0020913
-0.00213888
-0.00216163
-0.00214435
-0.00214382
-0.00143755
-0.00132736
-0.00120066
-0.001171
-0.00114497
-0.0124522
-0.0123211
-0.0132414
-0.0141918
-0.0138183
-0.0153585
-0.0124842
-0.0115921
-0.0115847
-0.00897244
-0.0117326
-0.0128814
-0.0129702
-0.0126093
-0.0128405
-0.0144187
-0.0131621
-0.0159699
-0.0133608
-0.0132529
-0.013307
-0.0133095
-0.0135162
-0.0125853
-0.0138372
-0.0142763
-0.0143661
-0.014404
-0.0129356
-0.0140909
-0.0142782
-0.0146256
-0.0147835
-0.0139064
-0.0142556
-0.0141644
-0.0139048
-0.0133559
-0.0135844
-0.0146122
-0.0143921
-0.0142605
-0.0149984
-0.0170331
-0.0130209
-0.0148472
-0.014971
-0.0155311
-0.0161461
-0.0158404
-0.0149327
-0.0139825
-0.0141471
-0.013651
-0.014125
-0.0143648
-0.0156245
-0.0133089
-0.0136927
-0.0136296
-0.0154964
-0.0146067
-0.013821
-0.0150664
-0.0141053
-0.0133915
-0.0154461
-0.0134978
-0.01458
-0.014992
-0.0161206
-0.0164032
-0.0125622
-0.0110253
-0.0111958
-0.0128126
-0.0127476
-0.013454
-0.0137212
-0.0137118
-0.0135445
-0.0101445
-0.0111649
-0.0127494
-0.00576888
-0.011489
-0.0118428
-0.0111125
-0.0121744
-0.00741945
-0.0106689
-0.0148263
-0.0121918
-0.0142314
-0.0139183
-0.0157098
-0.0096594
-0.00924613
-0.00830186
-0.00838975
-0.00883155
-0.010531
-0.0122592
-0.0123306
-0.0119591
-0.00829501
-0.00920436
-0.0076807
-0.0124014
-0.013398
-0.0129156
-0.0145558
-0.0133933
-0.0131609
-0.012394
-0.0113788
-0.00885144
-0.00946383
-0.0124408
-0.012325
)
;
    }
    procBoundary3to2
    {
        type            processor;
        value           nonuniform List<scalar> 
320
(
-0.000407019
-0.000407046
-0.000407021
-0.000407053
-0.000407115
-0.0007863
-0.000786275
-0.000786253
-0.000786249
-0.000786224
-0.00191058
-0.00191055
-0.0019105
-0.00191051
-0.00191058
-0.00243681
-0.00243675
-0.00243672
-0.00243673
-0.0024368
-0.00349822
-0.00349813
-0.00349811
-0.00349816
-0.00349834
-0.00409331
-0.00409321
-0.00409323
-0.00409333
-0.00409362
-0.00509034
-0.00509022
-0.00509029
-0.00509046
-0.00509093
-0.0057393
-0.00573925
-0.00573942
-0.00573971
-0.00574047
-0.00668155
-0.00668151
-0.00668179
-0.00668223
-0.00668336
-0.00736959
-0.00736958
-0.00737014
-0.00737087
-0.00737267
-0.00826448
-0.00826447
-0.00826521
-0.0082662
-0.00826869
-0.0089753
-0.00897539
-0.00897671
-0.00897822
-0.00898206
-0.00982527
-0.00982532
-0.00982675
-0.00982845
-0.00983333
-0.0105404
-0.0105402
-0.0105421
-0.0105439
-0.0105507
-0.0113481
-0.0113446
-0.0113427
-0.0113408
-0.0113466
-0.0120655
-0.0120489
-0.0120282
-0.0120189
-0.0120237
-0.0127208
-0.0127136
-0.0127056
-0.0126938
-0.0126977
-0.0131759
-0.013181
-0.0131867
-0.0131918
-0.0132031
-0.0135099
-0.0135292
-0.0135502
-0.0135736
-0.0136079
-0.0135984
-0.0136514
-0.0137026
-0.0137658
-0.0138441
-0.0136076
-0.0137389
-0.0137951
-0.0138896
-0.0139988
-0.0136378
-0.0137145
-0.0137982
-0.0138889
-0.0140483
-0.0131647
-0.0136444
-0.0136868
-0.0138685
-0.0140068
-0.0134742
-0.013786
-0.0138443
-0.0138269
-0.0140627
-0.0106647
-0.0131533
-0.0133586
-0.0136607
-0.0138643
-0.00632261
-0.0131286
-0.0138402
-0.0137639
-0.0140293
-0.0151986
-0.0147422
-0.013865
-0.0136254
-0.0137899
-0.0123302
-0.0132001
-0.0135669
-0.0135623
-0.0138873
-0.00768037
-0.0107193
-0.0127265
-0.0133537
-0.0132227
-0.0134548
-0.0135199
-0.0136702
-0.0134959
-0.0135137
-0.0132809
-0.0132771
-0.0127708
-0.0127931
-0.012725
-0.0124474
-0.012983
-0.0127453
-0.0128429
-0.0127992
-0.0117849
-0.0118779
-0.0117926
-0.0118136
-0.0117755
-0.0113128
-0.0114779
-0.0113609
-0.0114124
-0.0114058
-0.00959177
-0.00964548
-0.00958902
-0.00960288
-0.00961088
-0.00900275
-0.00890626
-0.00873102
-0.00869824
-0.00868707
-0.00643587
-0.00639334
-0.00632588
-0.00627678
-0.00625722
-0.00542637
-0.00535599
-0.00522731
-0.00515545
-0.00512929
-0.00209134
-0.00213894
-0.00216179
-0.00214449
-0.00214397
-0.00143745
-0.00132729
-0.00120055
-0.00117095
-0.00114481
-0.0132427
-0.0123222
-0.0124528
-0.0153593
-0.0138197
-0.0141922
-0.0115856
-0.0115934
-0.0124843
-0.0128745
-0.0117309
-0.00897182
-0.012843
-0.0126115
-0.012972
-0.0158497
-0.013135
-0.0144105
-0.0133077
-0.0132534
-0.0133612
-0.0125866
-0.0135171
-0.0133104
-0.0143535
-0.0142494
-0.0138208
-0.0140691
-0.012923
-0.0143719
-0.0147604
-0.0145857
-0.0142336
-0.0141646
-0.0142561
-0.013907
-0.0135887
-0.0133591
-0.0139065
-0.0142615
-0.014393
-0.0146134
-0.0130271
-0.0168839
-0.014975
-0.0154813
-0.0149331
-0.0148299
-0.0148548
-0.0157789
-0.016062
-0.0136514
-0.0141475
-0.0139827
-0.0156257
-0.0143654
-0.0141256
-0.0136315
-0.0136953
-0.0133113
-0.0138017
-0.0145616
-0.0154416
-0.0134449
-0.0140995
-0.0148997
-0.014489
-0.0134409
-0.0153708
-0.016308
-0.0160418
-0.0148503
-0.0111958
-0.0110253
-0.0125626
-0.0134564
-0.012752
-0.0128144
-0.0135474
-0.0137147
-0.0137233
-0.0127502
-0.0111655
-0.010146
-0.0118581
-0.0115085
-0.00577013
-0.00741862
-0.012154
-0.0111025
-0.0121481
-0.0147962
-0.0106667
-0.0155606
-0.013833
-0.0141076
-0.00830174
-0.00924551
-0.00965909
-0.0105324
-0.00883143
-0.00839039
-0.0119604
-0.0123327
-0.0122618
-0.00768663
-0.00921006
-0.00829855
-0.0129394
-0.0134219
-0.0124469
-0.013232
-0.0134225
-0.0145417
-0.00885777
-0.0113946
-0.0124121
-0.012324
-0.0124388
-0.0094626
)
;
    }
}


// ************************************************************************* //
