/*--------------------------------*- C++ -*----------------------------------*\
| =========                 |                                                 |
| \\      /  F ield         | OpenFOAM: The Open Source CFD Toolbox           |
|  \\    /   O peration     | Version:  5.x                                   |
|   \\  /    A nd           | Web:      www.OpenFOAM.org                      |
|    \\/     M anipulation  |                                                 |
\*---------------------------------------------------------------------------*/
FoamFile
{
    version     2.0;
    format      ascii;
    class       volVectorField;
    location    "0.096";
    object      U;
}
// * * * * * * * * * * * * * * * * * * * * * * * * * * * * * * * * * * * * * //

dimensions      [0 1 -1 0 0 0 0];

internalField   nonuniform List<vector> 
1539
(
(-5.21658e-05 -5.09806e-05 0.0605512)
(-1.46036e-05 -5.32328e-05 0.0605546)
(-5.07089e-06 -5.88908e-05 0.0605566)
(2.47381e-05 -6.04549e-05 0.0605682)
(2.83833e-05 -6.6314e-05 0.0606079)
(-5.44252e-05 -1.34241e-05 0.0605545)
(-1.68544e-05 -1.56696e-05 0.060559)
(-7.18231e-06 -2.17051e-05 0.0605607)
(2.24605e-05 -2.33173e-05 0.0605731)
(2.6431e-05 -2.97029e-05 0.0606116)
(-6.00726e-05 -4.0848e-06 0.0605568)
(-2.28847e-05 -6.19291e-06 0.060561)
(-1.27186e-05 -1.17309e-05 0.0605606)
(1.67392e-05 -1.3272e-05 0.0605727)
(2.18789e-05 -1.91259e-05 0.0606086)
(-6.16438e-05 2.5708e-05 0.0605684)
(-2.45005e-05 2.34263e-05 0.0605732)
(-1.42614e-05 1.77104e-05 0.0605726)
(1.50644e-05 1.60273e-05 0.0605849)
(2.04672e-05 9.89457e-06 0.0606195)
(-6.75023e-05 2.90021e-05 0.0606084)
(-3.08811e-05 2.70476e-05 0.060612)
(-2.01166e-05 2.25026e-05 0.0606088)
(8.92329e-06 2.10825e-05 0.0606198)
(1.56289e-05 1.62441e-05 0.0606504)
(-3.32412e-05 -3.19944e-05 -0.0384681)
(-2.78704e-05 -3.39169e-05 -0.03847)
(-2.37001e-05 -3.62259e-05 -0.0384695)
(-2.73027e-05 -3.75369e-05 -0.038472)
(-1.69492e-05 -3.93775e-05 -0.0384778)
(-3.51635e-05 -2.66574e-05 -0.03847)
(-2.97361e-05 -2.85239e-05 -0.0384722)
(-2.527e-05 -3.08007e-05 -0.0384718)
(-2.86044e-05 -3.20702e-05 -0.0384746)
(-1.7667e-05 -3.3845e-05 -0.0384803)
(-3.74735e-05 -2.26441e-05 -0.0384694)
(-3.20137e-05 -2.42147e-05 -0.0384718)
(-2.72464e-05 -2.61908e-05 -0.0384716)
(-3.03475e-05 -2.72498e-05 -0.0384744)
(-1.87691e-05 -2.87485e-05 -0.0384801)
(-3.87877e-05 -2.63013e-05 -0.0384719)
(-3.32827e-05 -2.76043e-05 -0.0384744)
(-2.83051e-05 -2.93561e-05 -0.0384743)
(-3.11627e-05 -3.01613e-05 -0.0384772)
(-1.92057e-05 -3.13441e-05 -0.0384829)
(-4.06331e-05 -1.63352e-05 -0.0384776)
(-3.50679e-05 -1.70543e-05 -0.0384802)
(-2.98029e-05 -1.81655e-05 -0.03848)
(-3.23355e-05 -1.85922e-05 -0.0384829)
(-1.99877e-05 -1.93742e-05 -0.0384881)
(-5.38426e-05 -5.25111e-05 0.0479247)
(-1.58944e-05 -5.53705e-05 0.0479259)
(-6.78289e-06 -6.14221e-05 0.0479378)
(1.70419e-05 -6.34135e-05 0.0479429)
(2.31706e-05 -6.92708e-05 0.0479752)
(-5.66958e-05 -1.45893e-05 0.047926)
(-1.86737e-05 -1.73663e-05 0.0479273)
(-9.32641e-06 -2.38069e-05 0.0479385)
(1.45139e-05 -2.57366e-05 0.0479437)
(2.11963e-05 -3.20779e-05 0.047975)
(-6.27629e-05 -5.66901e-06 0.0479382)
(-2.5112e-05 -8.2026e-06 0.0479388)
(-1.51532e-05 -1.40373e-05 0.0479478)
(8.76958e-06 -1.5753e-05 0.0479524)
(1.67014e-05 -2.16301e-05 0.0479815)
(-6.47394e-05 1.81186e-05 0.0479434)
(-2.7042e-05 1.559e-05 0.047944)
(-1.68768e-05 9.83921e-06 0.0479525)
(6.91987e-06 8.00476e-06 0.0479571)
(1.52005e-05 2.14003e-06 0.0479854)
(-7.06103e-05 2.38405e-05 0.0479759)
(-3.339e-05 2.1858e-05 0.0479757)
(-2.27372e-05 1.73647e-05 0.0479818)
(1.07041e-06 1.5879e-05 0.0479857)
(1.07129e-05 1.13914e-05 0.0480111)
(-4.44271e-05 -4.28083e-05 -0.0261823)
(-1.49526e-05 -4.5076e-05 -0.0261834)
(-6.8085e-06 -4.997e-05 -0.0261717)
(9.91165e-06 -5.1582e-05 -0.0261699)
(1.68678e-05 -5.62218e-05 -0.0261488)
(-4.67033e-05 -1.33408e-05 -0.0261832)
(-1.73494e-05 -1.57362e-05 -0.0261848)
(-9.02053e-06 -2.0897e-05 -0.0261736)
(7.74128e-06 -2.26366e-05 -0.0261721)
(1.51852e-05 -2.76276e-05 -0.0261517)
(-5.15871e-05 -5.40613e-06 -0.0261713)
(-2.25089e-05 -7.63709e-06 -0.0261734)
(-1.37089e-05 -1.2299e-05 -0.0261641)
(3.17972e-06 -1.39258e-05 -0.0261633)
(1.17624e-05 -1.85131e-05 -0.0261448)
(-5.32231e-05 1.12472e-05 -0.0261694)
(-2.42422e-05 9.07379e-06 -0.0261718)
(-1.53093e-05 4.50428e-06 -0.0261632)
(1.52582e-06 2.87101e-06 -0.0261626)
(1.049e-05 -1.88976e-06 -0.0261447)
(-5.785e-05 1.77523e-05 -0.0261481)
(-2.92504e-05 1.60868e-05 -0.0261511)
(-1.99103e-05 1.26296e-05 -0.0261445)
(-3.21433e-06 1.13779e-05 -0.0261444)
(6.88658e-06 7.77441e-06 -0.0261286)
(-6.14663e-05 -5.97157e-05 0.0371804)
(-5.16082e-06 -6.37463e-05 0.037181)
(6.88174e-06 -7.18415e-05 0.0372059)
(4.02519e-05 -7.46415e-05 0.0372122)
(4.58335e-05 -8.26524e-05 0.0372614)
(-6.54585e-05 -3.49205e-06 0.0371812)
(-8.95657e-06 -7.22819e-06 0.0371817)
(3.50989e-06 -1.61386e-05 0.0372053)
(3.67681e-05 -1.9028e-05 0.0372114)
(4.31756e-05 -2.7948e-05 0.0372591)
(-7.35846e-05 8.31409e-06 0.0372066)
(-1.78074e-05 4.98564e-06 0.0372057)
(-4.9181e-06 -3.45648e-06 0.0372262)
(2.84402e-05 -6.08633e-06 0.0372313)
(3.67131e-05 -1.44809e-05 0.0372759)
(-7.63627e-05 4.16889e-05 0.037213)
(-2.07271e-05 3.81699e-05 0.0372119)
(-7.56208e-06 2.98249e-05 0.0372315)
(2.57414e-05 2.72014e-05 0.0372362)
(3.45894e-05 1.85727e-05 0.0372795)
(-8.44057e-05 4.67474e-05 0.0372627)
(-2.96692e-05 4.40704e-05 0.0372601)
(-1.58842e-05 3.76048e-05 0.0372765)
(1.7188e-05 3.55566e-05 0.0372799)
(2.78788e-05 2.88459e-05 0.0373194)
(-5.90541e-05 -5.67904e-05 -0.0169731)
(1.03064e-05 -6.00827e-05 -0.0169728)
(2.41609e-05 -6.90704e-05 -0.0169398)
(6.50948e-05 -7.15599e-05 -0.0169321)
(6.84661e-05 -8.02019e-05 -0.0168722)
(-6.23652e-05 1.25972e-05 -0.0169726)
(6.51048e-06 8.76985e-06 -0.0169723)
(2.04075e-05 -7.73462e-07 -0.0169411)
(6.12413e-05 -3.71917e-06 -0.0169335)
(6.52538e-05 -1.32582e-05 -0.0168753)
(-7.13632e-05 2.61785e-05 -0.0169391)
(-3.06418e-06 2.23405e-05 -0.0169406)
(1.16719e-05 1.37192e-05 -0.0169139)
(5.2607e-05 1.07086e-05 -0.0169077)
(5.86953e-05 1.70432e-06 -0.0168542)
(-7.39048e-05 6.70136e-05 -0.0169313)
(-5.94885e-06 6.32013e-05 -0.0169329)
(8.77559e-06 5.44832e-05 -0.0169076)
(4.92234e-05 5.11757e-05 -0.0169016)
(5.60239e-05 4.14064e-05 -0.0168496)
(-8.2469e-05 6.9778e-05 -0.016871)
(-1.55916e-05 6.66599e-05 -0.0168744)
(-3.50622e-07 5.99031e-05 -0.0168534)
(3.95303e-05 5.73079e-05 -0.0168492)
(4.86726e-05 4.99567e-05 -0.0168028)
(-7.53329e-05 -7.29912e-05 0.0289198)
(2.83366e-05 -7.83566e-05 0.0289233)
(4.77871e-05 -9.1818e-05 0.0289791)
(0.000108367 -9.55635e-05 0.0289936)
(0.000109536 -0.000108695 0.0290918)
(-8.07555e-05 3.07014e-05 0.0289236)
(2.28161e-05 2.51817e-05 0.0289266)
(4.26308e-05 1.00204e-05 0.0289802)
(0.000103088 5.60622e-06 0.0289943)
(0.000105156 -9.68242e-06 0.0290909)
(-9.41972e-05 4.98646e-05 0.0289801)
(7.65563e-06 4.46911e-05 0.028981)
(2.82117e-05 3.03009e-05 0.0290285)
(8.86596e-05 2.60514e-05 0.0290406)
(9.3866e-05 1.1389e-05 0.0291297)
(-9.79703e-05 0.000110376 0.0289949)
(3.25231e-06 0.000104919 0.0289954)
(2.3991e-05 9.08061e-05 0.0290407)
(8.41714e-05 8.61745e-05 0.0290524)
(9.01166e-05 7.03041e-05 0.0291396)
(-0.000111234 0.000110924 0.0290938)
(-1.19093e-05 0.000106382 0.0290926)
(9.47274e-06 9.53813e-05 0.0291307)
(6.81576e-05 9.14881e-05 0.0291403)
(7.75762e-05 7.89477e-05 0.0292193)
(-7.57538e-05 -7.23898e-05 -0.010274)
(6.92219e-05 -7.72266e-05 -0.0102689)
(9.41054e-05 -9.29154e-05 -0.0101913)
(0.000177362 -9.68858e-05 -0.0101699)
(0.000171488 -0.000111526 -0.0100354)
(-8.05623e-05 7.26019e-05 -0.0102689)
(6.28052e-05 6.62005e-05 -0.0102639)
(8.77676e-05 4.84348e-05 -0.0101888)
(0.00017154 4.30253e-05 -0.0101683)
(0.000166612 2.44921e-05 -0.010036)
(-9.62554e-05 9.70783e-05 -0.0101903)
(4.50548e-05 9.07711e-05 -0.010188)
(7.09303e-05 7.39228e-05 -0.0101224)
(0.000153413 6.84587e-05 -0.0101044)
(0.000152477 5.0085e-05 -0.00998335)
(-0.000100241 0.000180264 -0.0101688)
(3.96495e-05 0.000174433 -0.0101674)
(6.54551e-05 0.000156241 -0.0101042)
(0.000147694 0.000150551 -0.0100872)
(0.000147755 0.000130802 -0.00996898)
(-0.000114884 0.000173564 -0.0100336)
(2.10384e-05 0.000168664 -0.0100343)
(4.70556e-05 0.000154474 -0.00998266)
(0.000127975 0.000149781 -0.00996826)
(0.000132181 0.000134206 -0.00986236)
(-9.31874e-05 -9.0094e-05 0.0226166)
(0.000111404 -9.76319e-05 0.0226313)
(0.000147302 -0.000120274 0.0227567)
(0.00026508 -0.000126382 0.0227955)
(0.000251903 -0.000148329 0.0230032)
(-0.000101026 0.000114731 0.0226319)
(0.000103274 0.000106478 0.0226448)
(0.000138694 7.92401e-05 0.022766)
(0.00025669 7.14745e-05 0.0228035)
(0.00024521 4.26788e-05 0.0230073)
(-0.00012358 0.00015041 0.0227584)
(7.59135e-05 0.000141671 0.0227673)
(0.000112298 0.00011527 0.0228769)
(0.000228508 0.000107483 0.0229096)
(0.000222317 7.87688e-05 0.0230995)
(-0.000129752 0.000267914 0.0227975)
(6.8134e-05 0.000259531 0.0228052)
(0.000104506 0.000231347 0.0229099)
(0.000220176 0.000223033 0.0229409)
(0.000215686 0.000191775 0.023125)
(-0.000151696 0.000253963 0.0230066)
(3.93566e-05 0.000247286 0.0230101)
(7.58122e-05 0.000224395 0.0231011)
(0.000188936 0.000217782 0.0231262)
(0.000190125 0.000192221 0.0232931)
(-8.69422e-05 -8.18799e-05 -0.00574977)
(0.000208829 -9.15934e-05 -0.00572577)
(0.000257738 -0.000117689 -0.00555449)
(0.000423303 -0.000124955 -0.00549578)
(0.00038929 -0.000150635 -0.00520934)
(-9.66383e-05 0.000213894 -0.00572526)
(0.000196405 0.000201672 -0.0057051)
(0.000245883 0.000168252 -0.00553859)
(0.000412296 0.000156687 -0.00548303)
(0.000380497 0.00012042 -0.00519991)
(-0.000122701 0.000262106 -0.00555322)
(0.000163187 0.000250588 -0.00553759)
(0.000212754 0.000217334 -0.00538838)
(0.000375454 0.000205416 -0.00533858)
(0.000352014 0.000167279 -0.00507818)
(-0.000129943 0.000427871 -0.00549431)
(0.000151633 0.000416669 -0.00548174)
(0.00020071 0.000379881 -0.00533841)
(0.000362223 0.000366643 -0.0052922)
(0.000341284 0.000324389 -0.00503933)
(-0.000155802 0.00039272 -0.00520685)
(0.000115213 0.000383594 -0.00519771)
(0.000162747 0.00035529 -0.00507706)
(0.000319962 0.000344554 -0.00503832)
(0.000308506 0.000311776 -0.00481141)
(-0.000104179 -9.96457e-05 0.0175935)
(0.000307297 -0.000113713 0.0176495)
(0.000378001 -0.000151605 0.0179275)
(0.000611612 -0.000162854 0.0180357)
(0.00055441 -0.000200675 0.0184814)
(-0.000118351 0.000311901 0.0176502)
(0.000290538 0.000295248 0.0177029)
(0.000361454 0.000245891 0.017969)
(0.000596722 0.000229185 0.0180721)
(0.000544174 0.000174285 0.0185013)
(-0.000156199 0.000382076 0.0179302)
(0.000241287 0.000365722 0.017971)
(0.000311939 0.000316083 0.0182126)
(0.000539979 0.000298917 0.0183033)
(0.000497772 0.000239875 0.0187049)
(-0.000167474 0.000615659 0.018039)
(0.000224544 0.000600766 0.0180745)
(0.000294648 0.000543942 0.0183038)
(0.000520482 0.000524527 0.0183882)
(0.000483265 0.000459054 0.0187723)
(-0.000205386 0.000557497 0.0184864)
(0.000169597 0.000547174 0.0185062)
(0.000235731 0.000500813 0.0187074)
(0.000455091 0.000486388 0.0187744)
(0.000430107 0.000433231 0.0191204)
(-6.82683e-05 -6.07031e-05 -0.00325773)
(0.000542005 -7.72629e-05 -0.00317484)
(0.000642992 -0.000125952 -0.00281034)
(0.000976488 -0.000140267 -0.00264873)
(0.000856434 -0.000191226 -0.00204253)
(-8.49039e-05 0.000549806 -0.00317458)
(0.000514456 0.000522407 -0.00310117)
(0.00061414 0.000452725 -0.00274618)
(0.000943922 0.000423662 -0.00259483)
(0.00083071 0.000343319 -0.00200579)
(-0.00013361 0.000650061 -0.00280878)
(0.000444923 0.000621306 -0.00274475)
(0.00054425 0.000551342 -0.00242306)
(0.00086704 0.000520792 -0.00228639)
(0.000773748 0.000437592 -0.00174034)
(-0.000148014 0.00098334 -0.00264688)
(0.000415735 0.000951134 -0.00259329)
(0.000513625 0.000873948 -0.00228626)
(0.000830121 0.000837169 -0.00216252)
(0.000744986 0.000740321 -0.00163889)
(-0.000198939 0.000861565 -0.00203967)
(0.000335573 0.000836256 -0.00200263)
(0.000430335 0.000779061 -0.00173888)
(0.000733413 0.00075044 -0.00163747)
(0.000673876 0.00067933 -0.00116797)
(-7.43656e-05 -6.83296e-05 0.0129416)
(0.000755695 -9.39628e-05 0.0131327)
(0.000905241 -0.000160141 0.0137559)
(0.00138176 -0.000183656 0.0140611)
(0.00119352 -0.000256382 0.0150098)
(-0.00010017 0.000761861 0.0131335)
(0.000719887 0.000726299 0.0133119)
(0.000868864 0.000634041 0.0139002)
(0.00133938 0.000592331 0.0141855)
(0.00116544 0.000477177 0.0150934)
(-0.000166241 0.000910902 0.0137601)
(0.000627876 0.000874679 0.0139037)
(0.000771283 0.000777 0.0144241)
(0.00122483 0.00073216 0.0146743)
(0.00107425 0.000607572 0.0155125)
(-0.000189922 0.00138711 0.0140658)
(0.000585977 0.00134516 0.0141898)
(0.000726345 0.00123025 0.0146747)
(0.00116987 0.00117547 0.0149033)
(0.00103633 0.00103194 0.0156908)
(-0.00026251 0.00119765 0.0150179)
(0.000471074 0.00117008 0.0151014)
(0.000601684 0.00107862 0.0155165)
(0.00102653 0.00104089 0.0156945)
(0.000925366 0.000929928 0.0163891)
(7.07524e-05 8.22248e-05 -0.00305767)
(0.00135503 4.69789e-05 -0.00279672)
(0.00156982 -5.5936e-05 -0.00204553)
(0.00222948 -9.17092e-05 -0.00159678)
(0.00185041 -0.000201226 -0.000334049)
(3.53083e-05 0.00136704 -0.0027968)
(0.0012799 0.00129223 -0.00256771)
(0.00148626 0.00111985 -0.00183818)
(0.00213631 0.00103585 -0.00141818)
(0.00178263 0.000845203 -0.000197355)
(-6.76818e-05 0.0015808 -0.00204393)
(0.00110784 0.00149767 -0.00183613)
(0.00131346 0.0013246 -0.00115227)
(0.00195472 0.00123737 -0.00078006)
(0.00165395 0.00103397 0.000346816)
(-0.000103499 0.00224023 -0.00159498)
(0.00102368 0.0021479 -0.0014161)
(0.00122596 0.00196558 -0.000780194)
(0.00184553 0.00185677 -0.000452676)
(0.00157277 0.00161812 0.00060666)
(-0.000213115 0.00185898 -0.000330666)
(0.000833296 0.00179194 -0.000193574)
(0.00102249 0.00166279 0.000348397)
(0.00160726 0.001582 0.000608479)
(0.00140754 0.00141678 0.00155137)
(0.000105655 0.000113137 0.00703508)
(0.00176971 5.91213e-05 0.00770593)
(0.00210711 -6.17678e-05 0.00911222)
(0.00309754 -0.000117338 0.0100104)
(0.0025245 -0.000267519 0.0120267)
(5.1238e-05 0.00177748 0.00770597)
(0.0016802 0.00168859 0.00830212)
(0.00202019 0.0015288 0.00960578)
(0.00298432 0.00141039 0.0103954)
(0.00245258 0.00115915 0.0122956)
(-6.93095e-05 0.00211465 0.00911811)
(0.00152103 0.00202808 0.00961229)
(0.00182897 0.00183661 0.0106961)
(0.00272772 0.00169912 0.0114074)
(0.002263 0.00141273 0.013137)
(-0.000125373 0.00310468 0.0100167)
(0.0014021 0.00299182 0.0104026)
(0.00169123 0.00273472 0.0114076)
(0.00256018 0.00256746 0.0120287)
(0.00215446 0.00223707 0.0136038)
(-0.000275354 0.00253024 0.0120388)
(0.00115125 0.00245895 0.0123094)
(0.00140487 0.00226912 0.0131431)
(0.00223007 0.00216086 0.0136104)
(0.00191893 0.00192534 0.0149599)
(0.000662023 0.00067903 -0.00703)
(0.00342953 0.000564525 -0.00602852)
(0.00387109 0.000318849 -0.00416583)
(0.00514273 0.000183066 -0.002763)
(0.00396372 -7.87773e-05 -9.21552e-05)
(0.000546964 0.00344743 -0.00602859)
(0.00317733 0.0031962 -0.00515502)
(0.00357662 0.00270173 -0.00344556)
(0.00482505 0.00243105 -0.00217269)
(0.00377572 0.00195402 0.000323546)
(0.000300994 0.00388828 -0.00416409)
(0.00268383 0.00359524 -0.00344331)
(0.00310601 0.00312392 -0.00185777)
(0.00439471 0.00286847 -0.000843145)
(0.00347099 0.00234078 0.00145029)
(0.000165655 0.00515971 -0.00276152)
(0.0024129 0.00484402 -0.00217101)
(0.00284985 0.00441173 -0.000843435)
(0.00404139 0.00405951 2.59855e-05)
(0.00323016 0.00344418 0.00209744)
(-9.69022e-05 0.00397825 -8.89374e-05)
(0.00193616 0.00379179 0.000327416)
(0.00232202 0.0034858 0.00145185)
(0.00342716 0.00324608 0.00209957)
(0.00283443 0.00285035 0.00394739)
(0.000993208 0.00100249 -0.00325574)
(0.00463824 0.000818605 -0.00093875)
(0.0053767 0.000483727 0.00201013)
(0.00717932 0.00029717 0.00481172)
(0.00533941 -8.87897e-05 0.0089029)
(0.000808518 0.00464776 -0.000938145)
(0.00426725 0.00427783 0.000915453)
(0.0050058 0.0038398 0.00349953)
(0.00676101 0.0033325 0.00593333)
(0.00508607 0.00270337 0.00967041)
(0.000474569 0.0053858 0.0020193)
(0.00383028 0.00501538 0.0035108)
(0.00443173 0.00444133 0.00591712)
(0.00604264 0.00390001 0.00797985)
(0.00468282 0.00318719 0.0114082)
(0.000286894 0.00718795 0.00482099)
(0.00332243 0.00677015 0.00594437)
(0.00389044 0.00605121 0.00797896)
(0.00550595 0.00551507 0.00962019)
(0.00434118 0.00473462 0.0126151)
(-9.83082e-05 0.00534692 0.00892125)
(0.0026938 0.00509468 0.00969362)
(0.00317759 0.00469083 0.0114176)
(0.00472605 0.00434975 0.0126271)
(0.00386606 0.00387463 0.0151373)
(0.00291806 0.00294225 -0.0189754)
(0.00869506 0.00235335 -0.0152803)
(0.0096152 0.00167822 -0.0108075)
(0.0120331 0.00115146 -0.00661341)
(0.00826028 0.000465494 -0.0011488)
(0.00232842 0.00872213 -0.0152801)
(0.00761087 0.00764161 -0.0122675)
(0.00858711 0.00660387 -0.0084813)
(0.0109938 0.00559591 -0.00496177)
(0.00770509 0.00445754 -7.34761e-05)
(0.00165245 0.00964105 -0.0108057)
(0.00657681 0.00861676 -0.00847942)
(0.00756925 0.00759752 -0.00524199)
(0.00988543 0.0065508 -0.00225435)
(0.0070785 0.00528489 0.00213849)
(0.00112582 0.0120593 -0.0066121)
(0.00556761 0.0110247 -0.00496028)
(0.00652115 0.00991192 -0.00225512)
(0.00867952 0.00870878 -1.1007e-05)
(0.00638882 0.00717983 0.00364656)
(0.000437677 0.00828405 -0.00114709)
(0.0044308 0.00773355 -7.06669e-05)
(0.00525496 0.00710384 0.00213885)
(0.00715334 0.00641696 0.00364775)
(0.00549089 0.00551902 0.0069709)
(0.00457028 0.00458146 -0.0296097)
(0.0128063 0.0037356 -0.0195881)
(0.0140452 0.00259294 -0.01185)
(0.0168528 0.00175222 -0.00277135)
(0.0110949 0.000653743 0.00554985)
(0.00372357 0.0128176 -0.0195902)
(0.0110674 0.01108 -0.0125179)
(0.0123144 0.00940873 -0.00652615)
(0.0151838 0.00769631 0.000666329)
(0.0102426 0.00599078 0.00767373)
(0.00258206 0.0140555 -0.0118377)
(0.00939738 0.0123255 -0.00650603)
(0.0106617 0.0106724 -0.00109488)
(0.0134332 0.00885408 0.00458715)
(0.00931899 0.00690421 0.0111653)
(0.0017408 0.0168614 -0.00276082)
(0.00768417 0.0151939 0.000682324)
(0.00884302 0.0134421 0.00458254)
(0.0114125 0.0114221 0.00863629)
(0.00820666 0.00956779 0.0139238)
(0.000643276 0.0111028 0.00557417)
(0.00597986 0.0102526 0.00771153)
(0.00689297 0.00932815 0.0111791)
(0.00955885 0.00821645 0.0139436)
(0.00737027 0.00738006 0.0189403)
(0.0127451 0.0127819 -0.0550249)
(0.0264552 0.00924813 -0.0393138)
(0.0264357 0.00671204 -0.0274428)
(0.0294393 0.00431536 -0.0142848)
(0.0169973 0.00220986 -0.00305814)
(0.00921379 0.0264945 -0.0393136)
(0.0206767 0.0207255 -0.0277459)
(0.0217734 0.0173604 -0.0194349)
(0.025196 0.0129502 -0.00922953)
(0.015084 0.0100741 -0.000125)
(0.00667342 0.0264742 -0.0274409)
(0.0173211 0.021819 -0.0194318)
(0.0186574 0.0187013 -0.0121402)
(0.0221489 0.0145131 -0.0042776)
(0.0140033 0.0115364 0.00402705)
(0.00427823 0.0294775 -0.0142852)
(0.0129067 0.0252445 -0.00922818)
(0.0144675 0.0221892 -0.00427854)
(0.0180289 0.0180733 0.00110598)
(0.0119732 0.0149661 0.0076094)
(0.00216648 0.0170351 -0.00305956)
(0.0100368 0.0151347 -0.000123545)
(0.0114884 0.0140474 0.00402563)
(0.0149259 0.0120214 0.00760997)
(0.0107636 0.0108119 0.0131673)
(0.0201561 0.0201727 -0.111671)
(0.0403851 0.0152298 -0.0657388)
(0.0390869 0.0102332 -0.0418357)
(0.0412528 0.00651902 -0.0138846)
(0.0229097 0.00300533 0.00396525)
(0.0152131 0.0403985 -0.0657375)
(0.0309421 0.030958 -0.0389274)
(0.0308359 0.0247101 -0.0240655)
(0.0345065 0.0177036 -0.00416324)
(0.0198602 0.0130729 0.00913112)
(0.0102204 0.0390965 -0.0418161)
(0.0246968 0.0308484 -0.0240298)
(0.025819 0.0258319 -0.0115009)
(0.0296107 0.0191884 0.00313304)
(0.018093 0.0146303 0.0154647)
(0.00650702 0.041258 -0.0138708)
(0.0176909 0.034515 -0.00413919)
(0.0191761 0.0296182 0.00312399)
(0.0233032 0.0233123 0.0126127)
(0.0151017 0.018711 0.0209869)
(0.0029962 0.0229165 0.00399794)
(0.0130619 0.0198704 0.00919478)
(0.0146182 0.0181017 0.0154835)
(0.0187035 0.0151121 0.0210196)
(0.013283 0.0132934 0.0287183)
(0.0586357 0.0587007 -0.184675)
(0.0962743 0.0358675 -0.104297)
(0.0783167 0.0240653 -0.0667754)
(0.0752439 0.0137083 -0.0245936)
(0.035771 0.00690629 -0.00234813)
(0.0358211 0.0963331 -0.104283)
(0.0623137 0.0623993 -0.0549145)
(0.0565482 0.0476794 -0.0377127)
(0.0583981 0.0299609 -0.00997292)
(0.0291418 0.0215777 0.00492854)
(0.024006 0.0783676 -0.0667674)
(0.0476205 0.0566178 -0.0377086)
(0.0458221 0.0458926 -0.0219115)
(0.0491301 0.03129 -0.00226607)
(0.0270381 0.0233954 0.0113888)
(0.0136602 0.0752952 -0.0245931)
(0.0298946 0.0584746 -0.00997339)
(0.0312203 0.0491894 -0.00226803)
(0.0359098 0.035978 0.00922593)
(0.0209008 0.028243 0.0178641)
(0.00684145 0.0358283 -0.00235439)
(0.0215267 0.0292331 0.00492404)
(0.0233165 0.0271107 0.0113829)
(0.0281838 0.0209824 0.0178602)
(0.0189538 0.0190354 0.0255061)
(0.102187 0.102244 -0.417362)
(0.1578 0.0650879 -0.184803)
(0.118868 0.0387234 -0.0930861)
(0.105634 0.0208716 -0.0196586)
(0.0464764 0.00935603 0.0149852)
(0.0650362 0.157822 -0.18477)
(0.097363 0.097397 -0.0818825)
(0.0758298 0.0695081 -0.0420749)
(0.0771273 0.040011 0.00354103)
(0.0357881 0.0267826 0.0242448)
(0.0387032 0.118864 -0.0930485)
(0.0694865 0.0758419 -0.0420076)
(0.0612744 0.0612893 -0.0140754)
(0.0629009 0.0383821 0.0149333)
(0.0326381 0.0275301 0.0333082)
(0.0208587 0.105625 -0.0196424)
(0.0399957 0.0771272 0.00357)
(0.0383702 0.0629025 0.0149123)
(0.0434065 0.0434098 0.0311638)
(0.0243809 0.0328067 0.0411659)
(0.00934734 0.0464761 0.0150197)
(0.0267719 0.0357938 0.0243424)
(0.0275187 0.0326425 0.033329)
(0.0328052 0.0243871 0.0412136)
(0.0214987 0.021505 0.0503629)
(0.307482 0.307689 -0.740913)
(0.423848 0.141217 -0.287757)
(0.24373 0.0746929 -0.137759)
(0.183195 0.0366583 -0.0167903)
(0.0725176 0.0153484 0.0148381)
(0.141094 0.423941 -0.287676)
(0.204742 0.204927 -0.068517)
(0.142062 0.126463 -0.043528)
(0.12469 0.0645061 0.0154896)
(0.0513225 0.0399105 0.028083)
(0.0745866 0.243764 -0.137717)
(0.126367 0.14216 -0.0435221)
(0.102824 0.102941 -0.0139752)
(0.0965416 0.0589625 0.0213743)
(0.0467069 0.0403348 0.0348006)
(0.0366027 0.183244 -0.0167772)
(0.0644029 0.124797 0.0154838)
(0.058864 0.096622 0.0213725)
(0.0621911 0.062286 0.0370266)
(0.0317651 0.0453367 0.0420021)
(0.0152502 0.0725943 0.014819)
(0.0398459 0.0514845 0.0280598)
(0.0402062 0.0468224 0.0347854)
(0.0452566 0.0318952 0.0419881)
(0.0288826 0.0290126 0.0479331)
(0.789933 0.790352 -2.23534)
(1.00367 0.265804 -0.610906)
(0.370899 0.13366 -0.0441888)
(0.257649 0.0534372 0.0455592)
(0.0806899 0.0209302 0.0752783)
(0.265274 1.00371 -0.610499)
(0.367053 0.367082 -0.079728)
(0.15934 0.192739 0.0209334)
(0.14847 0.0779029 0.0696158)
(0.0499866 0.0466406 0.0790085)
(0.133553 0.370801 -0.0441695)
(0.192675 0.159348 0.0210487)
(0.1262 0.126218 0.0551431)
(0.11149 0.0598669 0.0734078)
(0.0473976 0.0413916 0.0851128)
(0.0534092 0.257578 0.0455336)
(0.0778729 0.14844 0.0696172)
(0.0598608 0.111476 0.0733645)
(0.0638956 0.0638827 0.0836933)
(0.0301715 0.0458873 0.0860193)
(0.0209316 0.0806553 0.0752716)
(0.0466335 0.0499724 0.0791141)
(0.0413898 0.0473868 0.0851217)
(0.0459013 0.0301628 0.0860684)
(0.02823 0.0282217 0.0899003)
(0.0205947 0.0206238 -8.53577)
(2.62676 0.358328 -0.348136)
(0.449657 0.140605 0.209381)
(0.295821 0.0620989 0.13394)
(0.105732 0.0178421 0.113466)
(0.35453 2.62813 -0.347635)
(0.438934 0.438902 0.273347)
(0.222108 0.221798 0.169069)
(0.18186 0.0917581 0.118775)
(0.0626607 0.0496915 0.103103)
(0.140544 0.449799 0.209277)
(0.221697 0.222251 0.169032)
(0.154756 0.154947 0.135001)
(0.12643 0.0730995 0.10855)
(0.0600426 0.0473483 0.0951108)
(0.0621516 0.295847 0.133917)
(0.0916389 0.181958 0.118759)
(0.0730005 0.12652 0.108555)
(0.0748098 0.0749106 0.0955002)
(0.0349827 0.050105 0.0857426)
(0.0177373 0.105829 0.113387)
(0.0496415 0.0629295 0.103035)
(0.0471636 0.0602126 0.0950782)
(0.0500156 0.0351626 0.0857134)
(0.0335515 0.0337313 0.0804238)
(0.00526186 0.0044655 -8.64539)
(0.528577 0.00420793 -2.52353)
(0.23391 0.0926855 0.443139)
(0.149339 0.0394645 0.233317)
(0.0627796 0.00895377 0.204664)
(0.0043895 0.528739 -2.52504)
(0.123739 0.123517 0.43852)
(0.0844561 0.109279 0.313558)
(0.0820663 0.0521754 0.207383)
(0.0356367 0.0282124 0.178881)
(0.0927243 0.233926 0.442953)
(0.109334 0.0843185 0.313613)
(0.065698 0.0656735 0.251136)
(0.0717453 0.0368125 0.187556)
(0.0350649 0.0240303 0.163226)
(0.0395337 0.149292 0.233277)
(0.0521747 0.0820103 0.207392)
(0.0368233 0.0716987 0.187537)
(0.0410891 0.0410524 0.159962)
(0.0208906 0.0311882 0.144715)
(0.00900763 0.0626856 0.204578)
(0.0282536 0.0355673 0.178889)
(0.0240685 0.0350158 0.163203)
(0.0312343 0.0208521 0.14472)
(0.0234145 0.0233762 0.133698)
(0.2036 0.203573 -9.40728)
(-0.0906886 -0.0730813 -0.472755)
(0.195065 0.0034819 0.299826)
(0.0508058 0.0363558 0.196413)
(0.0785061 -0.0084122 0.152633)
(-0.072627 -0.0902391 -0.472872)
(0.0367206 0.0365472 0.247523)
(0.0339972 0.0192977 0.229069)
(0.0501375 0.04636 0.167872)
(0.0345624 0.00823383 0.130273)
(0.00322914 0.195092 0.299718)
(0.0193803 0.0341574 0.228987)
(0.031838 0.0320849 0.197787)
(0.0389049 0.025832 0.145675)
(0.0360822 0.0131993 0.119474)
(0.0362955 0.0509379 0.19642)
(0.0462549 0.0501811 0.167852)
(0.0257223 0.0389728 0.145694)
(0.0320608 0.0321476 0.121606)
(0.0197109 0.0206087 0.101087)
(-0.00856123 0.0785538 0.152551)
(0.00824445 0.0348294 0.130196)
(0.0130089 0.0362464 0.119443)
(0.0205424 0.0198948 0.101055)
(0.0225895 0.0227733 0.0884855)
(0.116674 0.116741 -9.49003)
(0.100267 0.17816 -1.05981)
(0.025335 -0.000400911 0.295767)
(-0.00812601 0.0114426 0.259845)
(0.0196816 -0.0132685 0.194191)
(0.178259 0.100335 -1.05912)
(0.0404078 0.0402082 0.173295)
(-0.0429984 -0.00891071 0.273726)
(-0.0125924 0.00344376 0.223629)
(-0.00304676 -0.0050988 0.181437)
(-0.000138439 0.0250771 0.295801)
(-0.00875625 -0.0431365 0.273478)
(-0.0139558 -0.0140378 0.236826)
(-0.00621787 -0.00938035 0.200985)
(0.00802051 -0.00525955 0.171018)
(0.0114648 -0.00815445 0.259859)
(0.00344618 -0.0126553 0.223604)
(-0.00934909 -0.00629598 0.201039)
(-0.00348922 -0.00353995 0.178093)
(-0.000470245 0.000232469 0.156891)
(-0.0131491 0.019491 0.194152)
(-0.00500524 -0.00317463 0.181253)
(-0.00517462 0.00792091 0.170982)
(0.000309724 -0.000541996 0.156819)
(0.0103462 0.0102739 0.143969)
(0.00418697 0.00433453 -9.55648)
(0.572267 0.0795401 -1.13617)
(-0.0639556 -0.0456968 0.298674)
(-0.0737968 0.000237411 0.188039)
(0.0104311 -0.0200875 0.112114)
(0.0788197 0.572102 -1.13592)
(-0.148046 -0.147726 0.52805)
(-0.0786251 -0.06318 0.223114)
(-0.0409203 -0.0117371 0.14883)
(-0.0100611 -0.0150828 0.0956785)
(-0.0457229 -0.0639908 0.298751)
(-0.0631474 -0.0785486 0.223125)
(-0.0399062 -0.0398723 0.164848)
(-0.0272554 -0.0198953 0.118928)
(0.00441239 -0.0113683 0.0823088)
(0.000144613 -0.0737538 0.187959)
(-0.0117984 -0.0408103 0.1488)
(-0.0199786 -0.0272247 0.118915)
(-0.0120902 -0.0120202 0.0944308)
(-0.00281985 -0.00646302 0.0699389)
(-0.020133 0.0104158 0.112145)
(-0.0150631 -0.00995983 0.095679)
(-0.0114457 0.0044813 0.0823164)
(-0.00649403 -0.00271052 0.0699368)
(0.00879362 0.00890321 0.0555465)
(-0.253847 -0.254035 -9.3751)
(-0.953192 -0.240945 -0.896907)
(-0.319117 -0.0997918 0.227503)
(-0.211826 -0.0264858 0.204716)
(-0.0616508 -0.0279213 0.162218)
(-0.240639 -0.953137 -0.896598)
(-0.348912 -0.349032 0.211581)
(-0.226186 -0.159807 0.224932)
(-0.134607 -0.0636323 0.188685)
(-0.0595343 -0.0341327 0.157099)
(-0.0996704 -0.319064 0.227532)
(-0.159728 -0.226256 0.224889)
(-0.113635 -0.113706 0.191476)
(-0.0866417 -0.0627181 0.172613)
(-0.0312309 -0.0305628 0.148081)
(-0.0264179 -0.211883 0.204684)
(-0.0635621 -0.13468 0.188633)
(-0.0626571 -0.0867096 0.172632)
(-0.0516236 -0.0516898 0.158588)
(-0.0266581 -0.0261475 0.141884)
(-0.0278383 -0.0617228 0.1622)
(-0.0340669 -0.0596286 0.15698)
(-0.0304833 -0.0313077 0.148059)
(-0.0260788 -0.0267323 0.141821)
(-0.00520208 -0.00527618 0.130972)
(-0.737616 -0.737685 -3.77344)
(-0.48994 -0.251109 -0.497129)
(-0.204091 -0.0734695 -0.0534182)
(-0.156399 -0.0165468 0.000814342)
(-0.0413335 -0.023768 -0.00287495)
(-0.251038 -0.489946 -0.497043)
(-0.252659 -0.252649 -0.0478886)
(-0.170365 -0.116506 -0.0034897)
(-0.108355 -0.0449602 0.00477003)
(-0.047525 -0.0295535 0.00300074)
(-0.0734561 -0.204051 -0.0534028)
(-0.116487 -0.170363 -0.0034773)
(-0.0918285 -0.091818 -0.00193747)
(-0.0712499 -0.0507411 0.00663656)
(-0.0243075 -0.0269353 -0.000769169)
(-0.0165458 -0.156389 0.000828183)
(-0.0449714 -0.108319 0.00477472)
(-0.0507747 -0.0712414 0.00663531)
(-0.0433606 -0.0433336 0.00614328)
(-0.0222102 -0.0238626 0.00157421)
(-0.0237733 -0.041336 -0.00285025)
(-0.029538 -0.0474946 0.00302241)
(-0.0269568 -0.0242821 -0.000757461)
(-0.0238716 -0.0221659 0.00158219)
(-0.00375444 -0.00370998 -0.00522625)
(-0.572618 -0.572693 -2.59515)
(-0.410068 -0.215392 -0.323736)
(-0.22925 -0.0641655 0.0858703)
(-0.17085 -0.0223692 0.123376)
(-0.0716601 -0.0205159 0.112246)
(-0.215316 -0.410099 -0.323717)
(-0.246236 -0.246314 0.0771778)
(-0.178971 -0.118492 0.116717)
(-0.127231 -0.0575095 0.121793)
(-0.0657263 -0.0317131 0.117808)
(-0.064094 -0.229306 0.0858638)
(-0.118431 -0.179038 0.116682)
(-0.102749 -0.102808 0.11513)
(-0.0849731 -0.0610209 0.122123)
(-0.0416714 -0.0316704 0.113603)
(-0.0223147 -0.1709 0.123364)
(-0.0574542 -0.127299 0.121755)
(-0.0609642 -0.0850302 0.122134)
(-0.0563854 -0.0564456 0.121612)
(-0.0332341 -0.0302951 0.116483)
(-0.0204519 -0.0717224 0.112217)
(-0.0316596 -0.0658027 0.117733)
(-0.0316045 -0.0417346 0.113582)
(-0.0302377 -0.0332998 0.11644)
(-0.0132463 -0.0133118 0.109644)
(-0.447891 -0.44792 -1.81899)
(-0.345115 -0.186359 -0.398119)
(-0.184313 -0.0518975 -0.132361)
(-0.143085 -0.018138 -0.0965796)
(-0.0588603 -0.0175637 -0.0743675)
(-0.186338 -0.345127 -0.3981)
(-0.209863 -0.209874 -0.137544)
(-0.144817 -0.0987205 -0.103049)
(-0.108546 -0.0465136 -0.0875234)
(-0.0557457 -0.0283271 -0.0681124)
(-0.0518721 -0.184335 -0.132345)
(-0.098698 -0.144826 -0.103034)
(-0.0876232 -0.0876353 -0.0882418)
(-0.0731849 -0.051188 -0.0751269)
(-0.0359801 -0.0284352 -0.0660323)
(-0.0181209 -0.143098 -0.0965683)
(-0.0465031 -0.108549 -0.0875119)
(-0.051184 -0.0731963 -0.0751279)