/*--------------------------------*- C++ -*----------------------------------*\
| =========                 |                                                 |
| \\      /  F ield         | OpenFOAM: The Open Source CFD Toolbox           |
|  \\    /   O peration     | Version:  5.x                                   |
|   \\  /    A nd           | Web:      www.OpenFOAM.org                      |
|    \\/     M anipulation  |                                                 |
\*---------------------------------------------------------------------------*/
FoamFile
{
    version     2.0;
    format      ascii;
    class       volScalarField;
    location    "0.006";
    object      interFace;
}
// * * * * * * * * * * * * * * * * * * * * * * * * * * * * * * * * * * * * * //

dimensions      [0 0 0 0 0 0 0];

internalField   nonuniform List<scalar> 
1581
(
0
0
0
0
0
0
0
0
0
0
0
0
0
0
0
0
0
0
0
0
0
0
0
0
0
0
0
0
0
0
0
0
0
0
0
0
0
0
0
0
0
0
0
0
0
0
0
0
0
0
0
0
0
0
0
0
0
0
0
0
0
0
0
0
0
0
0
0
0
0
0
0
0
0
0
0
0
0
0
0
0
0
0
0
0
0
0
0
0
0
0
0
0
0
0
0
0
0
0
0
0
0
0
0
0
0
0
0
0
0
0
0
0
0
0
0
0
0
0
0
0
0
0
0
0
0
0
0
0
0
0
0
0
0
0
0
0
0
0
0
0
0
0
0
0
0
0
0
0
0
0
0
0
0
0
0
0
0
0
0
0
0
0
0
0
0
0
0
0
0
0
0
0
0
0
0
0
0
0
0
0
0
0
0
0
0
0
0
0
0
0
0
0
0
0
0
0
0
0
0
0
0
0
0
0
0
0
0
0
0
0
0
0
0
0
0
0
0
0
0
0
0
0
0
0
0
0
0
0
0
0
0
0
0
0
0
0
0
0
0
0
0
0
0
0
0
0
0
0
0
0
0
0
0
0
0
0
0
0
0
0
0
0
0
0
0
0
0
0
0
0
0
0
0
0
0
0
0
0
0
0
0
0
0
0
0
0
0
0
0
0
0
0
0
0
0
0
0
0
0
0
0
0
0
0
0
0
0
0
0
0
0
0
0
0
0
0
0
0
0
0
0
0
0
0
0
0
0
0
0
0
0
0
0
0
0
0
0
0
0
0
0
0
0
0
0
0
0
0
0
0
0
0
0
0
0
0
0
0
0
0
0
0
0
0
0
0
0
0
0
0
0
0
0
0
0
0
0
0
0
0
0
0
0
0
0
0
0
0
0
0
0
0
0
0
0
0
0
0
0
0
0
0
0
0
0
0
0
0
0
0
0
0
0
0
0
0
0
0
0
0
0
0
0
0
0
0
0
0
0
0
0
0
0
0
0
0
0
0
0
0
0
0
0
0
0
0
0
0
0
0
0
0
0
0
0
0
0
0
0
0
0
0
0
0
0
0
0
0
0
0
0
0
0
0
0
0
0
0
0
0
0
0
0
0
0
0
0
0
0
0
0
0
0
0
0
0
0
0
0
0
0
0
0
0
0
0
0
0
0
0
0
0
0
0
0
0
0
0
0
0
0
0
0
0
0
0
0
0
0
0
0
0
0
0
0
0
0
0
0
0
0
0
0
0
0
0
0
0
0
0
0
0
0
0
0
0
0
0
0
0
0
0
0
0
0
0
0
0
0
0
0
0
0
0
0
0
0
0
0
0
0
0
0
0
0
0
0
0
0
0
0
0
0
0
0
0
0
0
0
0
0
0
0
0
0
0
0
0
0
0
0
0
0
0
0
0
0
0
0
0
0
0
0
0
0
0
0
0
0
0
0
0
0
0
0
0
0
0
0
0
0
0
0
0
0
0
0
0
0
0
0
0
0
0
0
0
0
0
0
0
0
0
0
0
0
0
0
0
0
0
0
0
0
0
0
0
0
0
0
0
0
0
0
0
0
0
0
0
0
0
0
0
0
0
0
0
0
0
0
0
0
0
0
0
0
0
0
0
0
0
0
0
0
0
0
0
0
0
0
0
0
0
0
0
0
0
0
0
0
0
0
0
0
0
0
0
0
0
0
0
0
0
0
0
0
0
0
0
0
0
0
0
0
0
0
0
0
0
0
0
0
0
0
0
0
0
0
0
0
0.830053
0
0
0
0
0
0
0
0
0
0
0
0
0
0
0
0
0
0
0
0
0
0
0
0
0.344887
0.793092
0
0
0
0
0
0
0
0
0
0
0
0
0
0
0
0
0
0
0
0
0
0
0
0.398689
0.937658
0
0
0
0
0
0
0
0
0
0
0
0
0
0
0
0
0
0
0
0
0
0
0
0
0
0
0
0
0
0
0
0
0
0
0
0
0
0
0
0
0
0
0
0
0
0
0
0
0.520338
0.934392
0
0
0
0
0
0
0
0
0
0
0
0
0
0
0
0
0
0
0
0
0
0
0
0.291942
0.740147
0
0
0
0
0
0
0
0
0
0
0
0
0
0
0
0
0
0
0
0
0
0
0
0.836163
0
0
0
0
0
0
0
0
0
0
0
0
0
0
0
0
0
0
0
0
0
0
0
0
0
0
0
0
0
0
0
0
0
0
0
0
0
0
0
0
0
0
0
0
0
0
0
0
0
0
0
0
0
0
0
0
0
0
0
0
0
0
0
0
0
0
0
0
0
0
0
0
0
0
0
0
0
0
0
0
0
0
0
0
0.812134
0.991416
0
0.739289
0.830053
0.443487
0.71241
0.174564
0.443487
0
0
0
0.991416
0
0.812134
0
0
0.524169
0.793092
0
0
0.49729
0.766213
0
0
0
0
0
0
0
0.61381
0.0759633
0.344886
0.318008
0.586931
0.0490843
0.318007
0
0.524168
0
0.766213
0
0.497289
0
0
0.577971
0.937658
0
0
0
0
0.667612
0.129766
0.398689
0.909657
0.919739
0.640733
0.909656
0
0.577971
0
0
0
0
0
0
0
0
0
0
0
0
0
0
0
0.689489
0.914128
0.420565
0.689489
0
0
0
0
0
0
0
0
0.69962
0.934391
0
0
0.461092
0.730016
0
0
0
0
0
0
0
0.789261
0.251415
0.520338
0.28181
0.550733
0.012887
0.28181
0
0.69962
0
0.730016
0
0.461092
0
0
0.471224
0.740147
0
0
0.8159
0.995182
0
0
0
0
0
0
0
0.560865
0.0230187
0.291942
0.59126
0.860184
0.322337
0.591261
0
0.471224
0
0.995182
0
0.8159
0
0
0.511751
0.836163
0
0
0
0
0.201465
0.389707
0.210425
0.291106
0.255245
0.335927
0.156645
0.828953
0
0.65863
0.739312
0.882733
0.963414
0.60485
0.43455
0.44351
0.264227
0.524191
0.309048
0.569011
0.389729
0.306367
0.565159
0.385877
0.396008
0.430697
0.440829
0.261547
0.257253
0.336762
0.15748
0.346894
0.202301
0.391715
0.212433
0.884741
0.96425
0.605686
0.7951
0.829789
0
0.660638
0.497267
0.586909
0.488308
0.309026
0.631729
0.353846
0.452447
0.586909
0.855832
0.577949
0.577949
0.72137
0.72137
0.443487
0.407626
0.317985
0.219385
0.219384
0.264205
0.362806
0.362806
0.497267
0.586908
0.488308
0.309026
0.631729
0.353846
0.452447
0.739312
0.748272
0.568989
0.470389
0.793092
0.515209
0.694491
0.828953
0
0.65863
0.739312
0.882733
0.963414
0.60485
0.730352
0.461429
0.721393
0.54211
0.506249
0.766213
0.685532
0.819993
0.730352
0.990316
0.631751
0.954455
0.59589
0.855854
0.291106
0.479348
0.479348
0.56003
0.344886
0.425568
0.425568
0.111824
0.120784
0.120784
0.0221831
0.165604
0.0670036
0.0670035
0.201465
0.389707
0.210425
0.291106
0.255245
0.335927
0.156645
0.192506
0.282147
0.362828
0.183546
0.326967
0.228366
0.147685
0.282147
0.55107
0.452469
0.452469
0.416608
0.416608
0.318007
0.102864
0.0132234
0.0939049
0.0939048
0.138725
0.058044
0.0580439
0.192506
0.282146
0.362828
0.183546
0.326967
0.228366
0.147685
0.739311
0.568989
0.748271
0.470388
0.793092
0.515209
0.694491
0.819993
0.730352
0.990315
0.631751
0.954455
0.59589
0.855854
0.730352
0.461429
0.54211
0.721392
0.506249
0.766213
0.685531
0.972396
0.802074
0.622792
0.703473
0.846894
0.748294
0.927576
0.524191
0.533151
0.53315
0.793114
0.398689
0.658653
0.658652
0.344909
0.174586
0.174586
0.255268
0.219407
0.300088
0.300088
0.43455
0.443509
0.264227
0.524191
0.309048
0.569011
0.389729
0.604872
0.694513
0.954477
0.775195
0.739334
0.820015
0.560052
0.515231
0.42559
0.685554
0.685554
0.730374
0.470411
0.470411
0.604872
0.694513
0.954477
0.775195
0.739334
0.820015
0.560052
0.972396
0.622791
0.802074
0.703473
0.846894
0.748293
0.927575
0.813818
0.903459
0.734309
0.555027
0.94828
0.599848
0.768998
0.724177
0.634536
0.465386
0.465386
0.510206
0.679357
0.679357
0.813819
0.90346
0.734309
0.555027
0.94828
0.599848
0.768998
0.844214
0.923723
0.744441
0.57529
0.968543
0.620111
0.799393
0.764704
0.495781
0.685195
0.505913
0.540602
0.730015
0.719884
0.854345
0.764704
0.954118
0.595554
0.988807
0.630243
0.819657
0.396008
0.6548
0.6548
0.664932
0.520338
0.53047
0.53047
0.216726
0.296235
0.296236
0.127085
0.341056
0.171906
0.171906
0.306367
0.565159
0.385877
0.396008
0.430697
0.440829
0.261547
0.226858
0.316499
0.326631
0.147349
0.361319
0.192169
0.182037
0.316499
0.585422
0.416272
0.416272
0.450961
0.450961
0.28181
0.137217
0.0475758
0.0577075
0.0577075
0.102528
0.0923963
0.0923963
0.226858
0.316499
0.326631
0.147349
0.36132
0.192169
0.182037
0.844214
0.744441
0.923723
0.575291
0.968544
0.620111
0.799393
0.854346
0.764704
0.954118
0.595554
0.988807
0.630243
0.819657
0.764705
0.495781
0.505913
0.685195
0.540602
0.730016
0.719884
0.7951
0.695327
0.516045
0.526176
0.740147
0.570997
0.750279
0.884741
0.96425
0.605686
0.7951
0.829788
0
0.660638
0.346894
0.426404
0.426404
0.615817
0.291942
0.481356
0.481356
0.167612
0.0678392
0.0678393
0.077971
0.11266
0.122792
0.122792
0.257253
0.336763
0.15748
0.346894
0.202301
0.391715
0.212433
0.357026
0.446667
0.636081
0.456799
0.491488
0.501619
0.312205
0.446667
0.71559
0.725722
0.725722
0.581129
0.581129
0.59126
0.267385
0.177744
0.367158
0.367158
0.411978
0.222564
0.222564
0.357026
0.446667
0.636081
0.456799
0.491488
0.501619
0.312205
0.7951
0.516045
0.695327
0.526177
0.740147
0.570997
0.750279
0.835627
0.556572
0.556572
0.745986
0.601392
0.790806
0.790806
0
0
0
0
0
0
0
0.595868
0.78411
0.78411
0.506227
0.828931
0.551048
0.551048
)
;

boundaryField
{
    inlet
    {
        type            calculated;
        value           uniform 0;
    }
    wall
    {
        type            calculated;
        value           uniform 0;
    }
    outlet
    {
        type            calculated;
        value           uniform 0;
    }
    procBoundary1to0
    {
        type            processor;
        value           uniform 0;
    }
    procBoundary1to3
    {
        type            processor;
        value           uniform 0;
    }
}


// ************************************************************************* //
