/*--------------------------------*- C++ -*----------------------------------*\
| =========                 |                                                 |
| \\      /  F ield         | OpenFOAM: The Open Source CFD Toolbox           |
|  \\    /   O peration     | Version:  5.x                                   |
|   \\  /    A nd           | Web:      www.OpenFOAM.org                      |
|    \\/     M anipulation  |                                                 |
\*---------------------------------------------------------------------------*/
FoamFile
{
    version     2.0;
    format      ascii;
    class       volScalarField;
    location    "0.078";
    object      interFace;
}
// * * * * * * * * * * * * * * * * * * * * * * * * * * * * * * * * * * * * * //

dimensions      [0 0 0 0 0 0 0];

internalField   nonuniform List<scalar> 
1546
(
0
0
0
0
0
0
0
0
0
0
0
0
0
0
0
0
0
0
0
0
0
0
0
0
0
0
0
0
0
0
0
0
0
0
0
0
0
0
0
0
0
0
0
0
0
0
0
0
0
0
0
0
0
0
0
0
0
0
0
0
0
0
0
0
0
0
0
0
0
0
0
0
0
0
0
0
0
0
0
0
0
0
0
0
0
0
0
0
0
0
0
0
0
0
0
0
0
0
0
0
0
0
0
0
0
0
0
0
0
0
0
0
0
0
0
0
0
0
0
0
0
0
0
0
0
0
0
0
0
0
0
0
0
0
0
0
0
0
0
0
0
0
0
0
0
0
0
0
0
0
0
0
0
0
0
0
0
0
0
0
0
0
0
0
0
0
0
0
0
0
0
0
0
0
0
0
0
0
0
0
0
0
0
0
0
0
0
0
0
0
0
0
0
0
0
0
0
0
0
0
0
0
0
0
0
0
0
0
0
0
0
0
0
0
0
0
0
0
0
0
0
0
0
0
0
0
0
0
0
0
0
0
0
0
0
0
0
0
0
0
0
0
0
0
0
0
0
0
0
0
0
0
0
0
0
0
0
0
0
0
0
0
0
0
0
0
0
0
0
0
0
0
0
0
0
0
0
0
0
0
0
0
0
0
0
0
0
0
0
0
0
0
0
0
0
0
0
0
0
0
0
0
0
0
0
0
0
0
0
0
0
0
0
0
0
0
0
0
0
0
0
0
0
0
0
0
0
0
0
0
0
0
0
0
0
0
0
0
0
0
0
0
0
0
0
0
0
0
0
0
0
0
0
0
0
0
0
0
0
0
0
0
0
0
0
0
0
0
0
0
0
0
0
0
0
0
0
0
0
0
0
0
0
0
0
0
0
0
0
0
0
0
0
0
0
0
0
0
0
0
0
0
0
0
0
0
0
0
0
0
0
0
0
0
0
0
0
0
0
0
0
0
0
0
0
0
0
0
0
0
0
0
0
0
0
0
0
0
0
0
0
0
0
0
0
0
0
0
0
0
0
0
0
0
0
0
0
0
0
0
0
0
0
0
0
0
0
0
0
0
0
0
0
0
0
0
0
0
0
0
0
0
0
0
0
0
0
0
0
0
0
0
0
0
0
0
0
0
0
0
0
0
0
0
0
0
0
0
0
0
0
0
0
0
0
0
0
0
0
0
0
0
0
0
0
0
0
0
0
0
0
0
0
0
0
0
0
0
0
0
0
0
0
0
0
0
0
0
0
0
0
0
0
0
0
0
0
0
0
0
0
0
0
0
0
0
0
0
0
0
0
0
0
0
0
0
0
0
0
0
0
0
0
0
0
0
0
0
0
0
0
0
0
0
0
0
0
0
0
0
0
0
0
0
0
0
0
0
0
0
0
0
0
0
0
0
0
0
0
0
0
0
0
0
0
0
0
0
0
0
0
0
0
0
0
0
0
0
0
0
0
0
0
0
0
0
0
0
0
0
0.471754
0.947578
0
0
0
0.947589
0
0
0
0
0
0
0
0
0
0
0
0
0
0
0
0
0
0
0
0.0176406
0.46612
0
0
0
0.466131
0
0
0
0
0
0
0
0
0
0
0
0
0
0
0
0
0
0
0
0.280656
0.935761
0
0
0
0.935773
0
0
0
0
0
0
0
0
0
0
0
0
0
0
0
0
0
0
0
0.735241
0
0
0
0
0
0
0
0
0
0
0
0
0
0
0
0
0
0
0
0
0
0
0
0
0.105444
0.553839
0
0
0
0.553847
0
0
0
0
0
0
0
0
0
0
0
0
0
0
0
0
0
0
0
0.0964578
0.544853
0
0
0
0.54486
0
0
0
0
0
0
0
0
0
0
0
0
0
0
0
0
0
0
0
0.977205
0
0
0
0
0
0
0
0
0
0
0
0
0
0
0
0
0
0
0
0
0
0
0
0
0
0
0
0
0
0
0
0
0
0
0
0
0
0
0
0
0
0
0
0
0
0
0
0
0
0
0
0
0
0
0
0
0
0
0
0
0
0
0
0
0
0
0
0
0
0
0
0
0
0
0
0
0
0
0
0
0
0
0
0
0
0
0
0
0
0
0
0
0
0
0
0
0
0
0
0
0
0
0
0
0
0
0
0
0
0
0
0
0
0
0
0
0
0
0
0
0
0
0
0
0
0
0
0
0
0
0
0
0
0
0
0
0
0
0
0
0
0
0
0
0
0
0
0
0
0
0
0
0
0
0
0
0
0
0
0
0
0
0
0
0
0
0
0
0
0
0
0
0
0
0
0
0
0
0
0
0
0
0
0
0
0
0
0
0
0
0
0
0
0
0
0
0
0
0
0.37451
0.374515
0.643581
0.0314736
0.300539
0.300545
0.56961
0.365523
0.365529
0.634595
0.560334
0.829399
0.829405
0
0
0
0
0
0
0
0
0.914618
0.914621
0
0.219742
0.488808
0.488813
0.757879
0.549784
0.549793
0.818921
0.842892
0
0
0
0
0
0
0
0
0
0
0
0
0
0
0
0
0
0.450626
0.360888
0.605202
0.605203
0.650071
0.405756
0.405758
0
0.896839
0
0
0
0
0
0.896842
0
0
0
0
0
0
0.540314
0.629953
0.69489
0.874269
0.674823
0.73976
0.495444
0.540316
0.629959
0.694894
0.874273
0.674827
0.739762
0.495448
0.286769
0.286778
0.555907
0.147671
0.4168
0.416808
0.685937
0.548241
0.325545
0.325547
0.458461
0.370436
0.50335
0.503353
0.637951
0.415254
0.594676
0.727589
0.460146
0.772481
0.593059
0.637954
0.41526
0.594682
0.727598
0.460149
0.772487
0.593065
0.630005
0.899025
0.96396
0.963961
0.764514
0.764516
0.82945
0.727663
0.684388
0.684391
0.996727
0.549858
0.862194
0.862196
0.296
0.141326
0.141328
0.206263
0.186196
0.251131
0.251132
0.385689
0.231014
0.410393
0.475328
0.275884
0.520198
0.340819
0.385691
0.231018
0.410397
0.475334
0.275886
0.520202
0.340823
0.19256
0.192563
0.237452
0.149288
0.059507
0.104396
0.104399
0
0.735257
0
0.59615
0
0.849217
0
0.73526
0
0
0.596162
0.849223
0
0
0.282269
0.461691
0.327161
0.238997
0.328636
0.373527
0.194105
0.282275
0.461697
0.327164
0.239
0.328644
0.373533
0.194111
0.475379
0.500084
0.500086
0.744399
0.365575
0.609888
0.60989
0.551404
0.551407
0.416874
0.32871
0.597773
0.46324
0.463243
0.101048
0.0113099
0.0763416
0.0763434
0.121211
0.0561779
0.0561797
0
0.816184
0
0.479869
0
0.74894
0
0.816188
0
0
0.479876
0.748942
0
0
0.769003
0.589723
0.654658
0.813873
0.699528
0.923678
0.878808
0.589728
0.769012
0.654665
0.81388
0.699533
0.923685
0.878817
0.190736
0.280376
0.16603
0.345409
0.325245
0.2109
0.145866
0.190738
0.280381
0.166034
0.345413
0.325249
0.210902
0.14587
0.740883
0.740892
0
0.0639382
0.333067
0.333076
0.602204
0.105944
0.0625296
0.0625325
0.0161635
0.107422
0.0610525
0.0610554
0.195654
0.152239
0.331661
0.285292
0.197131
0.330184
0.150762
0.195657
0.152245
0.331667
0.285301
0.197134
0.33019
0.150768
0.641042
0.820321
0.865213
0.507986
0.552878
0.777049
0.732157
0.641051
0.820336
0.865225
0.507998
0.552887
0.777061
0.732172
0.280427
0.549447
0.435099
0.435101
0.414936
0.414938
0.30059
0.285366
0.421374
0.421376
0.554429
0.286843
0.419896
0.419899
0.125705
0.150312
0.150314
0.0359668
0.195182
0.0808348
0.0808366
0.215393
0.240001
0.41938
0.305032
0.284871
0.349902
0.170523
0.215395
0.240004
0.419383
0.305038
0.284872
0.349906
0.170527
0.459705
0.704019
0.524739
0.504575
0.748889
0.728725
0.683855
0.459713
0.524744
0.704028
0.504581
0.748896
0.728733
0.683865
0.108827
0.10883
0.153719
0.244837
0.155056
0.199945
0.199948
0
0
0
0.512417
0
0.855125
0
0
0
0
0.512429
0.855131
0
0
0.511012
0.464643
0.509535
0.733706
0.690291
0.735183
0.688814
0.51102
0.464654
0.509543
0.733717
0.690306
0.735195
0.688828
0.198537
0.377959
0.243429
0.334547
0.424185
0.469077
0.289655
0.198543
0.377965
0.243432
0.33455
0.424194
0.469083
0.289661
0.305084
0.50907
0.509072
0.574104
0.374561
0.439593
0.439594
0.467671
0.467674
0.333141
0.424259
0.693322
0.558789
0.558792
0.26461
0.264612
0.30948
0.468598
0.378861
0.423729
0.42373
0
0
0
0.865399
0
0
0
0
0
0
0.865406
0
0
0
0.77799
0.598709
0.484362
0.822859
0.529232
0.753382
0.708512
0.598715
0.777999
0.484369
0.822867
0.529237
0.753389
0.708521
0.354299
0.533678
0.399169
0.558287
0.647926
0.692796
0.513417
0.354302
0.533681
0.39917
0.558289
0.647932
0.6928
0.513421
0
0
0
0.860617
0
0
0
0.380776
0.516643
0.516646
0.290995
0.561535
0.335884
0.335887
0.623368
0.62337
0.488859
0.647977
0.916997
0.782486
0.782488
0.470485
0.606353
0.785775
0.560124
0.651245
0.605016
0.425594
0.470488
0.606359
0.785781
0.560132
0.651248
0.605021
0.425599
0.557309
0.736589
0.78148
0.603536
0.648427
0.872599
0.827707
0.557318
0.736603
0.781492
0.603547
0.648436
0.87261
0.827721
0
0
0
0
0
0
0
0.600724
0.73378
0.599247
0.823418
0.959428
0.824895
0.957951
0.60073
0.733783
0.599253
0.823427
0.959434
0.824904
0.957957
0
0
0
0
0
0
0
0.728776
0.614429
0.97309
0.594265
0.838579
0.818416
0.952927
0.728778
0.614433
0.973094
0.594269
0.838585
0.818421
0.95293
0.560198
0.875487
0.87549
0.829261
0.740957
0.694728
0.694731
)
;

boundaryField
{
    inlet
    {
        type            calculated;
        value           uniform 0;
    }
    wall
    {
        type            calculated;
        value           uniform 0;
    }
    outlet
    {
        type            calculated;
        value           uniform 0;
    }
    procBoundary3to1
    {
        type            processor;
        value           uniform 0;
    }
    procBoundary3to2
    {
        type            processor;
        value           uniform 0;
    }
}


// ************************************************************************* //
