/*--------------------------------*- C++ -*----------------------------------*\
| =========                 |                                                 |
| \\      /  F ield         | OpenFOAM: The Open Source CFD Toolbox           |
|  \\    /   O peration     | Version:  5.x                                   |
|   \\  /    A nd           | Web:      www.OpenFOAM.org                      |
|    \\/     M anipulation  |                                                 |
\*---------------------------------------------------------------------------*/
FoamFile
{
    version     2.0;
    format      ascii;
    class       volScalarField;
    location    "0.078";
    object      phiIB;
}
// * * * * * * * * * * * * * * * * * * * * * * * * * * * * * * * * * * * * * //

dimensions      [0 2 -1 0 0 0 0];

internalField   nonuniform List<scalar> 
1546
(
-0.000300535
-0.000300539
-0.000300553
-0.00030057
-0.000300642
-0.000300539
-0.000300543
-0.000300555
-0.000300574
-0.000300645
-0.000300552
-0.000300555
-0.000300566
-0.000300584
-0.000300652
-0.00030057
-0.000300574
-0.000300584
-0.000300603
-0.000300669
-0.000300642
-0.000300644
-0.000300651
-0.000300669
-0.000300731
-0.000610197
-0.000610194
-0.000610192
-0.000610203
-0.000610194
-0.000610194
-0.000610191
-0.000610189
-0.0006102
-0.000610191
-0.000610192
-0.000610189
-0.000610186
-0.000610197
-0.000610186
-0.000610202
-0.0006102
-0.000610197
-0.000610207
-0.000610195
-0.000610194
-0.00061019
-0.000610186
-0.000610195
-0.000610181
-0.00139968
-0.00139967
-0.00139969
-0.00139973
-0.00139981
-0.00139967
-0.00139967
-0.00139968
-0.00139972
-0.0013998
-0.00139969
-0.00139968
-0.0013997
-0.00139973
-0.00139981
-0.00139973
-0.00139972
-0.00139973
-0.00139977
-0.00139985
-0.00139981
-0.0013998
-0.00139981
-0.00139985
-0.00139992
-0.00183536
-0.00183535
-0.00183538
-0.00183543
-0.00183551
-0.00183535
-0.00183535
-0.00183537
-0.00183543
-0.0018355
-0.00183538
-0.00183537
-0.00183539
-0.00183545
-0.00183552
-0.00183543
-0.00183543
-0.00183545
-0.0018355
-0.00183557
-0.00183551
-0.0018355
-0.00183552
-0.00183557
-0.00183563
-0.00257178
-0.00257179
-0.00257184
-0.00257193
-0.00257209
-0.00257179
-0.00257179
-0.00257183
-0.00257192
-0.00257208
-0.00257184
-0.00257183
-0.00257188
-0.00257196
-0.00257211
-0.00257192
-0.00257192
-0.00257196
-0.00257204
-0.00257218
-0.00257209
-0.00257207
-0.00257211
-0.00257218
-0.00257232
-0.00305717
-0.00305718
-0.00305726
-0.00305739
-0.00305761
-0.00305718
-0.00305719
-0.00305726
-0.00305739
-0.0030576
-0.00305726
-0.00305726
-0.00305733
-0.00305745
-0.00305766
-0.00305739
-0.00305739
-0.00305745
-0.00305757
-0.00305777
-0.00305761
-0.0030576
-0.00305765
-0.00305777
-0.00305795
-0.00375206
-0.00375208
-0.0037522
-0.00375239
-0.00375273
-0.00375208
-0.00375209
-0.00375221
-0.0037524
-0.00375273
-0.0037522
-0.00375221
-0.00375232
-0.0037525
-0.00375281
-0.00375239
-0.0037524
-0.0037525
-0.00375267
-0.00375297
-0.00375273
-0.00375272
-0.00375281
-0.00375297
-0.00375325
-0.00427028
-0.00427031
-0.00427051
-0.00427078
-0.00427127
-0.00427031
-0.00427035
-0.00427053
-0.0042708
-0.00427127
-0.0042705
-0.00427053
-0.0042707
-0.00427096
-0.00427141
-0.00427078
-0.0042708
-0.00427096
-0.00427121
-0.00427165
-0.00427126
-0.00427127
-0.00427141
-0.00427165
-0.00427207
-0.00493364
-0.0049337
-0.00493398
-0.00493437
-0.00493507
-0.0049337
-0.00493375
-0.00493402
-0.0049344
-0.00493509
-0.00493397
-0.00493401
-0.00493426
-0.00493464
-0.00493529
-0.00493437
-0.0049344
-0.00493464
-0.004935
-0.00493563
-0.00493507
-0.00493509
-0.00493529
-0.00493563
-0.00493622
-0.00547377
-0.00547386
-0.00547428
-0.00547485
-0.00547587
-0.00547386
-0.00547395
-0.00547435
-0.00547491
-0.00547591
-0.00547428
-0.00547435
-0.00547472
-0.00547526
-0.00547623
-0.00547485
-0.00547491
-0.00547526
-0.00547578
-0.00547672
-0.00547587
-0.00547591
-0.00547623
-0.00547672
-0.0054776
-0.00611148
-0.00611162
-0.00611222
-0.00611303
-0.00611448
-0.00611162
-0.00611175
-0.00611233
-0.00611312
-0.00611455
-0.00611222
-0.00611233
-0.00611286
-0.00611362
-0.00611498
-0.00611303
-0.00611312
-0.00611362
-0.00611436
-0.00611567
-0.00611448
-0.00611455
-0.00611498
-0.00611567
-0.00611688
-0.00666333
-0.00666352
-0.00666435
-0.00666549
-0.0066676
-0.00666352
-0.0066637
-0.00666451
-0.00666563
-0.0066677
-0.00666435
-0.00666451
-0.00666528
-0.00666635
-0.00666835
-0.00666548
-0.00666563
-0.00666635
-0.00666739
-0.00666931
-0.0066676
-0.0066677
-0.00666835
-0.00666931
-0.00667112
-0.0072774
-0.00727772
-0.00727896
-0.00728055
-0.00728352
-0.00727772
-0.00727803
-0.00727921
-0.00728076
-0.00728367
-0.00727895
-0.0072792
-0.00728026
-0.00728175
-0.0072845
-0.00728055
-0.00728076
-0.00728175
-0.00728317
-0.0072858
-0.00728351
-0.00728367
-0.0072845
-0.0072858
-0.0072882
-0.00782949
-0.00782987
-0.00783142
-0.00783351
-0.00783766
-0.00782987
-0.00783021
-0.00783172
-0.00783376
-0.00783781
-0.00783142
-0.00783172
-0.00783315
-0.00783506
-0.00783896
-0.00783351
-0.00783376
-0.00783506
-0.00783687
-0.00784059
-0.00783766
-0.00783781
-0.00783896
-0.00784059
-0.00784405
-0.00841641
-0.00841739
-0.00841968
-0.00842184
-0.00842723
-0.00841739
-0.00841811
-0.00842003
-0.00842218
-0.00842743
-0.00841967
-0.00842003
-0.00842165
-0.00842373
-0.00842861
-0.00842183
-0.00842218
-0.00842373
-0.00842574
-0.00843042
-0.00842723
-0.00842743
-0.00842861
-0.00843042
-0.00843459
-0.0089602
-0.00895718
-0.00895727
-0.00895865
-0.00896415
-0.00895717
-0.00895608
-0.00895733
-0.00895861
-0.00896414
-0.00895725
-0.00895732
-0.0089589
-0.00895981
-0.0089654
-0.00895864
-0.0089586
-0.00895981
-0.0089611
-0.0089667
-0.00896415
-0.00896413
-0.0089654
-0.0089667
-0.00897213
-0.00952684
-0.00951682
-0.0095023
-0.00949833
-0.00950354
-0.00951682
-0.00950803
-0.00949841
-0.00949697
-0.00950234
-0.00950229
-0.00949841
-0.00949705
-0.00949727
-0.00950285
-0.0094983
-0.00949696
-0.00949726
-0.0094975
-0.00950341
-0.00950352
-0.00950233
-0.00950285
-0.00950341
-0.00950884
-0.00998932
-0.00998406
-0.00997766
-0.00996671
-0.0099704
-0.00998406
-0.00997793
-0.00996991
-0.00996106
-0.00996653
-0.00997765
-0.00996991
-0.00996133
-0.00995961
-0.00996704
-0.00996669
-0.00996105
-0.00995961
-0.00995888
-0.00996705
-0.0099704
-0.00996654
-0.00996705
-0.00996707
-0.00997766
-0.0103439
-0.0103479
-0.0103527
-0.0103558
-0.0103649
-0.0103479
-0.0103498
-0.0103524
-0.0103541
-0.0103639
-0.0103527
-0.0103524
-0.0103523
-0.0103517
-0.0103653
-0.0103558
-0.010354
-0.0103517
-0.0103558
-0.0103742
-0.0103648
-0.0103639
-0.0103653
-0.0103742
-0.0103977
-0.0105749
-0.0105861
-0.0106076
-0.0106276
-0.0106572
-0.0105861
-0.0105945
-0.0106125
-0.0106301
-0.0106597
-0.0106075
-0.0106125
-0.0106254
-0.0106389
-0.0106731
-0.0106276
-0.0106301
-0.0106389
-0.0106552
-0.0106936
-0.0106572
-0.0106597
-0.0106731
-0.0106937
-0.0107256
-0.0106077
-0.0106702
-0.0107182
-0.0107782
-0.0108429
-0.0106701
-0.0107064
-0.010743
-0.0107939
-0.0108537
-0.0107181
-0.010743
-0.0107746
-0.0108189
-0.0108742
-0.0107781
-0.0107939
-0.0108189
-0.010855
-0.0108996
-0.0108429
-0.0108537
-0.0108742
-0.0108996
-0.0109358
-0.0107933
-0.0107947
-0.0108409
-0.010893
-0.0109836
-0.0107946
-0.0108165
-0.0108547
-0.0109039
-0.010989
-0.0108409
-0.0108549
-0.0108872
-0.01093
-0.0110039
-0.010893
-0.0109039
-0.01093
-0.0109656
-0.011023
-0.0109837
-0.0109892
-0.011004
-0.0110232
-0.011068
-0.0104459
-0.0106417
-0.0107157
-0.0108485
-0.0109921
-0.0106415
-0.0107424
-0.0107857
-0.0108862
-0.0109974
-0.0107155
-0.0107857
-0.0108337
-0.0109172
-0.0110051
-0.0108483
-0.0108861
-0.0109171
-0.0109624
-0.0110275
-0.010992
-0.0109974
-0.0110051
-0.0110276
-0.0110821
-0.0108539
-0.0108277
-0.010915
-0.0109596
-0.0110925
-0.0108275
-0.0108932
-0.0109262
-0.0109717
-0.0110858
-0.0109151
-0.0109267
-0.0109565
-0.0109918
-0.0110902
-0.0109595
-0.0109718
-0.0109916
-0.0110167
-0.011095
-0.011093
-0.0110866
-0.0110905
-0.0110954
-0.0111537
-0.00959221
-0.0104995
-0.0105765
-0.0107871
-0.0109538
-0.0104992
-0.0107051
-0.0107157
-0.0108241
-0.010962
-0.010576
-0.0107157
-0.0107551
-0.0108398
-0.0109679
-0.0107866
-0.0108239
-0.0108395
-0.0109028
-0.0109953
-0.0109535
-0.0109619
-0.0109678
-0.0109953
-0.011064
-0.00994483
-0.010524
-0.0106367
-0.0107695
-0.0110262
-0.0105233
-0.010896
-0.0107744
-0.010851
-0.0110335
-0.0106368
-0.0107757
-0.0108089
-0.0108894
-0.0110463
-0.0107691
-0.010851
-0.0108888
-0.0109401
-0.0110587
-0.0110268
-0.0110351
-0.0110468
-0.0110594
-0.0111453
-0.00520719
-0.00933012
-0.0103502
-0.0105381
-0.0108228
-0.00932925
-0.0101777
-0.0104321
-0.0105828
-0.0108033
-0.0103493
-0.0104321
-0.0105531
-0.0106466
-0.0108252
-0.0105372
-0.0105822
-0.0106462
-0.0107299
-0.0108483
-0.010822
-0.0108027
-0.0108248
-0.0108482
-0.0109318
-0.0101805
-0.0121273
-0.0108447
-0.010873
-0.0109925
-0.0121252
-0.0107461
-0.0108399
-0.0107866
-0.0109454
-0.0108444
-0.0108417
-0.0108255
-0.0108313
-0.0109545
-0.0108721
-0.010786
-0.0108302
-0.01083
-0.0109344
-0.010993
-0.010947
-0.0109547
-0.0109353
-0.0110198
-0.0115193
-0.0107864
-0.0104075
-0.0104996
-0.0106177
-0.0107835
-0.010295
-0.0103919
-0.0104747
-0.0105569
-0.0104053
-0.0103913
-0.0104407
-0.0104822
-0.0105784
-0.0104981
-0.0104734
-0.0104814
-0.0105252
-0.0105776
-0.0106159
-0.0105558
-0.0105777
-0.0105772
-0.0106347
-0.00906748
-0.0101703
-0.0101939
-0.0105192
-0.0106728
-0.0101699
-0.0102918
-0.0103733
-0.0105272
-0.0106322
-0.0101928
-0.0103739
-0.0104485
-0.0105582
-0.010656
-0.010518
-0.0105265
-0.0105575
-0.0105777
-0.0106356
-0.0106723
-0.0106325
-0.0106558
-0.0106358
-0.0107121
-0.00760469
-0.00920857
-0.0101026
-0.0102127
-0.010135
-0.00920744
-0.00955699
-0.0100464
-0.0101823
-0.010106
-0.0101013
-0.0100453
-0.0100869
-0.0101184
-0.0101193
-0.0102116
-0.0101815
-0.0101181
-0.0101439
-0.0101199
-0.0101338
-0.0101048
-0.0101187
-0.0101196
-0.0101474
-0.0117891
-0.0111529
-0.0105993
-0.0103278
-0.0103473
-0.0111519
-0.0103822
-0.0103829
-0.010324
-0.010297
-0.0105989
-0.0103828
-0.0103625
-0.0102969
-0.0102885
-0.0103272
-0.0103236
-0.0102967
-0.0102629
-0.0102532
-0.0103472
-0.0102971
-0.0102886
-0.0102533
-0.0102666
-0.0101337
-0.00971345
-0.00945588
-0.00959462
-0.00951594
-0.00971328
-0.0094914
-0.00957833
-0.00953394
-0.00953311
-0.00945554
-0.00957791
-0.0095288
-0.00955026
-0.0095232
-0.00959418
-0.00953353
-0.00955022
-0.00953826
-0.00952562
-0.00951554
-0.00953263
-0.00952311
-0.00952544
-0.00952051
-0.0094868
-0.00983572
-0.00957168
-0.00962226
-0.00954961
-0.0098357
-0.00983214
-0.00965837
-0.00962512
-0.00957123
-0.00957159
-0.00965825
-0.00958126
-0.00959101
-0.0095585
-0.00962214
-0.00962495
-0.00959099
-0.00957129
-0.00954572
-0.00954961
-0.00957108
-0.00955853
-0.00954564
-0.00954152
-0.00814312
-0.00838208
-0.00828459
-0.00839076
-0.00838607
-0.008382
-0.00837316
-0.00838163
-0.00841082
-0.00841101
-0.00828437
-0.0083815
-0.00838473
-0.00842407
-0.00840696
-0.00839052
-0.00841061
-0.00842409
-0.00841194
-0.00838631
-0.00838588
-0.0084106
-0.0084068
-0.00838612
-0.00837141
-0.00777462
-0.00780045
-0.00763424
-0.00765568
-0.00761918
-0.00780035
-0.00774938
-0.00765966
-0.00765711
-0.0076386
-0.00763399
-0.00765936
-0.00761629
-0.00763123
-0.00763343
-0.00765544
-0.00765687
-0.00763122
-0.00764119
-0.00764065
-0.00761885
-0.00763831
-0.00763333
-0.00764052
-0.00764508
-0.00577871
-0.00577772
-0.0057035
-0.00568244
-0.00565995
-0.00577764
-0.0057522
-0.00570384
-0.00567452
-0.00565216
-0.00570328
-0.00570358
-0.00567106
-0.00565638
-0.00564536
-0.00568219
-0.00567424
-0.00565631
-0.00565426
-0.00565923
-0.0056596
-0.00565175
-0.00564519
-0.0056591
-0.00567377
-0.0049229
-0.00485289
-0.00471172
-0.00462628
-0.00458559
-0.00485285
-0.0047798
-0.00466594
-0.00460728
-0.00457565
-0.00471155
-0.0046658
-0.00459424
-0.00457172
-0.00455496
-0.00462606
-0.00460706
-0.00457168
-0.00455539
-0.00454462
-0.00458519
-0.00457526
-0.00455478
-0.00454447
-0.00454215
-0.00211667
-0.00213524
-0.00213415
-0.00205715
-0.00200815
-0.00213523
-0.00213378
-0.00210413
-0.00201602
-0.00200173
-0.00213409
-0.00210407
-0.00203816
-0.0019941
-0.00199173
-0.00205698
-0.00201586
-0.0019941
-0.00198428
-0.00198603
-0.00200796
-0.00200159
-0.00199169
-0.001986
-0.00198847
-0.00132605
-0.00123348
-0.00111102
-0.00107257
-0.00104499
-0.00123349
-0.00116472
-0.00109343
-0.00106352
-0.00104001
-0.00111095
-0.00109334
-0.00106497
-0.00104777
-0.00103326
-0.00107249
-0.00106345
-0.0010478
-0.00103938
-0.00102848
-0.0010448
-0.00103981
-0.00103316
-0.00102836
-0.00102658
-0.0080186
-0.00801743
-0.0100086
-0.0114056
-0.0133143
-0.0133136
-0.0110985
-0.0125636
-0.012563
-0.0109651
-0.0108036
-0.0099766
-0.00997629
-0.00936741
-0.00993317
-0.00993302
-0.009698
-0.00931651
-0.0092568
-0.0092567
-0.00926738
-0.00919181
-0.00919315
-0.00941356
-0.00680325
-0.00842524
-0.00842433
-0.00962073
-0.0112903
-0.0112891
-0.0104649
-0.00952996
-0.0100095
-0.0100086
-0.0101843
-0.0101912
-0.0107667
-0.0101243
-0.0100536
-0.0104417
-0.0102573
-0.0104765
-0.0107638
-0.0101912
-0.0101231
-0.0100522
-0.0102573
-0.0104395
-0.0104746
-0.0108485
-0.0112974
-0.0104206
-0.0104205
-0.0100141
-0.0110576
-0.0110574
-0.0104203
-0.0108626
-0.0103979
-0.01096
-0.00997365
-0.0105633
-0.00996168
-0.0108627
-0.0104191
-0.0103966
-0.0109597
-0.0105632
-0.00997301
-0.00996136
-0.0111359
-0.0109932
-0.0111385
-0.00973381
-0.0107584
-0.0108202
-0.0112764
-0.0111357
-0.0109928
-0.0111382
-0.00973362
-0.0107581
-0.0108201
-0.0112761
-0.0109379
-0.0109338
-0.0105431
-0.0119074
-0.0117332
-0.011731
-0.0106333
-0.0102402
-0.011376
-0.0113752
-0.011652
-0.0110332
-0.010963
-0.0109611
-0.0112139
-0.0115414
-0.0109
-0.0103334
-0.0112536
-0.00964859
-0.0120201
-0.0112137
-0.0115391
-0.0108993
-0.0103309
-0.0112532
-0.00964761
-0.0120176
-0.0111512
-0.0102206
-0.0103531
-0.010353
-0.0108331
-0.0108329
-0.0111428
-0.0118231
-0.0110781
-0.0110775
-0.0095234
-0.0114567
-0.0107165
-0.0107151
-0.0114764
-0.011916
-0.0119158
-0.0118875
-0.0121285
-0.0117689
-0.0117687
-0.0117383
-0.0120521
-0.0123422
-0.0115419
-0.0121285
-0.0112284
-0.0120145
-0.0117382
-0.0120516
-0.0123416
-0.0115413
-0.0121282
-0.011228
-0.0120141
-0.0120078
-0.0120066
-0.0118788
-0.012399
-0.0119926
-0.0122448
-0.0122438
-0.0110021
-0.0108471
-0.010652
-0.012005
-0.0107906
-0.010951
-0.0106093
-0.0108466
-0.0110025
-0.0106515
-0.0119966
-0.0109521
-0.0107912
-0.010607
-0.0125644
-0.011375
-0.0120881
-0.0125001
-0.0125919
-0.0123457
-0.0126891
-0.0125609
-0.0113762
-0.0120882
-0.0124988
-0.0125911
-0.0123474
-0.0126875
-0.0119642
-0.0114313
-0.0114309
-0.0105323
-0.0125954
-0.0111829
-0.0111827
-0.0113437
-0.0113438
-0.0123897
-0.0129263
-0.0112208
-0.0114628
-0.011463
-0.0111837
-0.010594
-0.0116243
-0.0116241
-0.0118918
-0.0108516
-0.0108514
-0.00988617
-0.00974775
-0.010047
-0.0111939
-0.0105528
-0.0108083
-0.01037
-0.0097413
-0.00988437
-0.010044
-0.0111924
-0.0108084
-0.0105503
-0.010367
-0.011061
-0.0111322
-0.0113517
-0.0109552
-0.0112066
-0.0103753
-0.0105795
-0.0111313
-0.0110599
-0.011351
-0.0109543
-0.011206
-0.0103747
-0.0105786
-0.0118972
-0.0115334
-0.0120426
-0.0130185
-0.0112133
-0.0122602
-0.0113924
-0.0118968
-0.0115322
-0.0120421
-0.0130175
-0.0112116
-0.0122598
-0.011392
-0.00915575
-0.00915397
-0.009151
-0.00722358
-0.00884778
-0.00884555
-0.0102641
-0.0124611
-0.0109639
-0.0109628
-0.0115589
-0.0117539
-0.0120253
-0.0120243
-0.0131728
-0.0124634
-0.0106939
-0.0135664
-0.0134272
-0.0127032
-0.0128892
-0.0131722
-0.0124619
-0.0106914
-0.0135646
-0.0134312
-0.0127023
-0.0128876
-0.0115819
-0.0104425
-0.0100928
-0.0113619
-0.0112142
-0.0110437
-0.0112199
-0.0115818
-0.0104413
-0.0100986
-0.0113565
-0.011215
-0.0110456
-0.0112175
-0.0120405
-0.0106129
-0.0116269
-0.0116265
-0.0112728
-0.011271
-0.0128825
-0.0138463
-0.011596
-0.0115945
-0.0112512
-0.0123392
-0.0119013
-0.0119016
-0.00964043
-0.00735619
-0.00735592
-0.00927511
-0.00774619
-0.00946093
-0.00946074
-0.0100498
-0.00688177
-0.00906865
-0.00806743
-0.00735933
-0.00884944
-0.0102017
-0.0100492
-0.00688094
-0.00906545
-0.00806625
-0.00735537
-0.00884735
-0.0102013
-0.0110426
-0.0108499
-0.0111926
-0.0111169
-0.0106685
-0.0103627
-0.0104409
-0.0110408
-0.0111911
-0.0108482
-0.0111137
-0.0106667
-0.0103597
-0.0104388
-0.00838223
-0.00838154
-0.00919904
-0.00679413
-0.00194863
-0.00375297
-0.00375177
-0.0102577
-0.00967003
-0.0104005
-0.0108476
-0.0099672
-0.0102076
-0.010338
-0.0096689
-0.0102578
-0.0104014
-0.0108472
-0.010207
-0.00996602
-0.0103369
-0.0118275
-0.0115841
-0.0114074
-0.0107202
-0.0105837
-0.0105084
-0.0109959
-0.0118266
-0.0115809
-0.0114075
-0.0107227
-0.0105829
-0.0105088
-0.0109945
-0.0109058
-0.00988589
-0.010475
-0.00812645
-0.00984492
-0.0102032
-0.00727835
-0.010907
-0.00987923
-0.0104724
-0.0081182
-0.00984307
-0.010201
-0.00727528
-0.00868719
-0.00942694
-0.00942311
-0.0101088
-0.00731523
-0.0102616
-0.0102578
-0.0108565
-0.0108575
-0.00974594
-0.00866679
-0.0099378
-0.0099313
-0.00993331
-0.00691115
-0.00691121
-0.00733197
-0.00830914
-0.00705871
-0.00753898
-0.00753819
-0.00995069
-0.010098
-0.0100067
-0.00919096
-0.0104682
-0.00956194
-0.0104858
-0.0100974
-0.00995084
-0.0100066
-0.00918933
-0.00955929
-0.0104658
-0.0104836
-0.00976735
-0.00910812
-0.0103627
-0.0099508
-0.0100072
-0.00971892
-0.00948853
-0.00910352
-0.00976667
-0.0103612
-0.00994701
-0.0100034
-0.00971526
-0.00948751
-0.00620284
-0.00882222
-0.00683713
-0.00827781
-0.0092202
-0.00971792
-0.00763001
-0.00620171
-0.00882121
-0.00683604
-0.00827799
-0.00921893
-0.00971556
-0.00763028
-0.0105767
-0.0105768
-0.0108601
-0.00782605
-0.00873273
-0.0087326
-0.00933801
-0.00491081
-0.00657481
-0.00657416
-0.0035466
-0.00759102
-0.0051043
-0.00510339
-0.00899361
-0.00899125
-0.00767984
-0.00846259
-0.0101542
-0.00949901
-0.00949709
-0.0064839
-0.00842904
-0.0091697
-0.00842098
-0.00871916
-0.00866886
-0.00558401
-0.00648275
-0.00842761
-0.00916846
-0.00842011
-0.00871771
-0.0086677
-0.00558419
-0.0104111
-0.0101747
-0.0103167
-0.00979545
-0.0095675
-0.0101634
-0.0101468
-0.0104087
-0.0101745
-0.0103159
-0.00979189
-0.00956496
-0.0101625
-0.010145
-0.0108554
-0.010856
-0.0106415
-0.0108003
-0.0106048
-0.010604
-0.010372
-0.0110376
-0.010934
-0.011481
-0.0108597
-0.010735
-0.0109282
-0.0105501
-0.0110375
-0.0109338
-0.0114822
-0.0108602
-0.0107353
-0.0109278
-0.0105511
-0.0101727
-0.0101689
-0.0102821
-0.0102512
-0.0103899
-0.0103883
-0.0101157
-0.0106617
-0.0110544
-0.0103406
-0.010438
-0.0104761
-0.0106396
-0.010647
-0.0106587
-0.0110535
-0.0103397
-0.0104337
-0.0104747
-0.0106356
-0.0106437
-0.00757338
-0.00968327
-0.0096828
-0.00964185
-0.00968274
-0.00932544
-0.00932661
)
;

boundaryField
{
    inlet
    {
        type            fixedValue;
        value           uniform 0;
    }
    wall
    {
        type            zeroGradient;
    }
    outlet
    {
        type            fixedValue;
        value           uniform 0;
    }
    procBoundary3to1
    {
        type            processor;
        value           nonuniform List<scalar> 
320
(
-0.000300553
-0.000300558
-0.000300573
-0.000300591
-0.000300665
-0.00061021
-0.000610206
-0.000610205
-0.000610216
-0.00061021
-0.00139971
-0.00139971
-0.00139973
-0.00139977
-0.00139986
-0.0018354
-0.00183539
-0.00183542
-0.00183548
-0.00183556
-0.00257184
-0.00257184
-0.0025719
-0.00257199
-0.00257216
-0.00305723
-0.00305725
-0.00305733
-0.00305747
-0.00305769
-0.00375214
-0.00375216
-0.00375229
-0.00375249
-0.00375283
-0.00427037
-0.00427041
-0.00427062
-0.0042709
-0.00427139
-0.00493376
-0.00493382
-0.00493411
-0.00493452
-0.00493523
-0.00547392
-0.00547401
-0.00547445
-0.00547503
-0.00547608
-0.00611165
-0.0061118
-0.00611243
-0.00611326
-0.00611474
-0.00666355
-0.00666375
-0.00666462
-0.00666577
-0.00666793
-0.00727765
-0.007278
-0.00727929
-0.00728091
-0.00728394
-0.00782983
-0.00783023
-0.00783184
-0.00783397
-0.00783819
-0.00841692
-0.00841792
-0.00842032
-0.0084225
-0.00842803
-0.00896051
-0.00895772
-0.00895814
-0.00895963
-0.00896529
-0.00952718
-0.00951717
-0.00950307
-0.00949957
-0.00950526
-0.00999047
-0.00998528
-0.00997896
-0.0099682
-0.00997215
-0.0103462
-0.0103503
-0.0103558
-0.0103592
-0.0103686
-0.0105777
-0.0105891
-0.0106108
-0.010631
-0.0106607
-0.0106119
-0.0106746
-0.0107234
-0.0107834
-0.0108484
-0.0107977
-0.0107992
-0.010846
-0.0108984
-0.0109901
-0.0104512
-0.0106478
-0.0107236
-0.010857
-0.0110034
-0.0108604
-0.0108334
-0.0109238
-0.0109671
-0.011104
-0.00960308
-0.0105133
-0.0105885
-0.0107987
-0.0109705
-0.00994935
-0.0105176
-0.0106518
-0.0107791
-0.0110449
-0.00519379
-0.00932361
-0.0103671
-0.0105535
-0.0108453
-0.0101876
-0.0121849
-0.0108519
-0.010886
-0.0110158
-0.0115258
-0.0107882
-0.0104213
-0.0105115
-0.0106364
-0.00906019
-0.010175
-0.0102134
-0.0105283
-0.0106923
-0.00757796
-0.00921016
-0.010133
-0.0102121
-0.0101551
-0.0117842
-0.011163
-0.010624
-0.0103376
-0.0103616
-0.0101494
-0.00972179
-0.00948164
-0.0096064
-0.00953657
-0.00947519
-0.00984596
-0.00957829
-0.00962975
-0.00956478
-0.00813993
-0.00839022
-0.00828692
-0.00839378
-0.00839168
-0.00777591
-0.00780004
-0.00763741
-0.00765351
-0.00762244
-0.00577513
-0.00577853
-0.00570013
-0.0056793
-0.00565842
-0.00492523
-0.00485504
-0.00471135
-0.00462117
-0.0045857
-0.00211599
-0.00213668
-0.00213466
-0.00206189
-0.00201109
-0.0013252
-0.00123235
-0.00111676
-0.00107749
-0.00104892
-0.0114009
-0.013304
-0.00803277
-0.0107993
-0.00997912
-0.0125622
-0.00930156
-0.00925459
-0.00992809
-0.00674681
-0.00841391
-0.00917636
-0.00953406
-0.0100268
-0.011288
-0.0100483
-0.0104568
-0.0101892
-0.0104164
-0.0110559
-0.0112935
-0.0109211
-0.00998169
-0.0104224
-0.0109893
-0.0112726
-0.0111344
-0.011917
-0.0117344
-0.0109729
-0.0116558
-0.0109704
-0.0113785
-0.0115454
-0.0120023
-0.01032
-0.0118812
-0.0117657
-0.0119128
-0.0120539
-0.012009
-0.0115363
-0.0120187
-0.0122552
-0.012001
-0.0119642
-0.01081
-0.0110018
-0.0125789
-0.0126988
-0.0125595
-0.0116208
-0.0108543
-0.0105903
-0.0112011
-0.010573
-0.00986434
-0.0113477
-0.0105723
-0.0110559
-0.0115483
-0.0114063
-0.0120397
-0.00722614
-0.00882573
-0.00914403
-0.0115661
-0.0120339
-0.0109779
-0.012497
-0.0128982
-0.0135586
-0.0104312
-0.0112023
-0.0113651
-0.00926517
-0.00945909
-0.00734545
-0.00689127
-0.0102085
-0.00805598
-0.0108459
-0.0103974
-0.0110678
-0.00839008
-0.00375952
-0.00194833
-0.010823
-0.00997321
-0.0102662
-0.0115955
-0.0109764
-0.0105535
-0.00986489
-0.00726084
-0.0109212
-0.00687937
-0.00750131
-0.00700848
-0.00917848
-0.0104632
-0.00994239
-0.0103609
-0.00946776
-0.00976318
-0.00919761
-0.00762375
-0.00617662
-0.00782377
-0.0087389
-0.010592
-0.00355479
-0.00511814
-0.00656697
-0.00841484
-0.00560122
-0.00843409
-0.0101555
-0.010153
-0.00980834
)
;
    }
    procBoundary3to2
    {
        type            processor;
        value           nonuniform List<scalar> 
320
(
-0.000300553
-0.000300557
-0.000300572
-0.00030059
-0.000300664
-0.00061021
-0.000610206
-0.000610205
-0.000610216
-0.000610209
-0.00139971
-0.00139971
-0.00139973
-0.00139976
-0.00139985
-0.0018354
-0.00183539
-0.00183542
-0.00183548
-0.00183556
-0.00257184
-0.00257184
-0.0025719
-0.00257199
-0.00257215
-0.00305723
-0.00305724
-0.00305733
-0.00305746
-0.00305769
-0.00375214
-0.00375216
-0.00375229
-0.00375249
-0.00375283
-0.00427037
-0.00427041
-0.00427061
-0.0042709
-0.00427139
-0.00493376
-0.00493382
-0.00493411
-0.00493451
-0.00493523
-0.00547392
-0.00547401
-0.00547444
-0.00547503
-0.00547607
-0.00611165
-0.0061118
-0.00611243
-0.00611325
-0.00611474
-0.00666355
-0.00666375
-0.00666461
-0.00666577
-0.00666793
-0.00727765
-0.007278
-0.00727929
-0.0072809
-0.00728394
-0.00782983
-0.00783022
-0.00783184
-0.00783396
-0.00783819
-0.00841692
-0.00841792
-0.00842031
-0.00842249
-0.00842802
-0.0089605
-0.0089577
-0.00895813
-0.00895962
-0.00896528
-0.00952718
-0.00951716
-0.00950305
-0.00949954
-0.00950524
-0.00999046
-0.00998526
-0.00997894
-0.00996816
-0.00997215
-0.0103462
-0.0103503
-0.0103558
-0.0103591
-0.0103685
-0.0105776
-0.010589
-0.0106107
-0.0106309
-0.0106607
-0.0106118
-0.0106744
-0.0107232
-0.0107832
-0.0108483
-0.0107977
-0.0107989
-0.0108461
-0.0108982
-0.0109903
-0.010451
-0.0106476
-0.0107233
-0.0108567
-0.0110032
-0.0108605
-0.010833
-0.0109242
-0.0109669
-0.0111049
-0.00960263
-0.0105126
-0.0105876
-0.0107978
-0.0109698
-0.00994923
-0.010517
-0.0106523
-0.0107785
-0.0110468
-0.00519298
-0.00932278
-0.0103656
-0.0105519
-0.010844
-0.0101861
-0.0121762
-0.0108528
-0.0108862
-0.0110182
-0.0115245
-0.0107786
-0.0104179
-0.01051
-0.0106342
-0.00905986
-0.0101716
-0.0102132
-0.0105275
-0.0106928
-0.00757788
-0.0092085
-0.0101313
-0.0102105
-0.0101534
-0.011784
-0.0111619
-0.0106236
-0.0103368
-0.0103617
-0.0101492
-0.00972101
-0.00948072
-0.00960536
-0.00953543
-0.00947483
-0.00984553
-0.00957772
-0.00962908
-0.00956418
-0.00813962
-0.00838981
-0.00828626
-0.0083931
-0.00839098
-0.00777559
-0.00779974
-0.00763695
-0.00765305
-0.00762184
-0.00577491
-0.00577828
-0.00569972
-0.00567887
-0.00565784
-0.00492511
-0.00485486
-0.00471102
-0.00462081
-0.00458518
-0.00211591
-0.0021366
-0.00213455
-0.00206156
-0.00201082
-0.00132515
-0.00123229
-0.00111657
-0.00107732
-0.00104864
-0.00803164
-0.0133032
-0.0114008
-0.0125614
-0.00997867
-0.0107992
-0.00992766
-0.00925422
-0.00930129
-0.00917661
-0.00841311
-0.00674679
-0.0112868
-0.0100228
-0.00953351
-0.0101888
-0.0104545
-0.0100499
-0.0112934
-0.0110556
-0.0104161
-0.0104212
-0.00998084
-0.0109205
-0.011134
-0.0112722
-0.0109888
-0.0109666
-0.0117357
-0.0119157
-0.0113778
-0.0109707
-0.0116564
-0.0103182
-0.0120016
-0.0115418
-0.0119125
-0.0117653
-0.0118811
-0.0115355
-0.0120084
-0.0120533
-0.0119998
-0.0122531
-0.0120168
-0.0109948
-0.0108042
-0.011961
-0.012556
-0.0126949
-0.0125826
-0.0105902
-0.0108541
-0.0116205
-0.00986255
-0.0105709
-0.0111998
-0.0110548
-0.0105714
-0.0113469
-0.0120392
-0.0114059
-0.0115472
-0.00914179
-0.0088201
-0.00722455
-0.0109746
-0.0120314
-0.0115648
-0.0135585
-0.0128944
-0.0124907
-0.0113671
-0.0112029
-0.0104397
-0.00734522
-0.00945883
-0.00926506
-0.00805486
-0.0102081
-0.00689068
-0.0110662
-0.0103957
-0.0108444
-0.00194624
-0.00375589
-0.00838717
-0.0102649
-0.00997074
-0.0108203
-0.0105511
-0.0109778
-0.0115907
-0.0109182
-0.00725582
-0.00986152
-0.00700846
-0.00750063
-0.00687938
-0.00994167
-0.010461
-0.00917785
-0.00976204
-0.00946664
-0.0103594
-0.00617592
-0.00762355
-0.00919628
-0.0105917
-0.00873853
-0.00782313
-0.00656545
-0.00511595
-0.00355336
-0.00843306
-0.00560004
-0.00841311
-0.00980489
-0.0101511
-0.0101547
)
;
    }
}


// ************************************************************************* //
