/*--------------------------------*- C++ -*----------------------------------*\
| =========                 |                                                 |
| \\      /  F ield         | OpenFOAM: The Open Source CFD Toolbox           |
|  \\    /   O peration     | Version:  5.x                                   |
|   \\  /    A nd           | Web:      www.OpenFOAM.org                      |
|    \\/     M anipulation  |                                                 |
\*---------------------------------------------------------------------------*/
FoamFile
{
    version     2.0;
    format      ascii;
    class       volScalarField;
    location    "0.08";
    object      Ksl;
}
// * * * * * * * * * * * * * * * * * * * * * * * * * * * * * * * * * * * * * //

dimensions      [1 -3 -1 0 0 0 0];

internalField   nonuniform List<scalar> 
320
(
0
0
0
0
0
0
0
0
3.79335e-05
0.000547714
0.000217042
1.61441e-05
0.000881803
0.0103051
0.00605839
0.000411106
0.0125649
0.20677
0.106349
0.00632795
0.205496
2.06509
1.04776
0.109585
1.46907
3.0821
1.48803
0.727535
0.0780287
1.14825
0.607044
0.0393746
0.00205475
0.03359
0.0184814
0.00100728
4.86583e-05
0.000613711
0.000351217
2.68567e-05
8.0584e-07
1.16376e-05
6.67466e-06
0
0
0
0
0
0
0
0
0
0
0
0
0
0
0
0
0
0
0
0
0
0
0
0
0
0
0
0
0
0
0
0
0
0
0
0
0
0
0
0
0
0
7.86572e-05
6.96118e-05
0
0.000547714
0.00275058
0.00241283
0.000435063
0.0103051
0.0652257
0.0556257
0.0107251
0.20677
4.4327
1.84478
0.169271
2.06509
3.2673
1.54373
1.12488
3.0821
3.19554
1.50976
1.46083
1.14825
4.40629
1.73932
0.537774
0.03359
0.203003
0.248561
0.0154127
0.000613711
0.00387547
0.00280298
0.000390952
1.16376e-05
0.000140516
8.93165e-05
1.23377e-05
0
3.78989e-06
2.71421e-06
0
0
0
0
0
0
0
0
0
0
0
0
0
0
0
0
0
0
0
0
0
0
0
0
0
0
0
0
0
0
0
0
0
0
0
0
0
0
6.96118e-05
6.54936e-05
0
0.000217042
0.00241283
0.00189472
0.000130486
0.00605839
0.0556257
0.0538453
0.00457806
0.106349
1.84478
1.0319
0.0802332
1.04776
1.54373
1.0271
0.717484
1.48803
1.50976
1.00896
0.986983
0.607044
1.73932
1.11208
0.402426
0.0184814
0.248561
0.30996
0.0118027
0.000351217
0.00280298
0.00165153
0.000276874
6.67466e-06
8.93165e-05
8.24e-05
6.89642e-06
0
2.71421e-06
1.73696e-06
0
0
0
0
0
0
0
0
0
0
0
0
0
0
0
0
0
0
0
0
0
0
0
0
0
0
0
0
0
0
0
0
0
0
0
0
0
0
0
0
0
1.61441e-05
0.000435063
0.000130486
0
0.000411106
0.0107251
0.00457806
0.000228383
0.00632795
0.169271
0.0802332
0.00426458
0.109585
1.12488
0.717484
0.0762061
0.727535
1.46083
0.986983
0.496978
0.0393746
0.537774
0.402426
0.0271787
0.00100728
0.0154127
0.0118027
0.000694058
2.68567e-05
0.000390952
0.000276874
1.8716e-05
0
1.23377e-05
6.89642e-06
0
0
0
0
0
0
0
0
0
0
0
0
0
0
0
0
0
0
0
0
0
0
0
0
0
0
0
0
0
0
0
0
0
0
0
0
0
)
;

boundaryField
{
    inlet
    {
        type            zeroGradient;
    }
    outlet
    {
        type            zeroGradient;
    }
    walls
    {
        type            zeroGradient;
    }
}


// ************************************************************************* //
