/*--------------------------------*- C++ -*----------------------------------*\
| =========                 |                                                 |
| \\      /  F ield         | OpenFOAM: The Open Source CFD Toolbox           |
|  \\    /   O peration     | Version:  5.x                                   |
|   \\  /    A nd           | Web:      www.OpenFOAM.org                      |
|    \\/     M anipulation  |                                                 |
\*---------------------------------------------------------------------------*/
FoamFile
{
    version     2.0;
    format      ascii;
    class       volScalarField;
    location    "0.08";
    object      p;
}
// * * * * * * * * * * * * * * * * * * * * * * * * * * * * * * * * * * * * * //

dimensions      [0 2 -2 0 0 0 0];

internalField   nonuniform List<scalar> 
320
(
-5.23591e-09
2.63353e-08
-1.73204e-09
-1.57105e-08
-6.52814e-08
4.75987e-08
-5.83272e-08
-1.01124e-07
-1.31307e-07
1.77675e-07
-8.47687e-08
-2.03756e-07
-4.74711e-07
1.59051e-07
-3.5437e-07
-5.77357e-07
-1.05412e-06
9.01501e-08
-7.33622e-07
-1.15594e-06
-2.33892e-06
1.55715e-06
-1.02627e-06
-2.6211e-06
-7.00101e-06
-5.86103e-06
-6.67132e-06
-7.04971e-06
-1.30102e-05
-1.60121e-05
-1.41321e-05
-1.28732e-05
-1.60862e-05
-1.84061e-05
-1.66104e-05
-1.58894e-05
-1.72662e-05
-1.82593e-05
-1.74988e-05
-1.71588e-05
-1.7753e-05
-1.82802e-05
-1.79218e-05
-1.77015e-05
-1.79508e-05
-1.82819e-05
-1.80026e-05
-1.79107e-05
-1.81924e-05
-1.83281e-05
-1.82287e-05
-1.81867e-05
-1.80697e-05
-1.81407e-05
-1.80746e-05
-1.80563e-05
-1.82901e-05
-1.83252e-05
-1.82971e-05
-1.82879e-05
-1.81085e-05
-1.81212e-05
-1.81053e-05
-1.81046e-05
-1.82892e-05
-1.82962e-05
-1.82922e-05
-1.82866e-05
-1.8143e-05
-1.81463e-05
-1.81421e-05
-1.81448e-05
-1.82511e-05
-1.82527e-05
-1.82517e-05
-1.82494e-05
-1.81923e-05
-1.81948e-05
-1.81935e-05
-1.81924e-05
2.63353e-08
7.2307e-08
3.12539e-08
1.6905e-08
4.75987e-08
2.3176e-07
7.45085e-08
-6.11136e-09
1.77675e-07
7.13404e-07
2.68255e-07
7.70044e-08
1.59051e-07
1.58194e-06
4.89071e-07
-1.72729e-08
9.01501e-08
3.90304e-06
1.13909e-06
-2.4899e-08
1.55715e-06
1.94758e-05
8.59062e-06
5.25542e-07
-5.86103e-06
-2.56082e-06
-5.21133e-06
-5.99216e-06
-1.60121e-05
-3.69721e-05
-2.40636e-05
-1.52747e-05
-1.84061e-05
-2.55226e-05
-2.0676e-05
-1.78198e-05
-1.82593e-05
-2.01225e-05
-1.8524e-05
-1.80529e-05
-1.82802e-05
-1.90297e-05
-1.83383e-05
-1.81733e-05
-1.82819e-05
-1.87871e-05
-1.83135e-05
-1.82184e-05
-1.83281e-05
-1.85278e-05
-1.83511e-05
-1.83158e-05
-1.81407e-05
-1.82443e-05
-1.81369e-05
-1.81244e-05
-1.83252e-05
-1.8366e-05
-1.83291e-05
-1.83205e-05
-1.81212e-05
-1.81437e-05
-1.81194e-05
-1.81158e-05
-1.82962e-05
-1.83009e-05
-1.82956e-05
-1.82949e-05
-1.81463e-05
-1.81536e-05
-1.81477e-05
-1.81463e-05
-1.82527e-05
-1.82526e-05
-1.82523e-05
-1.82519e-05
-1.81948e-05
-1.81984e-05
-1.81963e-05
-1.81947e-05
-1.73204e-09
3.12539e-08
7.94882e-09
-1.23738e-08
-5.83272e-08
7.45085e-08
-4.52993e-08
-9.14262e-08
-8.47687e-08
2.68255e-07
1.28311e-08
-1.52876e-07
-3.5437e-07
4.89071e-07
-5.35604e-08
-4.35491e-07
-7.33622e-07
1.13909e-06
-2.2447e-07
-8.36778e-07
-1.02627e-06
8.59062e-06
4.52329e-06
-1.38455e-06
-6.67132e-06
-5.21133e-06
-6.06426e-06
-6.76984e-06
-1.41321e-05
-2.40636e-05
-1.96882e-05
-1.41162e-05
-1.66104e-05
-2.0676e-05
-1.82594e-05
-1.64877e-05
-1.74988e-05
-1.8524e-05
-1.77408e-05
-1.73815e-05
-1.79218e-05
-1.83383e-05
-1.80301e-05
-1.78546e-05
-1.80026e-05
-1.83135e-05
-1.80321e-05
-1.79594e-05
-1.82287e-05
-1.83511e-05
-1.82876e-05
-1.82183e-05
-1.80746e-05
-1.81369e-05
-1.80678e-05
-1.80587e-05
-1.82971e-05
-1.83291e-05
-1.83143e-05
-1.82937e-05
-1.81053e-05
-1.81194e-05
-1.81024e-05
-1.81032e-05
-1.82922e-05
-1.82956e-05
-1.82924e-05
-1.82856e-05
-1.81421e-05
-1.81477e-05
-1.81425e-05
-1.81437e-05
-1.82517e-05
-1.82523e-05
-1.82521e-05
-1.82509e-05
-1.81935e-05
-1.81963e-05
-1.8195e-05
-1.81936e-05
-1.57105e-08
1.6905e-08
-1.23738e-08
-2.5128e-08
-1.01124e-07
-6.11136e-09
-9.14262e-08
-1.32264e-07
-2.03756e-07
7.70044e-08
-1.52876e-07
-2.64633e-07
-5.77357e-07
-1.72729e-08
-4.35491e-07
-6.61534e-07
-1.15594e-06
-2.4899e-08
-8.36778e-07
-1.28663e-06
-2.6211e-06
5.25542e-07
-1.38455e-06
-2.8697e-06
-7.04971e-06
-5.99216e-06
-6.76984e-06
-7.10113e-06
-1.28732e-05
-1.52747e-05
-1.41162e-05
-1.26381e-05
-1.58894e-05
-1.78198e-05
-1.64877e-05
-1.57124e-05
-1.71588e-05
-1.80529e-05
-1.73815e-05
-1.70725e-05
-1.77015e-05
-1.81733e-05
-1.78546e-05
-1.76524e-05
-1.79107e-05
-1.82184e-05
-1.79594e-05
-1.78695e-05
-1.81867e-05
-1.83158e-05
-1.82183e-05
-1.81723e-05
-1.80563e-05
-1.81244e-05
-1.80587e-05
-1.80413e-05
-1.82879e-05
-1.83205e-05
-1.82937e-05
-1.8283e-05
-1.81046e-05
-1.81158e-05
-1.81032e-05
-1.8101e-05
-1.82866e-05
-1.82949e-05
-1.82856e-05
-1.82826e-05
-1.81448e-05
-1.81463e-05
-1.81437e-05
-1.81448e-05
-1.82494e-05
-1.82519e-05
-1.82509e-05
-1.82485e-05
-1.81924e-05
-1.81947e-05
-1.81936e-05
-1.81924e-05
)
;

boundaryField
{
    inlet
    {
        type            zeroGradient;
    }
    outlet
    {
        type            totalPressure;
        rho             rho;
        psi             none;
        gamma           1;
        p0              uniform 0;
        value           nonuniform List<scalar> 
16
(
-1.30092e-14
0
-2.84051e-14
-9.90026e-14
0
0
0
-5.12228e-15
-2.84051e-14
0
-4.23187e-14
-1.27363e-13
-9.90026e-14
-5.12228e-15
-1.27363e-13
-2.50009e-13
)
;
    }
    walls
    {
        type            zeroGradient;
    }
}


// ************************************************************************* //
