/*--------------------------------*- C++ -*----------------------------------*\
| =========                 |                                                 |
| \\      /  F ield         | OpenFOAM: The Open Source CFD Toolbox           |
|  \\    /   O peration     | Version:  5.x                                   |
|   \\  /    A nd           | Web:      www.OpenFOAM.org                      |
|    \\/     M anipulation  |                                                 |
\*---------------------------------------------------------------------------*/
FoamFile
{
    version     2.0;
    format      ascii;
    class       surfaceScalarField;
    location    "0.08";
    object      phi;
}
// * * * * * * * * * * * * * * * * * * * * * * * * * * * * * * * * * * * * * //

dimensions      [0 3 -1 0 0 0 0];

internalField   nonuniform List<scalar> 
784
(
-3.9007e-13
1.43708e-12
-3.9007e-13
7.41953e-13
-2.89509e-12
-6.43625e-13
8.98497e-13
1.07569e-12
-5.01985e-13
3.81066e-12
-4.85023e-13
-1.68808e-12
4.81324e-12
-1.68808e-12
2.68552e-12
-4.4455e-12
-2.82317e-12
2.63915e-12
3.27214e-12
-2.15007e-12
7.79863e-12
-1.34881e-12
-5.25784e-12
1.53289e-11
-5.25784e-12
6.19534e-12
-6.83449e-12
-9.06421e-12
7.24209e-12
9.16203e-12
-6.93665e-12
1.98998e-11
-4.85903e-12
-1.18189e-11
3.89666e-11
-1.18189e-11
1.20422e-11
-2.79185e-12
-2.79037e-11
1.43928e-11
2.50474e-11
-1.82359e-11
4.46974e-11
-1.04049e-11
-3.25198e-11
1.04006e-10
-3.25198e-11
2.48552e-11
2.50168e-11
-8.51836e-11
3.638e-11
6.95584e-11
-5.60358e-11
1.10384e-10
-2.93071e-11
-6.97692e-11
2.43545e-10
-6.97692e-11
4.73622e-11
1.9643e-10
-2.88545e-10
6.76252e-11
2.22741e-10
-1.73446e-10
2.37175e-10
-5.91652e-11
-9.89824e-11
4.41509e-10
-9.89824e-11
5.2869e-11
4.483e-10
-4.03722e-10
9.95814e-11
4.30955e-10
-2.54926e-10
4.24891e-10
-8.81344e-11
-2.98268e-11
5.01163e-10
-2.98268e-11
1.42688e-11
4.92678e-10
-8.84735e-11
4.05965e-11
4.75895e-10
-7.1268e-11
4.95113e-10
-2.96258e-11
2.42902e-11
4.52583e-10
2.42902e-11
-5.08199e-11
3.78613e-10
1.89175e-10
-2.55673e-11
4.40325e-10
1.03168e-11
4.57654e-10
1.18914e-11
9.00093e-11
2.72564e-10
9.00093e-11
-5.97369e-11
1.85268e-10
3.43091e-10
-9.55206e-11
2.61221e-10
2.14888e-10
2.81464e-10
8.06698e-11
8.1297e-11
1.0997e-10
8.1297e-11
-2.43599e-11
3.67592e-11
2.54165e-10
-8.52294e-11
7.71729e-11
2.44917e-10
1.1554e-10
8.06944e-11
2.53499e-11
5.92701e-11
2.53499e-11
-1.64675e-11
1.10283e-11
6.75483e-11
-2.82247e-11
3.29503e-11
5.59799e-11
6.39441e-11
2.33712e-11
1.99178e-11
1.94346e-11
1.99178e-11
-7.33513e-12
7.95156e-13
3.74861e-11
-2.21573e-11
1.06169e-11
3.71556e-11
2.21737e-11
1.96131e-11
4.24714e-12
1.09403e-11
4.24714e-12
-3.69576e-12
-1.68834e-12
1.04264e-11
-5.45549e-12
3.68719e-12
8.68939e-12
1.28589e-11
3.85923e-12
4.0116e-12
2.91708e-12
4.0116e-12
-1.99815e-12
-4.41117e-13
4.76252e-12
-5.01976e-12
1.57193e-12
5.13687e-12
3.83772e-12
4.00145e-12
5.60457e-13
1.79615e-12
5.60457e-13
-8.2594e-13
-8.11696e-13
1.75697e-12
-8.60657e-13
1.87336e-13
1.41931e-12
2.54868e-12
4.28379e-13
6.97645e-13
4.00859e-13
6.97645e-13
-4.52981e-13
-2.11384e-13
5.50311e-13
-1.1517e-12
2.35874e-13
6.50183e-13
6.28941e-13
7.68043e-13
9.65796e-14
2.077e-13
9.65796e-14
-1.98421e-13
-2.07977e-13
2.91599e-13
-1.52142e-13
-7.13854e-15
1.96742e-13
4.43524e-13
3.32834e-14
1.06593e-13
-5.48278e-15
1.06593e-13
-1.23259e-13
-5.58886e-14
7.77717e-14
-2.57851e-13
1.73962e-14
1.10063e-13
5.30313e-14
1.32641e-13
-2.73955e-15
-2.73955e-15
-7.34982e-14
1.48695e-14
-5.83329e-14
2.22511e-15
-5.31053e-15
-6.43625e-13
-2.89509e-12
7.41953e-13
8.45953e-13
-9.78945e-12
8.45953e-13
8.98353e-13
-4.04657e-12
7.33285e-13
-1.7884e-13
8.19973e-13
-2.82317e-12
-4.4455e-12
2.68552e-12
3.79273e-12
-2.30213e-11
3.79273e-12
4.3374e-12
-9.61054e-12
2.86923e-12
6.70088e-13
2.13966e-12
-9.06421e-12
-6.83449e-12
6.19534e-12
9.21683e-12
-5.95833e-11
9.21683e-12
1.08832e-11
-2.43776e-11
6.16401e-12
1.23885e-12
5.45546e-12
-2.79037e-11
-2.79185e-12
1.20422e-11
2.27502e-11
-1.60891e-10
2.27502e-11
2.96269e-11
-6.34489e-11
1.39587e-11
1.0452e-11
1.00089e-11
-8.51836e-11
2.50168e-11
2.48552e-11
5.84715e-11
-4.48201e-10
5.84715e-11
8.30227e-11
-1.74158e-10
3.0122e-11
4.36347e-11
2.0533e-11
-2.88545e-10
1.9643e-10
4.73622e-11
1.62692e-10
-1.35068e-09
1.62692e-10
2.57371e-10
-5.12374e-10
7.0091e-11
2.0604e-10
3.58004e-11
-4.03722e-10
4.483e-10
5.2869e-11
2.0799e-10
-2.5741e-09
2.0799e-10
3.99997e-10
-1.03473e-09
7.54183e-11
4.77956e-10
3.99469e-11
-8.84735e-11
4.92678e-10
1.42688e-11
4.58414e-11
-2.84273e-09
4.58414e-11
1.44878e-10
-1.22126e-09
1.62271e-11
5.79794e-10
1.34142e-11
1.89175e-10
3.78613e-10
-5.08199e-11
-1.68122e-10
-2.12813e-09
-1.68122e-10
-1.81329e-10
-1.07212e-09
-1.25611e-10
4.55372e-10
-4.50151e-11
3.43091e-10
1.85268e-10
-5.97369e-11
-1.9597e-10
-1.05001e-09
-1.9597e-10
-3.57849e-10
-6.07887e-10
-8.74675e-11
2.25257e-10
-4.70646e-11
2.54165e-10
3.67592e-11
-2.43599e-11
-8.10153e-11
-3.7965e-10
-8.10153e-11
-2.61584e-10
-1.95036e-10
1.26346e-11
5.76204e-11
-1.32531e-11
6.75483e-11
1.10283e-11
-1.64675e-11
-3.84538e-11
-1.67646e-10
-3.84538e-11
-7.11599e-11
-9.40688e-11
-1.2281e-11
2.27619e-11
-1.29302e-11
3.74861e-11
7.95156e-13
-7.33513e-12
-1.57588e-11
-6.11557e-11
-1.57588e-11
-4.1132e-11
-3.07543e-11
-7.85744e-13
6.2319e-12
-4.98885e-12
1.04264e-11
-1.68834e-12
-3.69576e-12
-7.2647e-12
-2.57735e-11
-7.2647e-12
-1.17258e-11
-1.45464e-11
-3.05732e-12
1.54266e-12
-3.17733e-12
4.76252e-12
-4.41117e-13
-1.99815e-12
-2.83871e-12
-1.05711e-11
-2.83871e-12
-6.12622e-12
-5.13264e-12
-9.89413e-13
1.03438e-12
-1.6165e-12
1.75697e-12
-8.11696e-13
-8.2594e-13
-1.54124e-12
-3.97466e-12
-1.54124e-12
-2.19293e-12
-2.30828e-12
-7.53379e-13
-5.27023e-14
-6.7747e-13
5.50311e-13
-2.11384e-13
-4.52981e-13
-4.74738e-13
-1.92456e-12
-4.74738e-13
-9.70278e-13
-8.49685e-13
-3.12862e-13
2.12133e-13
-4.67059e-13
2.91599e-13
-2.07977e-13
-1.98421e-13
-3.6841e-13
-6.04531e-13
-3.6841e-13
-4.10658e-13
-3.84379e-13
-2.26303e-13
-4.49139e-15
-1.60744e-13
7.77717e-14
-5.58886e-14
-1.23259e-13
-1.06287e-13
-2.36408e-13
-1.06287e-13
-2.27085e-13
-5.86152e-14
-9.49044e-14
2.43134e-14
-1.23258e-13
1.48695e-14
-7.34982e-14
-1.03339e-13
-1.03339e-13
-8.65472e-14
-7.31961e-14
-6.75535e-14
-5.01985e-13
1.07569e-12
8.98497e-13
7.33285e-13
-4.04657e-12
8.98353e-13
1.10029e-12
-2.27437e-13
1.10029e-12
3.5764e-12
9.18219e-13
-2.15007e-12
3.27214e-12
2.63915e-12
2.86923e-12
-9.61054e-12
4.3374e-12
2.98258e-12
-4.54132e-13
2.98258e-12
6.39756e-12
2.30106e-12
-6.93665e-12
9.16203e-12
7.24209e-12
6.16401e-12
-2.43776e-11
1.08832e-11
9.24518e-12
-6.61648e-12
9.24518e-12
1.44403e-11
6.65788e-12
-1.82359e-11
2.50474e-11
1.43928e-11
1.39587e-11
-6.34489e-11
2.96269e-11
2.04695e-11
-1.9638e-11
2.04695e-11
3.194e-11
1.29786e-11
-5.60358e-11
6.95584e-11
3.638e-11
3.0122e-11
-1.74158e-10
8.30227e-11
5.75784e-11
-7.4551e-11
5.75784e-11
7.76821e-11
3.23693e-11
-1.73446e-10
2.22741e-10
6.76252e-11
7.0091e-11
-5.12374e-10
2.57371e-10
1.67277e-10
-2.68923e-10
1.67277e-10
2.21383e-10
5.93763e-11
-2.54926e-10
4.30955e-10
9.95814e-11
7.54183e-11
-1.03473e-09
3.99997e-10
2.57371e-10
-6.32828e-10
2.57371e-10
4.30236e-10
8.84656e-11
-7.1268e-11
4.75895e-10
4.05965e-11
1.62271e-11
-1.22126e-09
1.44878e-10
9.18054e-11
-7.83984e-10
9.18054e-11
4.98035e-10
3.742e-11
1.03168e-11
4.40325e-10
-2.55673e-11
-1.25611e-10
-1.07212e-09
-1.81329e-10
-3.34248e-11
-9.68357e-10
-3.34248e-11
4.36429e-10
-1.68334e-11
2.14888e-10
2.61221e-10
-9.55206e-11
-8.74675e-11
-6.07887e-10
-3.57849e-10
-2.256e-10
-6.92092e-10
-2.256e-10
2.48153e-10
-8.43896e-11
2.44917e-10
7.71729e-11
-8.52294e-11
1.26346e-11
-1.95036e-10
-2.61584e-10
-2.37792e-10
-1.91238e-10
-2.37792e-10
7.88626e-11
-8.17546e-11
5.59799e-11
3.29503e-11
-2.82247e-11
-1.2281e-11
-9.40688e-11
-7.11599e-11
-5.70051e-11
-1.0179e-10
-5.70051e-11
3.4737e-11
-2.58096e-11
3.71556e-11
1.06169e-11
-2.21573e-11
-7.85744e-13
-3.07543e-11
-4.1132e-11
-3.82052e-11
-2.69509e-11
-3.82052e-11
1.29609e-11
-2.14179e-11
8.68939e-12
3.68719e-12
-5.45549e-12
-3.05732e-12
-1.45464e-11
-1.17258e-11
-9.45825e-12
-1.41491e-11
-9.45825e-12
5.29755e-12
-4.97228e-12
5.13687e-12
1.57193e-12
-5.01976e-12
-9.89413e-13
-5.13264e-12
-6.12622e-12
-6.18422e-12
-3.75945e-12
-6.18422e-12
2.46201e-12
-4.96518e-12
1.41931e-12
1.87336e-13
-8.60657e-13
-7.53379e-13
-2.30828e-12
-2.19293e-12
-1.65052e-12
-1.96517e-12
-1.65052e-12
8.86878e-13
-7.52853e-13
6.50183e-13
2.35874e-13
-1.1517e-12
-3.12862e-13
-8.49685e-13
-9.70278e-13
-1.09876e-12
-3.93364e-13
-1.09876e-12
5.03343e-13
-1.18227e-12
1.96742e-13
-7.13854e-15
-1.52142e-13
-2.26303e-13
-3.84379e-13
-4.10658e-13
-2.75367e-13
-2.95224e-13
-2.75367e-13
1.649e-13
-9.76663e-14
1.10063e-13
1.73962e-14
-2.57851e-13
-9.49044e-14
-5.86152e-14
-2.27085e-13
-2.45247e-13
5.45167e-15
-2.45247e-13
8.4036e-14
-2.87653e-13
2.22511e-15
-5.83329e-14
-7.31961e-14
-8.65472e-14
-7.0478e-14
-7.0478e-14
-5.40047e-14
-4.85023e-13
3.81066e-12
8.19973e-13
-1.7884e-13
9.18219e-13
3.5764e-12
5.89649e-12
-1.34881e-12
7.79863e-12
2.13966e-12
6.70088e-13
2.30106e-12
6.39756e-12
1.04986e-11
-4.85903e-12
1.98998e-11
5.45546e-12
1.23885e-12
6.65788e-12
1.44403e-11
2.38144e-11
-1.04049e-11
4.46974e-11
1.00089e-11
1.0452e-11
1.29786e-11
3.194e-11
4.97716e-11
-2.93071e-11
1.10384e-10
2.0533e-11
4.36347e-11
3.23693e-11
7.76821e-11
1.1451e-10
-5.91652e-11
2.37175e-10
3.58004e-11
2.0604e-10
5.93763e-11
2.21383e-10
2.33263e-10
-8.81344e-11
4.24891e-10
3.99469e-11
4.77956e-10
8.84656e-11
4.30236e-10
4.10194e-10
-2.96258e-11
4.95113e-10
1.34142e-11
5.79794e-10
3.742e-11
4.98035e-10
4.85034e-10
1.18914e-11
4.57654e-10
-4.50151e-11
4.55372e-10
-1.68334e-11
4.36429e-10
4.51367e-10
8.06698e-11
2.81464e-10
-4.70646e-11
2.25257e-10
-8.43896e-11
2.48153e-10
2.82588e-10
8.06944e-11
1.1554e-10
-1.32531e-11
5.76204e-11
-8.17546e-11
7.88626e-11
1.19079e-10
2.33712e-11
6.39441e-11
-1.29302e-11
2.27619e-11
-2.58096e-11
3.4737e-11
6.74596e-11
1.96131e-11
2.21737e-11
-4.98885e-12
6.2319e-12
-2.14179e-11
1.29609e-11
2.46238e-11
3.85923e-12
1.28589e-11
-3.17733e-12
1.54266e-12
-4.97228e-12
5.29755e-12
1.46793e-11
4.00145e-12
3.83772e-12
-1.6165e-12
1.03438e-12
-4.96518e-12
2.46201e-12
4.7489e-12
4.28379e-13
2.54868e-12
-6.7747e-13
-5.27024e-14
-7.52853e-13
8.86878e-13
3.2432e-12
7.68043e-13
6.28941e-13
-4.67059e-13
2.12133e-13
-1.18227e-12
5.03343e-13
8.78666e-13
3.32834e-14
4.43524e-13
-1.60744e-13
-4.49139e-15
-9.76663e-14
1.649e-13
6.83326e-13
1.32641e-13
5.30313e-14
-1.23258e-13
2.43134e-14
-2.87653e-13
8.4036e-14
1.08009e-13
-5.31053e-15
-6.75535e-14
-5.40047e-14
)
;

boundaryField
{
    inlet
    {
        type            calculated;
        value           uniform 0;
    }
    outlet
    {
        type            calculated;
        value           nonuniform List<scalar> 
16
(
-6.56937e-13
2.4067e-12
-7.30245e-13
-2.42713e-12
2.4067e-12
6.8103e-12
2.75891e-12
-2.27798e-13
-7.30245e-13
2.75891e-12
-5.06576e-13
-2.57435e-12
-2.42713e-12
-2.27798e-13
-2.57435e-12
-4.06006e-12
)
;
    }
    walls
    {
        type            calculated;
        value           nonuniform List<scalar> 
320
(
0
0
1.37782e-28
1.56842e-25
9.84863e-23
5.91475e-20
1.03517e-17
1.48778e-20
5.23282e-24
1.6544e-27
0
0
0
0
0
0
0
0
0
0
0
0
2.43707e-26
2.69521e-23
2.97937e-20
1.45668e-17
7.98191e-16
8.0487e-18
3.14513e-21
7.67321e-25
0
0
0
0
0
0
0
0
0
0
0
0
9.17849e-27
1.52486e-23
1.49349e-20
7.29685e-18
3.855e-16
4.25537e-18
1.75314e-21
4.50627e-25
0
0
0
0
0
0
0
0
0
0
0
0
1.94728e-29
2.9137e-26
2.47104e-23
2.09685e-20
5.12733e-18
7.50871e-21
3.89842e-24
1.8745e-27
0
0
0
0
0
0
0
0
0
0
0
0
-1.94728e-29
-2.9137e-26
-2.47104e-23
-2.09685e-20
-5.12733e-18
-7.50871e-21
-3.89842e-24
-1.8745e-27
0
0
0
0
0
0
0
0
0
0
0
0
-7.70424e-27
-1.39484e-23
-1.61647e-20
-7.88573e-18
-3.78528e-16
-3.74641e-18
-2.16509e-21
-9.84054e-25
0
0
0
0
0
0
0
0
0
0
0
0
-2.22377e-27
-5.80279e-24
-7.5638e-21
-5.03042e-18
-2.55759e-16
-2.8402e-18
-1.70133e-21
-7.24241e-25
0
0
0
0
0
0
0
0
0
0
0
0
0
-8.1367e-27
-1.11527e-23
-1.46288e-20
-3.50354e-18
-7.82585e-21
-5.44218e-24
-3.32921e-27
0
0
0
0
0
0
0
0
0
0
0
0
1.37782e-28
1.56842e-25
9.84863e-23
5.91475e-20
1.03517e-17
1.48778e-20
5.23282e-24
1.6544e-27
0
0
0
0
0
0
0
0
0
0
0
0
2.43707e-26
2.69521e-23
2.97937e-20
1.45668e-17
7.98191e-16
8.0487e-18
3.14513e-21
7.67321e-25
0
0
0
0
0
0
0
0
0
0
0
0
9.17849e-27
1.52486e-23
1.49349e-20
7.29685e-18
3.855e-16
4.25537e-18
1.75314e-21
4.50627e-25
0
0
0
0
0
0
0
0
0
0
0
0
1.94728e-29
2.9137e-26
2.47104e-23
2.09685e-20
5.12733e-18
7.50871e-21
3.89842e-24
1.8745e-27
0
0
0
0
0
0
0
0
0
0
0
0
-1.94728e-29
-2.9137e-26
-2.47104e-23
-2.09685e-20
-5.12733e-18
-7.50871e-21
-3.89842e-24
-1.8745e-27
0
0
0
0
0
0
0
0
0
0
0
0
-7.70424e-27
-1.39484e-23
-1.61647e-20
-7.88573e-18
-3.78528e-16
-3.74641e-18
-2.16509e-21
-9.84054e-25
0
0
0
0
0
0
0
0
0
0
0
0
-2.22377e-27
-5.80279e-24
-7.5638e-21
-5.03042e-18
-2.55759e-16
-2.8402e-18
-1.70133e-21
-7.24241e-25
0
0
0
0
0
0
0
0
0
0
0
0
0
-8.1367e-27
-1.11527e-23
-1.46288e-20
-3.50354e-18
-7.82585e-21
-5.44218e-24
-3.32921e-27
0
0
0
0
0
0
0
0
0
0
)
;
    }
}


// ************************************************************************* //
