/*--------------------------------*- C++ -*----------------------------------*\
| =========                 |                                                 |
| \\      /  F ield         | OpenFOAM: The Open Source CFD Toolbox           |
|  \\    /   O peration     | Version:  5.x                                   |
|   \\  /    A nd           | Web:      www.OpenFOAM.org                      |
|    \\/     M anipulation  |                                                 |
\*---------------------------------------------------------------------------*/
FoamFile
{
    version     2.0;
    format      ascii;
    class       volVectorField;
    location    "0.08";
    object      U;
}
// * * * * * * * * * * * * * * * * * * * * * * * * * * * * * * * * * * * * * //

dimensions      [0 1 -1 0 0 0 0];

internalField   nonuniform List<vector> 
320
(
(-8.22991e-08 1.34155e-07 -8.22991e-08)
(2.30155e-09 -3.44073e-07 -1.30133e-07)
(1.80837e-07 1.49274e-07 -9.69704e-08)
(9.28683e-08 4.47111e-07 -1.06989e-07)
(-3.72815e-07 2.76386e-07 -3.72815e-07)
(1.21682e-08 -7.29683e-07 -5.79823e-07)
(6.42383e-07 1.27741e-07 -4.45137e-07)
(2.05473e-07 6.96413e-07 -2.87876e-07)
(-1.02772e-06 1.52937e-06 -1.02772e-06)
(-1.36743e-07 -4.26954e-07 -1.72776e-06)
(1.61783e-06 1.14245e-06 -1.24459e-06)
(6.28754e-07 2.11915e-06 -9.34147e-07)
(-2.25173e-06 3.14694e-06 -2.25173e-06)
(-4.31635e-07 -2.08827e-06 -5.10198e-06)
(3.29698e-06 1.46095e-06 -3.27568e-06)
(1.1697e-06 4.06749e-06 -1.92884e-06)
(-6.01121e-06 1.0588e-05 -6.01121e-06)
(-1.87647e-06 7.61499e-07 -1.50901e-05)
(7.92383e-06 7.31569e-06 -9.34109e-06)
(3.13805e-06 1.16994e-05 -5.15537e-06)
(-1.18469e-05 2.44679e-05 -1.18469e-05)
(-4.13695e-06 1.11393e-05 -4.69276e-05)
(1.4818e-05 1.87001e-05 -2.63881e-05)
(5.61396e-06 2.47427e-05 -9.78895e-06)
(-1.86822e-05 5.35969e-05 -1.86822e-05)
(-8.3339e-06 4.78582e-05 -7.84823e-05)
(2.22589e-05 5.12492e-05 -4.4049e-05)
(9.17438e-06 5.19198e-05 -1.57717e-05)
(-9.08534e-06 7.74784e-05 -9.08534e-06)
(-4.47121e-06 7.85692e-05 -3.29934e-05)
(1.1355e-05 7.31908e-05 -1.96707e-05)
(3.50154e-06 7.49763e-05 -8.42949e-06)
(8.01411e-06 8.13313e-05 8.01411e-06)
(-3.18056e-06 7.87085e-05 4.27265e-05)
(-9.19665e-06 8.02665e-05 1.59575e-05)
(5.33327e-07 8.082e-05 6.29579e-06)
(1.83699e-05 6.49112e-05 1.83699e-05)
(6.56832e-06 5.09354e-05 7.13226e-05)
(-2.28714e-05 6.44759e-05 4.05738e-05)
(-7.96995e-06 6.64099e-05 1.58468e-05)
(1.31683e-05 2.5158e-05 1.31683e-05)
(1.02292e-05 1.05177e-05 4.479e-05)
(-1.68115e-05 2.16907e-05 3.28146e-05)
(-9.72399e-06 2.65317e-05 1.18956e-05)
(4.67402e-06 1.14528e-05 4.67402e-06)
(2.22185e-06 5.98464e-07 1.311e-05)
(-6.58951e-06 4.38688e-06 8.58696e-06)
(-2.60288e-06 1.21256e-05 4.04823e-06)
(3.32952e-06 6.20464e-06 3.32952e-06)
(2.36216e-06 2.49293e-06 6.73552e-06)
(-4.34704e-06 5.09893e-06 5.19879e-06)
(-2.58286e-06 6.87347e-06 3.01472e-06)
(7.95838e-07 9.48252e-07 7.95838e-07)
(3.30774e-07 -2.06042e-06 2.05462e-06)
(-1.3098e-06 -9.91234e-07 1.35421e-06)
(-4.82689e-07 1.26128e-06 6.81837e-07)
(6.92653e-07 1.83248e-06 6.92653e-07)
(4.34202e-07 1.23722e-06 8.8222e-07)
(-9.73877e-07 1.74642e-06 7.63525e-07)
(-6.01759e-07 2.05564e-06 6.50068e-07)
(1.1911e-07 -5.2646e-07 1.1911e-07)
(2.27758e-08 -1.22662e-06 3.56241e-07)
(-2.40846e-07 -9.6504e-07 2.27814e-07)
(-6.00191e-08 -3.9568e-07 8.48932e-08)
(1.23877e-07 8.2335e-07 1.23877e-07)
(7.14917e-08 7.7803e-07 1.08771e-07)
(-2.00933e-07 8.83383e-07 1.10284e-07)
(-1.43268e-07 8.79672e-07 1.29471e-07)
(2.21572e-08 -5.76019e-07 2.21572e-08)
(8.23809e-10 -7.30736e-07 6.32313e-08)
(-5.12077e-08 -6.89854e-07 3.45727e-08)
(-6.94555e-09 -5.29088e-07 1.13262e-08)
(2.20995e-08 5.59273e-07 2.20995e-08)
(7.04993e-09 5.81025e-07 1.95789e-08)
(-4.37155e-08 6.0302e-07 2.20559e-08)
(-3.14242e-08 5.64949e-07 2.42615e-08)
(-5.00453e-09 -5.16436e-07 -5.00453e-09)
(2.85851e-09 -5.55013e-07 -1.57495e-09)
(-2.21445e-08 -5.52791e-07 -5.61441e-09)
(5.34939e-09 -5.04861e-07 -6.09693e-09)
(-1.30133e-07 -3.44073e-07 2.30155e-09)
(-6.41067e-09 -1.08881e-06 -6.41067e-09)
(2.04599e-07 -4.07299e-07 -1.36049e-08)
(8.4737e-08 5.72344e-08 2.90849e-09)
(-5.79823e-07 -7.29683e-07 1.21682e-08)
(-3.39308e-08 -2.42417e-06 -3.39308e-08)
(9.53693e-07 -1.07821e-06 -2.46701e-08)
(3.68926e-07 -1.54322e-07 1.67423e-09)
(-1.72776e-06 -4.26954e-07 -1.36743e-07)
(-2.89606e-07 -5.1358e-06 -2.89606e-07)
(2.44172e-06 -1.77365e-06 -3.57381e-07)
(9.50068e-07 4.78743e-07 -1.50117e-07)
(-5.10198e-06 -2.08827e-06 -4.31635e-07)
(-1.31628e-06 -1.61141e-05 -1.31628e-06)
(6.58861e-06 -6.99285e-06 -1.02355e-06)
(2.5399e-06 -2.29138e-07 -4.45597e-07)
(-1.50901e-05 7.61499e-07 -1.87647e-06)
(-4.85131e-06 -4.26423e-05 -4.85131e-06)
(1.81853e-05 -1.65036e-05 -4.36464e-06)
(7.34701e-06 3.9305e-06 -1.86638e-06)
(-4.69276e-05 1.11393e-05 -4.13695e-06)
(-1.81023e-05 -6.59531e-05 -1.81023e-05)
(5.3083e-05 -2.26449e-05 -1.42784e-05)
(2.22148e-05 1.41532e-05 -3.99224e-06)
(-7.84823e-05 4.78582e-05 -8.3339e-06)
(-3.28727e-05 -0.000368371 -3.28727e-05)
(8.81161e-05 -0.000148761 -2.82573e-05)
(3.7281e-05 5.06391e-05 -8.20425e-06)
(-3.29934e-05 7.85692e-05 -4.47121e-06)
(-1.41492e-05 -0.000496468 -1.41492e-05)
(4.00073e-05 -0.000214939 -1.42108e-05)
(1.4502e-05 8.71504e-05 -4.40206e-06)
(4.27265e-05 7.87085e-05 -3.18056e-06)
(3.42674e-06 -0.000389776 3.42674e-06)
(-4.55856e-05 -0.000164641 -1.47575e-05)
(-9.00034e-06 9.40982e-05 -4.28894e-06)
(7.13226e-05 5.09354e-05 6.56832e-06)
(2.76173e-05 -0.00025475 2.76173e-05)
(-8.27621e-05 -0.00015903 2.1988e-05)
(-3.2345e-05 5.98542e-05 6.41135e-06)
(4.479e-05 1.05177e-05 1.02292e-05)
(3.03777e-05 -8.25259e-05 3.03777e-05)
(-5.31036e-05 -3.58842e-05 4.13315e-05)
(-3.05964e-05 1.53116e-05 1.14199e-05)
(1.311e-05 5.98464e-07 2.22185e-06)
(5.93342e-06 -4.49733e-05 5.93342e-06)
(-1.64052e-05 -2.90226e-05 7.51661e-06)
(-7.21499e-06 2.67119e-06 2.31372e-06)
(6.73552e-06 2.49293e-06 2.36216e-06)
(4.05658e-06 -9.34653e-06 4.05658e-06)
(-8.37756e-06 -2.49974e-06 5.81392e-06)
(-4.78693e-06 3.87594e-06 2.59849e-06)
(2.05462e-06 -2.06042e-06 3.30774e-07)
(8.25867e-07 -8.88726e-06 8.25867e-07)
(-2.77965e-06 -6.18759e-06 1.1006e-06)
(-1.17259e-06 -1.36196e-06 3.36692e-07)
(8.8222e-07 1.23722e-06 4.34202e-07)
(4.53593e-07 -4.77735e-07 4.53593e-07)
(-1.22635e-06 6.6394e-07 7.22208e-07)
(-7.2172e-07 1.57945e-06 4.7912e-07)
(3.56241e-07 -1.22662e-06 2.27758e-08)
(1.18348e-07 -2.20916e-06 1.18348e-07)
(-5.31887e-07 -1.8014e-06 1.63206e-07)
(-2.06773e-07 -1.0224e-06 2.25024e-08)
(1.08771e-07 7.7803e-07 7.14917e-08)
(4.63832e-08 5.25002e-07 4.63832e-08)
(-1.79375e-07 7.42175e-07 7.88834e-08)
(-1.26009e-07 8.64816e-07 8.19883e-08)
(6.32313e-08 -7.30736e-07 8.23809e-10)
(1.07889e-08 -8.83481e-07 1.07889e-08)
(-1.08421e-07 -8.39274e-07 1.44022e-08)
(-3.12572e-08 -6.81845e-07 -4.16479e-09)
(1.95789e-08 5.81025e-07 7.04993e-09)
(4.33345e-09 5.67321e-07 4.33345e-09)
(-3.89183e-08 6.16221e-07 9.8177e-09)
(-2.96719e-08 5.97948e-07 1.1307e-08)
(-1.57495e-09 -5.55013e-07 2.85851e-09)
(3.2716e-09 -5.87684e-07 3.2716e-09)
(-2.99981e-08 -5.92084e-07 4.99185e-09)
(4.44242e-09 -5.46704e-07 2.85647e-09)
(-9.69704e-08 1.49274e-07 1.80837e-07)
(-1.36049e-08 -4.07299e-07 2.04599e-07)
(2.00364e-07 1.12928e-07 2.00364e-07)
(1.18125e-07 4.7323e-07 2.00157e-07)
(-4.45137e-07 1.27741e-07 6.42383e-07)
(-2.46701e-08 -1.07821e-06 9.53693e-07)
(7.14142e-07 -2.37875e-07 7.14142e-07)
(2.49686e-07 5.61222e-07 5.20944e-07)
(-1.24459e-06 1.14245e-06 1.61783e-06)
(-3.57381e-07 -1.77365e-06 2.44172e-06)
(1.83836e-06 1.75132e-07 1.83836e-06)
(8.84684e-07 1.77398e-06 1.45483e-06)
(-3.27568e-06 1.46095e-06 3.29698e-06)
(-1.02355e-06 -6.99285e-06 6.58861e-06)
(4.34863e-06 -2.63248e-06 4.34863e-06)
(1.82841e-06 2.4854e-06 2.83361e-06)
(-9.34109e-06 7.31569e-06 7.92383e-06)
(-4.36464e-06 -1.65036e-05 1.81853e-05)
(1.13265e-05 -5.84471e-06 1.13265e-05)
(5.79278e-06 8.71115e-06 6.7406e-06)
(-2.63881e-05 1.87001e-05 1.4818e-05)
(-1.42784e-05 -2.26449e-05 5.3083e-05)
(2.98226e-05 -8.4741e-06 2.98226e-05)
(1.6054e-05 1.93079e-05 1.21451e-05)
(-4.4049e-05 5.12492e-05 2.22589e-05)
(-2.82573e-05 -0.000148761 8.81161e-05)
(4.86092e-05 -8.53648e-05 4.86092e-05)
(2.90486e-05 5.11536e-05 1.85162e-05)
(-1.96707e-05 7.31908e-05 1.1355e-05)
(-1.42108e-05 -0.000214939 4.00073e-05)
(2.32566e-05 -0.000139943 2.32566e-05)
(1.28422e-05 7.4078e-05 1.02557e-05)
(1.59575e-05 8.02665e-05 -9.19665e-06)
(-1.47575e-05 -0.000164641 -4.55856e-05)
(-1.81412e-05 -0.000100235 -1.81412e-05)
(8.60486e-06 8.40735e-05 -6.93081e-06)
(4.05738e-05 6.44759e-05 -2.28714e-05)
(2.1988e-05 -0.00015903 -8.27621e-05)
(-4.65837e-05 -0.000195581 -4.65837e-05)
(-2.34738e-05 5.94981e-05 -1.90679e-05)
(3.28146e-05 2.16907e-05 -1.68115e-05)
(4.13315e-05 -3.58842e-05 -5.31036e-05)
(-3.64452e-05 -2.47866e-05 -3.64452e-05)
(-3.71998e-05 2.25288e-05 -1.48134e-05)
(8.58696e-06 4.38688e-06 -6.58951e-06)
(7.51661e-06 -2.90226e-05 -1.64052e-05)
(-1.0668e-05 -3.40282e-05 -1.0668e-05)
(-7.55765e-06 4.20292e-06 -5.68903e-06)
(5.19879e-06 5.09893e-06 -4.34704e-06)
(5.81392e-06 -2.49974e-06 -8.37756e-06)
(-5.98051e-06 -8.78853e-07 -5.98051e-06)
(-5.70012e-06 5.77415e-06 -3.90483e-06)
(1.35421e-06 -9.91234e-07 -1.3098e-06)
(1.1006e-06 -6.18759e-06 -2.77965e-06)
(-1.89086e-06 -6.4501e-06 -1.89086e-06)
(-1.2416e-06 -8.13311e-07 -1.16756e-06)
(7.63525e-07 1.74642e-06 -9.73877e-07)
(7.22208e-07 6.6394e-07 -1.22635e-06)
(-9.91364e-07 1.00063e-06 -9.91364e-07)
(-8.69546e-07 1.98917e-06 -9.10906e-07)
(2.27814e-07 -9.6504e-07 -2.40846e-07)
(1.63206e-07 -1.8014e-06 -5.31887e-07)
(-3.57427e-07 -1.74956e-06 -3.57427e-07)
(-2.03103e-07 -8.51726e-07 -2.02556e-07)
(1.10284e-07 8.83383e-07 -2.00933e-07)
(7.88834e-08 7.42175e-07 -1.79375e-07)
(-1.75241e-07 8.17474e-07 -1.75241e-07)
(-1.50262e-07 9.40678e-07 -2.07401e-07)
(3.45727e-08 -6.89854e-07 -5.12077e-08)
(1.44022e-08 -8.39274e-07 -1.08421e-07)
(-7.1535e-08 -8.21496e-07 -7.1535e-08)
(-2.65108e-08 -6.44217e-07 -3.77214e-08)
(2.20559e-08 6.0302e-07 -4.37155e-08)
(9.8177e-09 6.16221e-07 -3.89183e-08)
(-3.95575e-08 6.38891e-07 -3.95575e-08)
(-3.30013e-08 6.15154e-07 -4.73049e-08)
(-5.61441e-09 -5.52791e-07 -2.21445e-08)
(4.99185e-09 -5.92084e-07 -2.99981e-08)
(-2.42493e-08 -5.92828e-07 -2.42493e-08)
(4.30235e-09 -5.44388e-07 -2.06381e-08)
(-1.06989e-07 4.47111e-07 9.28683e-08)
(2.90849e-09 5.72344e-08 8.4737e-08)
(2.00157e-07 4.7323e-07 1.18125e-07)
(8.75255e-08 7.27956e-07 8.75255e-08)
(-2.87876e-07 6.96413e-07 2.05473e-07)
(1.67423e-09 -1.54322e-07 3.68926e-07)
(5.20944e-07 5.61222e-07 2.49686e-07)
(1.86522e-07 1.06807e-06 1.86522e-07)
(-9.34147e-07 2.11915e-06 6.28754e-07)
(-1.50117e-07 4.78743e-07 9.50068e-07)
(1.45483e-06 1.77398e-06 8.84684e-07)
(5.93488e-07 2.6465e-06 5.93488e-07)
(-1.92884e-06 4.06749e-06 1.1697e-06)
(-4.45597e-07 -2.29138e-07 2.5399e-06)
(2.83361e-06 2.4854e-06 1.82841e-06)
(1.10579e-06 4.85065e-06 1.10579e-06)
(-5.15537e-06 1.16994e-05 3.13805e-06)
(-1.86638e-06 3.9305e-06 7.34701e-06)
(6.7406e-06 8.71115e-06 5.79278e-06)
(2.97574e-06 1.25692e-05 2.97574e-06)
(-9.78895e-06 2.47427e-05 5.61396e-06)
(-3.99224e-06 1.41532e-05 2.22148e-05)
(1.21451e-05 1.93079e-05 1.6054e-05)
(5.23878e-06 2.49585e-05 5.23878e-06)
(-1.57717e-05 5.19198e-05 9.17438e-06)
(-8.20425e-06 5.06391e-05 3.7281e-05)
(1.85162e-05 5.11536e-05 2.90486e-05)
(8.94907e-06 5.06906e-05 8.94907e-06)
(-8.42949e-06 7.49763e-05 3.50154e-06)
(-4.40206e-06 8.71504e-05 1.4502e-05)
(1.02557e-05 7.4078e-05 1.28422e-05)
(3.89187e-06 7.25246e-05 3.89187e-06)
(6.29579e-06 8.082e-05 5.33327e-07)
(-4.28894e-06 9.40982e-05 -9.00034e-06)
(-6.93081e-06 8.40735e-05 8.60486e-06)
(1.65158e-06 7.91796e-05 1.65158e-06)
(1.58468e-05 6.64099e-05 -7.96995e-06)
(6.41135e-06 5.98542e-05 -3.2345e-05)
(-1.90679e-05 5.94981e-05 -2.34738e-05)
(-7.67742e-06 6.58798e-05 -7.67742e-06)
(1.18956e-05 2.65317e-05 -9.72399e-06)
(1.14199e-05 1.53116e-05 -3.05964e-05)
(-1.48134e-05 2.25288e-05 -3.71998e-05)
(-1.05274e-05 2.73471e-05 -1.05274e-05)
(4.04823e-06 1.21256e-05 -2.60288e-06)
(2.31372e-06 2.67119e-06 -7.21499e-06)
(-5.68903e-06 4.20292e-06 -7.55765e-06)
(-2.60259e-06 1.25854e-05 -2.60259e-06)
(3.01472e-06 6.87347e-06 -2.58286e-06)
(2.59849e-06 3.87594e-06 -4.78693e-06)
(-3.90483e-06 5.77415e-06 -5.70012e-06)
(-2.76035e-06 7.43984e-06 -2.76035e-06)
(6.81837e-07 1.26128e-06 -4.82689e-07)
(3.36692e-07 -1.36196e-06 -1.17259e-06)
(-1.16756e-06 -8.13311e-07 -1.2416e-06)
(-4.80173e-07 1.55985e-06 -4.80173e-07)
(6.50068e-07 2.05564e-06 -6.01759e-07)
(4.7912e-07 1.57945e-06 -7.2172e-07)
(-9.10906e-07 1.98917e-06 -8.69546e-07)
(-6.35263e-07 2.27438e-06 -6.35263e-07)
(8.48932e-08 -3.9568e-07 -6.00191e-08)
(2.25024e-08 -1.0224e-06 -2.06773e-07)
(-2.02556e-07 -8.51726e-07 -2.03103e-07)
(-5.66718e-08 -2.7198e-07 -5.66718e-08)
(1.29471e-07 8.79672e-07 -1.43268e-07)
(8.19883e-08 8.64816e-07 -1.26009e-07)
(-2.07401e-07 9.40678e-07 -1.50262e-07)
(-1.53964e-07 9.36956e-07 -1.53964e-07)
(1.13262e-08 -5.29088e-07 -6.94555e-09)
(-4.16479e-09 -6.81845e-07 -3.12572e-08)
(-3.77214e-08 -6.44217e-07 -2.65108e-08)
(3.64713e-10 -4.81211e-07 3.64713e-10)
(2.42615e-08 5.64949e-07 -3.14242e-08)
(1.1307e-08 5.97948e-07 -2.96719e-08)
(-4.73049e-08 6.15154e-07 -3.30013e-08)
(-3.63228e-08 5.69185e-07 -3.63228e-08)
(-6.09693e-09 -5.04861e-07 5.34939e-09)
(2.85647e-09 -5.46704e-07 4.44242e-09)
(-2.06381e-08 -5.44388e-07 4.30235e-09)
(5.19581e-09 -4.92014e-07 5.19581e-09)
)
;

boundaryField
{
    inlet
    {
        type            fixedValue;
        value           uniform (0 0 0);
    }
    outlet
    {
        type            zeroGradient;
    }
    walls
    {
        type            fixedValue;
        value           uniform (0 0 0);
    }
}


// ************************************************************************* //
