/*--------------------------------*- C++ -*----------------------------------*\
| =========                 |                                                 |
| \\      /  F ield         | OpenFOAM: The Open Source CFD Toolbox           |
|  \\    /   O peration     | Version:  5.x                                   |
|   \\  /    A nd           | Web:      www.OpenFOAM.org                      |
|    \\/     M anipulation  |                                                 |
\*---------------------------------------------------------------------------*/
FoamFile
{
    version     2.0;
    format      ascii;
    class       volVectorField;
    location    "0.08";
    object      Us;
}
// * * * * * * * * * * * * * * * * * * * * * * * * * * * * * * * * * * * * * //

dimensions      [0 1 -1 0 0 0 0];

internalField   nonuniform List<vector> 
320
(
(-2.07151e-18 -8.67373e-15 -2.07151e-18)
(-1.89483e-17 -7.93394e-14 -1.89483e-17)
(-1.75705e-17 -7.35701e-14 -1.75705e-17)
(-5.15218e-19 -2.15729e-15 -5.15218e-19)
(-1.12173e-16 -4.69685e-13 -1.12173e-16)
(-1.17551e-15 -4.92205e-12 -1.17551e-15)
(-1.10356e-15 -4.62076e-12 -1.10356e-15)
(-3.19361e-17 -1.33721e-13 -3.19361e-17)
(-5.88591e-15 -2.46452e-11 -5.88591e-15)
(-7.19899e-14 -3.01432e-10 -7.19899e-14)
(-6.84203e-14 -2.86486e-10 -6.84203e-14)
(-1.9546e-15 -8.18421e-12 -1.9546e-15)
(-2.88228e-13 -1.20685e-09 -2.88228e-13)
(-4.23153e-12 -1.7718e-08 -4.23153e-12)
(-4.0722e-12 -1.70509e-08 -4.0722e-12)
(-1.14851e-13 -4.80899e-10 -1.14851e-13)
(-1.27017e-11 -5.3184e-08 -1.27017e-11)
(-2.33134e-10 -9.76166e-07 -2.33134e-10)
(-2.27212e-10 -9.51369e-07 -2.27212e-10)
(-6.32792e-12 -2.64959e-08 -6.32792e-12)
(-4.6643e-10 -1.95301e-06 -4.6643e-10)
(-1.1415e-08 -4.77964e-05 -1.1415e-08)
(-1.12688e-08 -4.71841e-05 -1.12688e-08)
(-3.10072e-10 -1.29832e-06 -3.10072e-10)
(-1.14203e-08 -4.78182e-05 -1.14203e-08)
(-4.19145e-07 -0.00175502 -4.19145e-07)
(-4.19218e-07 -0.00175533 -4.19218e-07)
(-1.14212e-08 -4.78224e-05 -1.14212e-08)
(-3.08982e-10 -1.29375e-06 -3.08982e-10)
(-1.13423e-08 -4.7492e-05 -1.13423e-08)
(-1.13424e-08 -4.74923e-05 -1.13424e-08)
(-3.09027e-10 -1.29394e-06 -3.09027e-10)
(-4.12687e-12 -1.72798e-08 -4.12687e-12)
(-1.51492e-10 -6.3432e-07 -1.51492e-10)
(-1.53476e-10 -6.42627e-07 -1.53476e-10)
(-6.27171e-12 -2.62605e-08 -6.27171e-12)
(-5.50972e-14 -2.307e-10 -5.50972e-14)
(-2.02292e-12 -8.47024e-09 -2.02292e-12)
(-2.07589e-12 -8.69206e-09 -2.07589e-12)
(-1.13105e-13 -4.73587e-10 -1.13105e-13)
(0 0 0)
(0 0 0)
(0 0 0)
(0 0 0)
(0 0 0)
(0 0 0)
(0 0 0)
(0 0 0)
(0 0 0)
(0 0 0)
(0 0 0)
(0 0 0)
(0 0 0)
(0 0 0)
(0 0 0)
(0 0 0)
(0 0 0)
(0 0 0)
(0 0 0)
(0 0 0)
(0 0 0)
(0 0 0)
(0 0 0)
(0 0 0)
(0 0 0)
(0 0 0)
(0 0 0)
(0 0 0)
(0 0 0)
(0 0 0)
(0 0 0)
(0 0 0)
(0 0 0)
(0 0 0)
(0 0 0)
(0 0 0)
(0 0 0)
(0 0 0)
(0 0 0)
(0 0 0)
(-1.89483e-17 -7.93394e-14 -1.89483e-17)
(-1.98305e-16 -8.30331e-13 -1.98305e-16)
(-1.8614e-16 -7.79395e-13 -1.8614e-16)
(-5.38162e-18 -2.25336e-14 -5.38162e-18)
(-1.17551e-15 -4.92205e-12 -1.17551e-15)
(-1.4385e-14 -6.02321e-11 -1.4385e-14)
(-1.36718e-14 -5.72457e-11 -1.36718e-14)
(-3.90052e-16 -1.6332e-12 -3.90052e-16)
(-7.19899e-14 -3.01432e-10 -7.19899e-14)
(-1.05735e-12 -4.42726e-09 -1.05735e-12)
(-1.01752e-12 -4.26048e-09 -1.01752e-12)
(-2.86507e-14 -1.19965e-10 -2.86507e-14)
(-4.23153e-12 -1.7718e-08 -4.23153e-12)
(-7.76934e-11 -3.25313e-07 -7.76934e-11)
(-7.57166e-11 -3.17036e-07 -7.57166e-11)
(-2.10416e-12 -8.81041e-09 -2.10416e-12)
(-2.33134e-10 -9.76166e-07 -2.33134e-10)
(-5.70698e-09 -2.3896e-05 -5.70698e-09)
(-5.63343e-09 -2.3588e-05 -5.63343e-09)
(-1.54507e-10 -6.46944e-07 -1.54507e-10)
(-1.1415e-08 -4.77964e-05 -1.1415e-08)
(-4.19064e-07 -0.00175468 -4.19064e-07)
(-4.19068e-07 -0.0017547 -4.19068e-07)
(-1.13434e-08 -4.74966e-05 -1.13434e-08)
(-4.19145e-07 -0.00175502 -4.19145e-07)
(-3.07558e-05 -0.128779 -3.07558e-05)
(-3.07558e-05 -0.128779 -3.07558e-05)
(-4.19296e-07 -0.00175565 -4.19296e-07)
(-1.13423e-08 -4.7492e-05 -1.13423e-08)
(-4.19213e-07 -0.00175531 -4.19213e-07)
(-4.19145e-07 -0.00175502 -4.19145e-07)
(-1.12719e-08 -4.7197e-05 -1.12719e-08)
(-1.51492e-10 -6.3432e-07 -1.51492e-10)
(-5.56356e-09 -2.32954e-05 -5.56356e-09)
(-5.63448e-09 -2.35924e-05 -5.63448e-09)
(-2.2728e-10 -9.51654e-07 -2.2728e-10)
(-2.02292e-12 -8.47024e-09 -2.02292e-12)
(-7.3823e-11 -3.09108e-07 -7.3823e-11)
(-7.5717e-11 -3.17038e-07 -7.5717e-11)
(-4.07253e-12 -1.70523e-08 -4.07253e-12)
(0 0 0)
(0 0 0)
(0 0 0)
(0 0 0)
(0 0 0)
(0 0 0)
(0 0 0)
(0 0 0)
(0 0 0)
(0 0 0)
(0 0 0)
(0 0 0)
(0 0 0)
(0 0 0)
(0 0 0)
(0 0 0)
(0 0 0)
(0 0 0)
(0 0 0)
(0 0 0)
(0 0 0)
(0 0 0)
(0 0 0)
(0 0 0)
(0 0 0)
(0 0 0)
(0 0 0)
(0 0 0)
(0 0 0)
(0 0 0)
(0 0 0)
(0 0 0)
(0 0 0)
(0 0 0)
(0 0 0)
(0 0 0)
(0 0 0)
(0 0 0)
(0 0 0)
(0 0 0)
(-1.75705e-17 -7.35701e-14 -1.75705e-17)
(-1.8614e-16 -7.79395e-13 -1.8614e-16)
(-1.74901e-16 -7.32335e-13 -1.74901e-16)
(-5.05159e-18 -2.11518e-14 -5.05159e-18)
(-1.10356e-15 -4.62076e-12 -1.10356e-15)
(-1.36718e-14 -5.72457e-11 -1.36718e-14)
(-1.30056e-14 -5.44563e-11 -1.30056e-14)
(-3.70727e-16 -1.55229e-12 -3.70727e-16)
(-6.84203e-14 -2.86486e-10 -6.84203e-14)
(-1.01752e-12 -4.26048e-09 -1.01752e-12)
(-9.79939e-13 -4.10314e-09 -9.79939e-13)
(-2.75729e-14 -1.15452e-10 -2.75729e-14)
(-4.0722e-12 -1.70509e-08 -4.0722e-12)
(-7.57166e-11 -3.17036e-07 -7.57166e-11)
(-7.38368e-11 -3.09165e-07 -7.38368e-11)
(-2.05076e-12 -8.58681e-09 -2.05076e-12)
(-2.27212e-10 -9.51369e-07 -2.27212e-10)
(-5.63343e-09 -2.3588e-05 -5.63343e-09)
(-5.56354e-09 -2.32953e-05 -5.56354e-09)
(-1.52527e-10 -6.38654e-07 -1.52527e-10)
(-1.12688e-08 -4.71841e-05 -1.12688e-08)
(-4.19068e-07 -0.0017547 -4.19068e-07)
(-4.19212e-07 -0.0017553 -4.19212e-07)
(-1.13444e-08 -4.75008e-05 -1.13444e-08)
(-4.19218e-07 -0.00175533 -4.19218e-07)
(-3.07558e-05 -0.128779 -3.07558e-05)
(-3.07558e-05 -0.128779 -3.07558e-05)
(-4.19298e-07 -0.00175566 -4.19298e-07)
(-1.13424e-08 -4.74923e-05 -1.13424e-08)
(-4.19145e-07 -0.00175502 -4.19145e-07)
(-4.19216e-07 -0.00175532 -4.19216e-07)
(-1.14193e-08 -4.78142e-05 -1.14193e-08)
(-1.53476e-10 -6.42627e-07 -1.53476e-10)
(-5.63448e-09 -2.35924e-05 -5.63448e-09)
(-5.70907e-09 -2.39047e-05 -5.70907e-09)
(-2.33223e-10 -9.76536e-07 -2.33223e-10)
(-2.07589e-12 -8.69206e-09 -2.07589e-12)
(-7.5717e-11 -3.17038e-07 -7.5717e-11)
(-7.77085e-11 -3.25377e-07 -7.77085e-11)
(-4.23222e-12 -1.77209e-08 -4.23222e-12)
(0 0 0)
(0 0 0)
(0 0 0)
(0 0 0)
(0 0 0)
(0 0 0)
(0 0 0)
(0 0 0)
(0 0 0)
(0 0 0)
(0 0 0)
(0 0 0)
(0 0 0)
(0 0 0)
(0 0 0)
(0 0 0)
(0 0 0)
(0 0 0)
(0 0 0)
(0 0 0)
(0 0 0)
(0 0 0)
(0 0 0)
(0 0 0)
(0 0 0)
(0 0 0)
(0 0 0)
(0 0 0)
(0 0 0)
(0 0 0)
(0 0 0)
(0 0 0)
(0 0 0)
(0 0 0)
(0 0 0)
(0 0 0)
(0 0 0)
(0 0 0)
(0 0 0)
(0 0 0)
(-5.15218e-19 -2.15729e-15 -5.15218e-19)
(-5.38162e-18 -2.25336e-14 -5.38162e-18)
(-5.05159e-18 -2.11518e-14 -5.05159e-18)
(-1.47962e-19 -6.19537e-16 -1.47962e-19)
(-3.19361e-17 -1.33721e-13 -3.19361e-17)
(-3.90052e-16 -1.6332e-12 -3.90052e-16)
(-3.70727e-16 -1.55229e-12 -3.70727e-16)
(-1.0715e-17 -4.48651e-14 -1.0715e-17)
(-1.9546e-15 -8.18421e-12 -1.9546e-15)
(-2.86507e-14 -1.19965e-10 -2.86507e-14)
(-2.75729e-14 -1.15452e-10 -2.75729e-14)
(-7.86519e-16 -3.29327e-12 -7.86519e-16)
(-1.14851e-13 -4.80899e-10 -1.14851e-13)
(-2.10416e-12 -8.81041e-09 -2.10416e-12)
(-2.05076e-12 -8.58681e-09 -2.05076e-12)
(-5.77336e-14 -2.41739e-10 -5.77336e-14)
(-6.32792e-12 -2.64959e-08 -6.32792e-12)
(-1.54507e-10 -6.46944e-07 -1.54507e-10)
(-1.52527e-10 -6.38654e-07 -1.52527e-10)
(-4.23787e-12 -1.77446e-08 -4.23787e-12)
(-3.10072e-10 -1.29832e-06 -3.10072e-10)
(-1.13434e-08 -4.74966e-05 -1.13434e-08)
(-1.13444e-08 -4.75008e-05 -1.13444e-08)
(-3.11077e-10 -1.30252e-06 -3.11077e-10)
(-1.14212e-08 -4.78224e-05 -1.14212e-08)
(-4.19296e-07 -0.00175565 -4.19296e-07)
(-4.19298e-07 -0.00175566 -4.19298e-07)
(-1.14245e-08 -4.78361e-05 -1.14245e-08)
(-3.09027e-10 -1.29394e-06 -3.09027e-10)
(-1.12719e-08 -4.7197e-05 -1.12719e-08)
(-1.14193e-08 -4.78142e-05 -1.14193e-08)
(-4.66605e-10 -1.95374e-06 -4.66605e-10)
(-6.27171e-12 -2.62605e-08 -6.27171e-12)
(-2.2728e-10 -9.51654e-07 -2.2728e-10)
(-2.33223e-10 -9.76536e-07 -2.33223e-10)
(-1.27065e-11 -5.32041e-08 -1.27065e-11)
(-1.13105e-13 -4.73587e-10 -1.13105e-13)
(-4.07253e-12 -1.70523e-08 -4.07253e-12)
(-4.23222e-12 -1.77209e-08 -4.23222e-12)
(-2.88258e-13 -1.20698e-09 -2.88258e-13)
(0 0 0)
(0 0 0)
(0 0 0)
(0 0 0)
(0 0 0)
(0 0 0)
(0 0 0)
(0 0 0)
(0 0 0)
(0 0 0)
(0 0 0)
(0 0 0)
(0 0 0)
(0 0 0)
(0 0 0)
(0 0 0)
(0 0 0)
(0 0 0)
(0 0 0)
(0 0 0)
(0 0 0)
(0 0 0)
(0 0 0)
(0 0 0)
(0 0 0)
(0 0 0)
(0 0 0)
(0 0 0)
(0 0 0)
(0 0 0)
(0 0 0)
(0 0 0)
(0 0 0)
(0 0 0)
(0 0 0)
(0 0 0)
(0 0 0)
(0 0 0)
(0 0 0)
(0 0 0)
)
;

boundaryField
{
    inlet
    {
        type            zeroGradient;
    }
    outlet
    {
        type            zeroGradient;
    }
    walls
    {
        type            zeroGradient;
    }
}


// ************************************************************************* //
