/*--------------------------------*- C++ -*----------------------------------*\
| =========                 |                                                 |
| \\      /  F ield         | OpenFOAM: The Open Source CFD Toolbox           |
|  \\    /   O peration     | Version:  5.x                                   |
|   \\  /    A nd           | Web:      www.OpenFOAM.org                      |
|    \\/     M anipulation  |                                                 |
\*---------------------------------------------------------------------------*/
FoamFile
{
    version     2.0;
    format      ascii;
    class       volScalarField;
    location    "0.02";
    object      Ksl;
}
// * * * * * * * * * * * * * * * * * * * * * * * * * * * * * * * * * * * * * //

dimensions      [1 -3 -1 0 0 0 0];

internalField   nonuniform List<scalar> 
160
(
0.298934
0.823911
1.26902
0.41842
0.0363134
0.224362
0.412631
0.0543767
0.000786376
0.00605764
0.0108606
0.00119674
0
0.000310081
0.000506277
0
0
0
0
0
0
0
0
0
0
0
0
0
0
0
0
0
0
0
0
0
0
0
0
0
0.823911
0.997242
1.48517
1.30417
0.224362
4.17688
5.37112
0.437014
0.00605764
0.0800912
0.12001
0.011901
0.000310081
0.00152527
0.00256075
0.000515299
0
7.3617e-05
0.000119797
0
0
0
0
0
0
0
0
0
0
0
0
0
0
0
0
0
0
0
0
0
1.26902
1.48517
3.0661
2.52848
0.412631
5.37112
14.11
0.710134
0.0108606
0.12001
0.2425
0.0200165
0.000506277
0.00256075
0.00454355
0.000937318
0
0.000119797
0.000218887
0
0
0
0
0
0
0
0
0
0
0
0
0
0
0
0
0
0
0
0
0
0.41842
1.30417
2.52848
0.885921
0.0543767
0.437014
0.710134
0.119546
0.00119674
0.011901
0.0200165
0.00261539
8.48228e-05
0.000515299
0.000937318
0.000199696
0
0
0
0
0
0
0
0
0
0
0
0
0
0
0
0
0
0
0
0
0
0
0
0
)
;

boundaryField
{
    inlet
    {
        type            zeroGradient;
    }
    outlet
    {
        type            zeroGradient;
    }
    walls
    {
        type            zeroGradient;
    }
    procBoundary1to0
    {
        type            processor;
        value           nonuniform List<scalar> 
16
(
0.911407
0.988706
1.46033
1.3471
0.988706
0.985992
1.474
1.48774
1.46033
1.474
3.11663
3.08077
1.3471
1.48774
3.08077
2.7988
)
;
    }
}


// ************************************************************************* //
