/*--------------------------------*- C++ -*----------------------------------*\
| =========                 |                                                 |
| \\      /  F ield         | OpenFOAM: The Open Source CFD Toolbox           |
|  \\    /   O peration     | Version:  5.x                                   |
|   \\  /    A nd           | Web:      www.OpenFOAM.org                      |
|    \\/     M anipulation  |                                                 |
\*---------------------------------------------------------------------------*/
FoamFile
{
    version     2.0;
    format      ascii;
    class       volScalarField;
    location    "0.02";
    object      p;
}
// * * * * * * * * * * * * * * * * * * * * * * * * * * * * * * * * * * * * * //

dimensions      [0 2 -2 0 0 0 0];

internalField   nonuniform List<scalar> 
160
(
-1.16184e-06
-1.83167e-06
-2.67567e-06
-1.39442e-06
-1.20771e-06
-1.24361e-06
-1.49333e-06
-1.37684e-06
-1.49265e-06
-1.83956e-06
-1.98587e-06
-1.62975e-06
-1.52521e-06
-1.59746e-06
-1.67258e-06
-1.63344e-06
-1.62117e-06
-1.71566e-06
-1.74519e-06
-1.68867e-06
-1.65918e-06
-1.69609e-06
-1.71475e-06
-1.7003e-06
-1.6847e-06
-1.70597e-06
-1.71588e-06
-1.70914e-06
-1.69891e-06
-1.70939e-06
-1.71495e-06
-1.71299e-06
-1.70659e-06
-1.71198e-06
-1.71512e-06
-1.71473e-06
-1.71038e-06
-1.71324e-06
-1.71519e-06
-1.71546e-06
-1.83167e-06
-1.07479e-05
-1.12897e-05
-2.92758e-06
-1.24361e-06
-2.28164e-06
-2.66378e-06
-1.63537e-06
-1.83956e-06
-3.01786e-06
-2.9887e-06
-2.06774e-06
-1.59746e-06
-1.98958e-06
-2.01065e-06
-1.78042e-06
-1.71566e-06
-1.88617e-06
-1.89805e-06
-1.79494e-06
-1.69609e-06
-1.772e-06
-1.78533e-06
-1.7452e-06
-1.70597e-06
-1.73815e-06
-1.7467e-06
-1.73304e-06
-1.70939e-06
-1.72367e-06
-1.72879e-06
-1.72451e-06
-1.71198e-06
-1.71855e-06
-1.72155e-06
-1.7204e-06
-1.71324e-06
-1.71635e-06
-1.71828e-06
-1.71838e-06
-2.67567e-06
-1.12897e-05
-1.72423e-05
-3.22094e-06
-1.49333e-06
-2.66378e-06
-3.61875e-06
-1.72701e-06
-1.98587e-06
-2.9887e-06
-3.3637e-06
-2.10067e-06
-1.67258e-06
-2.01065e-06
-2.13478e-06
-1.81468e-06
-1.74519e-06
-1.89805e-06
-1.94708e-06
-1.81825e-06
-1.71475e-06
-1.78533e-06
-1.80556e-06
-1.75959e-06
-1.71588e-06
-1.7467e-06
-1.75709e-06
-1.74196e-06
-1.71495e-06
-1.72879e-06
-1.73438e-06
-1.72963e-06
-1.71512e-06
-1.72155e-06
-1.72468e-06
-1.72339e-06
-1.71519e-06
-1.71828e-06
-1.72023e-06
-1.72031e-06
-1.39442e-06
-2.92758e-06
-3.22094e-06
-1.74599e-06
-1.37684e-06
-1.63537e-06
-1.72701e-06
-1.59466e-06
-1.62975e-06
-2.06774e-06
-2.10067e-06
-1.79827e-06
-1.63344e-06
-1.78042e-06
-1.81468e-06
-1.75771e-06
-1.68867e-06
-1.79494e-06
-1.81825e-06
-1.76799e-06
-1.7003e-06
-1.7452e-06
-1.75959e-06
-1.74702e-06
-1.70914e-06
-1.73304e-06
-1.74196e-06
-1.73571e-06
-1.71299e-06
-1.72451e-06
-1.72963e-06
-1.72773e-06
-1.71473e-06
-1.7204e-06
-1.72339e-06
-1.72299e-06
-1.71546e-06
-1.71838e-06
-1.72031e-06
-1.72056e-06
)
;

boundaryField
{
    inlet
    {
        type            zeroGradient;
    }
    outlet
    {
        type            totalPressure;
        rho             rho;
        psi             none;
        gamma           1;
        p0              nonuniform 0();
        value           nonuniform 0();
    }
    walls
    {
        type            zeroGradient;
    }
    procBoundary1to0
    {
        type            processor;
        value           nonuniform List<scalar> 
16
(
-8.605e-07
-8.6104e-07
-8.60977e-07
-8.60482e-07
-8.6104e-07
-8.62377e-07
-8.61677e-07
-8.61046e-07
-8.60977e-07
-8.61677e-07
-8.6247e-07
-8.61136e-07
-8.60482e-07
-8.61046e-07
-8.61136e-07
-8.60666e-07
)
;
    }
}


// ************************************************************************* //
