/*--------------------------------*- C++ -*----------------------------------*\
| =========                 |                                                 |
| \\      /  F ield         | OpenFOAM: The Open Source CFD Toolbox           |
|  \\    /   O peration     | Version:  5.x                                   |
|   \\  /    A nd           | Web:      www.OpenFOAM.org                      |
|    \\/     M anipulation  |                                                 |
\*---------------------------------------------------------------------------*/
FoamFile
{
    version     2.0;
    format      ascii;
    class       surfaceScalarField;
    location    "0.02";
    object      phi;
}
// * * * * * * * * * * * * * * * * * * * * * * * * * * * * * * * * * * * * * //

dimensions      [0 3 -1 0 0 0 0];

internalField   nonuniform List<scalar> 
384
(
2.24885e-11
8.56734e-12
2.24885e-11
4.25282e-12
2.67597e-12
1.79552e-10
-2.39485e-11
1.5663e-12
1.6836e-10
8.36237e-12
2.68739e-11
3.92378e-12
7.05749e-12
3.92378e-12
1.79547e-12
-3.46662e-13
2.72576e-11
-3.63958e-12
-1.55227e-12
2.60594e-11
6.36044e-12
5.33657e-12
6.57383e-12
2.86865e-12
6.57383e-12
1.07152e-12
-6.07903e-14
1.9308e-11
-5.92276e-12
-6.95574e-13
1.75937e-11
2.33794e-12
7.15244e-12
1.87614e-12
1.79212e-12
1.87614e-12
5.15702e-13
-5.09424e-13
6.3436e-12
-1.41192e-12
-7.36869e-13
5.8245e-12
1.36398e-12
2.15163e-12
1.38509e-12
8.21452e-13
1.38509e-12
2.53626e-13
-1.57783e-13
2.56857e-12
-1.02706e-12
-2.78148e-13
2.37842e-12
5.57262e-13
1.44107e-12
5.58209e-13
4.22389e-13
5.58209e-13
1.42952e-13
-9.21588e-14
1.04744e-12
-3.48713e-13
-1.40754e-13
9.80398e-13
2.59821e-13
6.01738e-13
2.845e-13
2.05869e-13
2.845e-13
7.45131e-14
-3.02252e-14
4.16527e-13
-1.58585e-13
-5.56076e-14
3.94035e-13
1.11834e-13
2.85368e-13
1.30603e-13
1.00168e-13
1.30603e-13
4.16136e-14
-8.27423e-15
1.74423e-13
-5.7774e-14
-2.19486e-14
1.66368e-13
4.80963e-14
1.30065e-13
6.28597e-14
4.58936e-14
6.28597e-14
2.45339e-14
-1.26862e-15
7.56007e-14
-1.95527e-14
-8.36566e-15
7.28623e-14
2.01269e-14
6.04719e-14
3.08213e-14
3.08213e-14
1.59357e-14
3.31869e-14
-3.26939e-15
3.21548e-14
2.84911e-14
1.79552e-10
2.67597e-12
4.25282e-12
-1.79433e-11
-1.16461e-10
-1.79433e-11
-1.68752e-10
-9.24637e-11
3.65513e-11
1.13269e-12
2.59042e-13
2.72576e-11
-3.46662e-13
1.79547e-12
-4.31954e-13
-6.10822e-11
-4.31954e-13
-2.48846e-11
-4.79294e-11
5.9777e-12
-2.30829e-12
4.80196e-13
1.9308e-11
-6.07903e-14
1.07152e-12
-9.16271e-13
-2.06337e-11
-9.16271e-13
-1.67397e-11
-1.7141e-11
2.62873e-12
-1.51053e-12
1.81328e-13
6.3436e-12
-5.09424e-13
5.15702e-13
4.44793e-14
-8.03545e-12
4.44793e-14
-5.17985e-12
-6.88326e-12
7.91106e-13
-1.22611e-12
1.5129e-13
2.56857e-12
-1.57783e-13
2.53626e-13
8.66451e-14
-3.07161e-12
8.66451e-14
-2.00846e-12
-2.74579e-12
3.3604e-13
-5.77024e-13
1.12511e-13
1.04744e-12
-9.21589e-14
1.42952e-13
9.49918e-14
-1.16672e-12
9.49918e-14
-7.37841e-13
-1.08203e-12
1.49468e-13
-2.93279e-13
7.08428e-14
4.16527e-13
-3.02252e-14
7.45131e-14
5.65587e-14
-4.4679e-13
5.65587e-14
-2.69925e-13
-4.31277e-13
6.97538e-14
-1.38294e-13
4.63977e-14
1.74423e-13
-8.27423e-15
4.16136e-14
3.62719e-14
-1.70492e-13
3.62719e-14
-9.40007e-14
-1.72288e-13
3.76476e-14
-6.2839e-14
2.90148e-14
7.56007e-14
-1.26862e-15
2.45339e-14
2.22e-14
-6.36929e-14
2.22e-14
-3.13844e-14
-6.77212e-14
2.18798e-14
-2.68769e-14
1.81245e-14
3.31869e-14
1.59357e-14
1.48833e-14
1.48833e-14
-6.5391e-15
1.42721e-14
1.26553e-14
1.6836e-10
1.5663e-12
-2.39485e-11
3.65513e-11
-9.24637e-11
-1.68752e-10
-1.90485e-10
-1.31411e-10
-1.90485e-10
9.86115e-13
-2.5468e-11
2.60594e-11
-1.55227e-12
-3.63958e-12
5.9777e-12
-4.79294e-11
-2.48846e-11
-2.86127e-11
-6.22297e-11
-2.86127e-11
-2.03249e-12
-4.25361e-12
1.75937e-11
-6.95574e-13
-5.92276e-12
2.62873e-12
-1.7141e-11
-1.67397e-11
-1.81546e-11
-2.06631e-11
-1.81546e-11
-1.25487e-12
-6.16687e-12
5.8245e-12
-7.36869e-13
-1.41192e-12
7.91106e-13
-6.88326e-12
-5.17985e-12
-5.58103e-12
-7.91881e-12
-5.58103e-12
-1.1155e-12
-1.60252e-12
2.37842e-12
-2.78149e-13
-1.02706e-12
3.3604e-13
-2.74579e-12
-2.00846e-12
-2.11585e-12
-3.01503e-12
-2.11585e-12
-5.31055e-13
-1.11305e-12
9.80398e-13
-1.40754e-13
-3.48713e-13
1.49468e-13
-1.08203e-12
-7.37841e-13
-7.7664e-13
-1.16283e-12
-7.7664e-13
-2.87381e-13
-4.12135e-13
3.94035e-13
-5.56076e-14
-1.58585e-13
6.97538e-14
-4.31277e-13
-2.69925e-13
-2.81852e-13
-4.59624e-13
-2.81852e-13
-1.41735e-13
-1.81721e-13
1.66368e-13
-2.19486e-14
-5.7774e-14
3.76476e-14
-1.72288e-13
-9.40007e-14
-9.94962e-14
-1.85341e-13
-9.94962e-14
-6.79759e-14
-7.12155e-14
7.28623e-14
-8.36566e-15
-1.95527e-14
2.18798e-14
-6.77212e-14
-3.13844e-14
-3.37964e-14
-7.39912e-14
-3.37964e-14
-3.10238e-14
-2.60043e-14
3.21548e-14
-3.26938e-15
1.42721e-14
-6.5391e-15
-7.56938e-15
-7.56938e-15
-6.95317e-15
2.68739e-11
8.36237e-12
2.59042e-13
1.13269e-12
-2.5468e-11
9.86115e-13
7.95914e-12
5.33657e-12
6.36044e-12
4.80196e-13
-2.30829e-12
-4.25361e-12
-2.03249e-12
5.79976e-12
7.15244e-12
2.33794e-12
1.81328e-13
-1.51053e-12
-6.16687e-12
-1.25487e-12
1.90935e-12
2.15163e-12
1.36398e-12
1.5129e-13
-1.22611e-12
-1.60252e-12
-1.1155e-12
1.04166e-12
1.44107e-12
5.57262e-13
1.12511e-13
-5.77024e-13
-1.11305e-12
-5.31056e-13
3.6276e-13
6.01738e-13
2.59821e-13
7.08428e-14
-2.93279e-13
-4.12135e-13
-2.87381e-13
1.42908e-13
2.85368e-13
1.11834e-13
4.63977e-14
-1.38294e-13
-1.81721e-13
-1.41735e-13
4.5246e-14
1.30065e-13
4.80963e-14
2.90147e-14
-6.2839e-14
-7.12155e-14
-6.79759e-14
1.16343e-14
6.04719e-14
2.01269e-14
1.81245e-14
-2.68769e-14
-2.60043e-14
-3.10238e-14
2.45204e-15
2.84911e-14
1.26553e-14
-6.95317e-15
)
;

boundaryField
{
    inlet
    {
        type            calculated;
        value           nonuniform List<scalar> 
16
(
1.72297e-14
-1.41177e-15
-3.84266e-15
8.54899e-15
-1.41177e-15
-2.70836e-14
-2.84144e-14
-1.04718e-14
-3.84266e-15
-2.84144e-14
-3.03103e-14
-1.12695e-14
8.54899e-15
-1.04718e-14
-1.12695e-14
2.95964e-15
)
;
    }
    outlet
    {
        type            calculated;
        value           nonuniform 0();
    }
    walls
    {
        type            calculated;
        value           nonuniform List<scalar> 
160
(
-1.67568e-11
-3.16885e-12
-4.47942e-12
-1.33787e-12
-8.9976e-13
-3.58679e-13
-1.76241e-13
-7.77572e-14
-3.57241e-14
-1.64897e-14
-1.40361e-10
-2.21067e-11
-1.40916e-11
-4.53454e-12
-1.78876e-12
-6.97816e-13
-2.68484e-13
-1.07389e-13
-4.42828e-14
-1.81594e-14
-1.06822e-10
-1.75058e-11
-1.14562e-11
-3.8556e-12
-1.55646e-12
-6.26133e-13
-2.46088e-13
-1.00644e-13
-4.23606e-14
-1.74715e-14
-1.92167e-11
-3.92958e-12
-4.95996e-12
-1.48402e-12
-9.42919e-13
-3.928e-13
-1.7749e-13
-7.79066e-14
-3.45425e-14
-1.51462e-14
-1.71431e-11
-3.04465e-12
-4.09274e-12
-1.10557e-12
-7.18492e-13
-2.60214e-13
-1.18481e-13
-4.61977e-14
-1.75131e-14
-5.0354e-15
-1.04635e-10
-1.65872e-11
-1.05663e-11
-3.46393e-12
-1.32899e-12
-4.90697e-13
-1.85945e-13
-6.84085e-14
-2.49998e-14
-7.10992e-15
-1.34537e-10
-2.08603e-11
-1.2584e-11
-3.9666e-12
-1.47474e-12
-5.37343e-13
-1.99385e-13
-7.30301e-14
-2.66233e-14
-7.71817e-15
-1.69635e-11
-3.17392e-12
-4.22167e-12
-1.16867e-12
-7.736e-13
-3.02211e-13
-1.32892e-13
-5.44109e-14
-2.14141e-14
-7.207e-15
-1.67568e-11
-3.16885e-12
-4.47942e-12
-1.33787e-12
-8.9976e-13
-3.58679e-13
-1.76241e-13
-7.77572e-14
-3.57241e-14
-1.64897e-14
-1.40361e-10
-2.21067e-11
-1.40916e-11
-4.53454e-12
-1.78876e-12
-6.97816e-13
-2.68484e-13
-1.07389e-13
-4.42828e-14
-1.81594e-14
-1.06822e-10
-1.75058e-11
-1.14562e-11
-3.8556e-12
-1.55646e-12
-6.26133e-13
-2.46088e-13
-1.00644e-13
-4.23606e-14
-1.74715e-14
-1.92167e-11
-3.92958e-12
-4.95996e-12
-1.48402e-12
-9.42919e-13
-3.928e-13
-1.7749e-13
-7.79066e-14
-3.45425e-14
-1.51462e-14
-1.71431e-11
-3.04465e-12
-4.09274e-12
-1.10557e-12
-7.18492e-13
-2.60214e-13
-1.18481e-13
-4.61977e-14
-1.75131e-14
-5.0354e-15
-1.04635e-10
-1.65872e-11
-1.05663e-11
-3.46393e-12
-1.32899e-12
-4.90697e-13
-1.85945e-13
-6.84085e-14
-2.49998e-14
-7.10991e-15
-1.34537e-10
-2.08603e-11
-1.2584e-11
-3.9666e-12
-1.47474e-12
-5.37343e-13
-1.99385e-13
-7.30301e-14
-2.66233e-14
-7.71817e-15
-1.69635e-11
-3.17392e-12
-4.22167e-12
-1.16867e-12
-7.736e-13
-3.02211e-13
-1.32892e-13
-5.44109e-14
-2.14141e-14
-7.207e-15
)
;
    }
    procBoundary1to0
    {
        type            processor;
        value           nonuniform List<scalar> 
16
(
-2.00309e-11
-2.36313e-11
-3.49024e-11
-2.28249e-11
-2.36313e-11
5.11451e-10
3.75081e-10
-3.86354e-11
-3.49024e-11
3.75081e-10
5.85483e-10
-3.12066e-11
-2.28249e-11
-3.86354e-11
-3.12066e-11
-2.49682e-11
)
;
    }
}


// ************************************************************************* //
