/*--------------------------------*- C++ -*----------------------------------*\
| =========                 |                                                 |
| \\      /  F ield         | OpenFOAM: The Open Source CFD Toolbox           |
|  \\    /   O peration     | Version:  5.x                                   |
|   \\  /    A nd           | Web:      www.OpenFOAM.org                      |
|    \\/     M anipulation  |                                                 |
\*---------------------------------------------------------------------------*/
FoamFile
{
    version     2.0;
    format      ascii;
    class       volScalarField;
    location    "0.006";
    object      phiIB;
}
// * * * * * * * * * * * * * * * * * * * * * * * * * * * * * * * * * * * * * //

dimensions      [0 2 -1 0 0 0 0];

internalField   nonuniform List<scalar> 
1581
(
3.31306e-06
3.31112e-06
3.31106e-06
3.31111e-06
3.31096e-06
3.31112e-06
3.31112e-06
3.31124e-06
3.31152e-06
3.31146e-06
3.31106e-06
3.31124e-06
3.31111e-06
3.31138e-06
3.31125e-06
3.31111e-06
3.31152e-06
3.31138e-06
3.31162e-06
3.3115e-06
3.31096e-06
3.31146e-06
3.31125e-06
3.3115e-06
3.31139e-06
6.14558e-06
6.14752e-06
6.14795e-06
6.14869e-06
6.14888e-06
6.14752e-06
6.1487e-06
6.14901e-06
6.14956e-06
6.14971e-06
6.14795e-06
6.14901e-06
6.14921e-06
6.14965e-06
6.14975e-06
6.14869e-06
6.14956e-06
6.14965e-06
6.14996e-06
6.14998e-06
6.14888e-06
6.14971e-06
6.14975e-06
6.14998e-06
6.14996e-06
1.57482e-05
1.57485e-05
1.57485e-05
1.5749e-05
1.5749e-05
1.57485e-05
1.57493e-05
1.57493e-05
1.57499e-05
1.57499e-05
1.57485e-05
1.57493e-05
1.57493e-05
1.57498e-05
1.57498e-05
1.5749e-05
1.57499e-05
1.57498e-05
1.57502e-05
1.57501e-05
1.5749e-05
1.57499e-05
1.57498e-05
1.57501e-05
1.575e-05
1.95973e-05
1.95992e-05
1.95994e-05
1.96004e-05
1.96006e-05
1.95992e-05
1.96009e-05
1.96011e-05
1.96019e-05
1.96021e-05
1.95994e-05
1.96011e-05
1.96013e-05
1.9602e-05
1.9602e-05
1.96004e-05
1.96019e-05
1.9602e-05
1.96026e-05
1.96025e-05
1.96006e-05
1.96021e-05
1.9602e-05
1.96025e-05
1.96023e-05
2.84665e-05
2.84685e-05
2.84684e-05
2.84694e-05
2.84695e-05
2.84685e-05
2.84705e-05
2.84705e-05
2.84715e-05
2.84715e-05
2.84684e-05
2.84705e-05
2.84705e-05
2.84714e-05
2.84714e-05
2.84694e-05
2.84715e-05
2.84714e-05
2.84723e-05
2.84721e-05
2.84695e-05
2.84715e-05
2.84714e-05
2.84721e-05
2.84719e-05
3.33826e-05
3.3386e-05
3.3386e-05
3.33875e-05
3.33876e-05
3.3386e-05
3.33893e-05
3.33893e-05
3.33908e-05
3.33908e-05
3.3386e-05
3.33893e-05
3.33894e-05
3.33908e-05
3.33907e-05
3.33875e-05
3.33908e-05
3.33908e-05
3.33921e-05
3.33919e-05
3.33876e-05
3.33908e-05
3.33907e-05
3.33919e-05
3.33917e-05
4.1246e-05
4.12507e-05
4.12507e-05
4.12527e-05
4.12526e-05
4.12507e-05
4.12555e-05
4.12554e-05
4.12575e-05
4.12574e-05
4.12507e-05
4.12554e-05
4.12554e-05
4.12574e-05
4.12573e-05
4.12527e-05
4.12575e-05
4.12574e-05
4.12594e-05
4.12592e-05
4.12526e-05
4.12574e-05
4.12573e-05
4.12592e-05
4.1259e-05
4.70222e-05
4.70293e-05
4.70291e-05
4.70319e-05
4.70316e-05
4.70293e-05
4.70364e-05
4.70362e-05
4.70392e-05
4.70389e-05
4.70291e-05
4.70362e-05
4.70361e-05
4.7039e-05
4.70387e-05
4.70319e-05
4.70392e-05
4.7039e-05
4.7042e-05
4.70417e-05
4.70316e-05
4.70389e-05
4.70387e-05
4.70417e-05
4.70414e-05
5.42173e-05
5.42277e-05
5.42271e-05
5.42312e-05
5.42305e-05
5.42277e-05
5.42384e-05
5.42379e-05
5.42421e-05
5.42415e-05
5.42271e-05
5.42379e-05
5.42373e-05
5.42416e-05
5.4241e-05
5.42312e-05
5.42421e-05
5.42416e-05
5.42459e-05
5.42453e-05
5.42305e-05
5.42415e-05
5.4241e-05
5.42453e-05
5.42446e-05
6.0507e-05
6.05225e-05
6.05213e-05
6.05271e-05
6.05259e-05
6.05225e-05
6.05385e-05
6.05374e-05
6.05434e-05
6.05423e-05
6.05213e-05
6.05374e-05
6.05362e-05
6.05423e-05
6.05411e-05
6.05271e-05
6.05434e-05
6.05423e-05
6.05484e-05
6.05472e-05
6.05259e-05
6.05423e-05
6.05411e-05
6.05472e-05
6.05457e-05
6.73672e-05
6.73903e-05
6.7388e-05
6.73964e-05
6.73943e-05
6.73903e-05
6.74141e-05
6.7412e-05
6.74208e-05
6.74188e-05
6.7388e-05
6.7412e-05
6.74098e-05
6.74185e-05
6.74163e-05
6.73964e-05
6.74208e-05
6.74185e-05
6.74272e-05
6.74248e-05
6.73943e-05
6.74188e-05
6.74163e-05
6.74248e-05
6.74221e-05
7.39176e-05
7.3952e-05
7.39483e-05
7.39607e-05
7.39574e-05
7.3952e-05
7.39877e-05
7.39842e-05
7.39973e-05
7.3994e-05
7.39483e-05
7.39842e-05
7.39803e-05
7.39929e-05
7.39892e-05
7.39607e-05
7.39973e-05
7.39929e-05
7.40053e-05
7.40011e-05
7.39574e-05
7.3994e-05
7.39892e-05
7.40011e-05
7.39962e-05
8.06719e-05
8.07234e-05
8.07179e-05
8.07369e-05
8.07321e-05
8.07234e-05
8.07771e-05
8.07721e-05
8.0792e-05
8.07872e-05
8.07179e-05
8.07721e-05
8.07661e-05
8.07851e-05
8.07792e-05
8.07369e-05
8.0792e-05
8.07851e-05
8.08032e-05
8.07961e-05
8.07321e-05
8.07872e-05
8.07792e-05
8.07961e-05
8.07879e-05
8.73654e-05
8.74426e-05
8.7436e-05
8.74659e-05
8.74596e-05
8.74426e-05
8.75238e-05
8.75181e-05
8.75497e-05
8.75433e-05
8.7436e-05
8.75181e-05
8.75107e-05
8.75405e-05
8.75323e-05
8.74659e-05
8.75497e-05
8.75405e-05
8.7569e-05
8.75588e-05
8.74596e-05
8.75433e-05
8.75323e-05
8.75588e-05
8.7547e-05
9.41513e-05
9.42666e-05
9.42615e-05
9.431e-05
9.43027e-05
9.42666e-05
9.43904e-05
9.43875e-05
9.44394e-05
9.44324e-05
9.42615e-05
9.43875e-05
9.43827e-05
9.44319e-05
9.44222e-05
9.431e-05
9.44394e-05
9.44319e-05
9.44765e-05
9.44619e-05
9.43027e-05
9.44324e-05
9.44222e-05
9.44619e-05
9.44449e-05
0.000100955
0.000101137
0.000101142
0.000101222
0.000101216
0.000101137
0.000101329
0.000101338
0.000101426
0.000101423
0.000101142
0.000101338
0.000101348
0.000101436
0.000101433
0.000101222
0.000101426
0.000101436
0.000101525
0.000101524
0.000101216
0.000101423
0.000101433
0.000101524
0.000101526
0.000107853
0.000108121
0.000108138
0.000108261
0.00010826
0.000108121
0.000108409
0.000108441
0.000108587
0.000108594
0.000108138
0.000108441
0.000108499
0.000108673
0.000108709
0.000108261
0.000108587
0.000108673
0.000108904
0.000108997
0.00010826
0.000108594
0.000108709
0.000108997
0.000109128
0.000114868
0.000115183
0.000115193
0.000115388
0.000115407
0.000115183
0.0001156
0.000115672
0.000115923
0.000115976
0.000115193
0.000115672
0.000115839
0.000116216
0.000116373
0.000115388
0.000115923
0.000116216
0.000116753
0.00011701
0.000115407
0.000115976
0.000116373
0.00011701
0.000117321
0.000121897
0.000122284
0.000122285
0.000122614
0.000122702
0.000122284
0.00012288
0.000123026
0.000123495
0.000123687
0.000122285
0.000123026
0.000123395
0.000124105
0.000124436
0.000122614
0.000123495
0.000124105
0.000125014
0.000125414
0.000122702
0.000123687
0.000124436
0.000125414
0.000125814
0.000128637
0.000129254
0.000129223
0.000129713
0.000129884
0.000129254
0.000130057
0.000130304
0.000131083
0.000131426
0.000129223
0.000130304
0.000130953
0.000131973
0.000132375
0.000129713
0.000131083
0.000131973
0.000133034
0.000133431
0.000129884
0.000131426
0.000132375
0.000133431
0.000133845
0.000134792
0.000135855
0.00013592
0.000136542
0.0001367
0.000135855
0.000137036
0.000137464
0.000138479
0.000138817
0.00013592
0.000137464
0.000138309
0.000139483
0.000139908
0.000136542
0.000138479
0.000139483
0.000140714
0.000141188
0.0001367
0.000138817
0.000139908
0.000141188
0.000141704
0.000139871
0.000141523
0.000141865
0.000142622
0.000142758
0.000141523
0.000143311
0.000144001
0.000145236
0.000145631
0.000141865
0.000144001
0.000145026
0.00014652
0.000147119
0.000142622
0.000145236
0.00014652
0.000148206
0.000148935
0.000142758
0.000145631
0.000147119
0.000148935
0.000149763
0.000143873
0.000146327
0.000147109
0.000148247
0.000148522
0.000146327
0.000149062
0.000150175
0.000151926
0.000152581
0.000147109
0.000150175
0.000151706
0.000153863
0.000154843
0.000148247
0.000151926
0.000153863
0.000156366
0.000157558
0.000148522
0.000152581
0.000154843
0.000157558
0.000158937
0.000145895
0.00014973
0.000151312
0.000153233
0.000153794
0.00014973
0.000153982
0.00015577
0.000158363
0.000159608
0.000151312
0.00015577
0.000158317
0.000161559
0.00016341
0.000153233
0.000158363
0.000161559
0.000165343
0.000167626
0.000153794
0.000159608
0.00016341
0.000167626
0.000170393
0.00014652
0.000152073
0.000155087
0.000158416
0.000159398
0.000152073
0.000158481
0.000161502
0.000165714
0.000167852
0.000155087
0.000161502
0.0001658
0.000170866
0.000174
0.000158416
0.000165714
0.000170866
0.000176829
0.000180673
0.000159398
0.000167852
0.000174
0.000180673
0.000185356
0.000144956
0.000152155
0.000157098
0.000162463
0.000165151
0.000152155
0.00016137
0.00016702
0.000172933
0.000177049
0.000157098
0.00016702
0.000174374
0.000182028
0.00018824
0.000162463
0.000172933
0.000182028
0.000191073
0.000198848
0.000165151
0.000177049
0.00018824
0.000198848
0.000207703
0.000143262
0.000152015
0.000158411
0.000165468
0.000170074
0.000152015
0.000164454
0.000173953
0.000182139
0.000188433
0.000158411
0.000173953
0.000185012
0.000197215
0.000207945
0.000165468
0.000182139
0.000197215
0.000213888
0.000229778
0.000170074
0.000188433
0.000207945
0.000229778
0.000256328
0.000137842
0.000148395
0.000156823
0.000165114
0.000171463
0.000148395
0.000162973
0.000176705
0.000189586
0.000198729
0.000156823
0.000176705
0.00019585
0.0002128
0.000229782
0.000165114
0.000189586
0.0002128
0.000234908
0.000259927
0.000171463
0.000198729
0.000229782
0.000259927
0.000260241
0.000130618
0.000143188
0.000153312
0.000164435
0.000173375
0.000143188
0.000162473
0.000180854
0.000201257
0.00022043
0.000153312
0.000180854
0.000212903
0.000244647
0.000289849
0.000164435
0.000201257
0.000244647
0.000298149
0.000377095
0.000173375
0.00022043
0.000289849
0.000377095
0.00060571
0.000118996
0.000131189
0.000142046
0.000151845
0.00016173
0.000131189
0.000150065
0.000169817
0.000189767
0.000214678
0.000142046
0.000169817
0.000207173
0.000249017
0.000299819
0.000151845
0.000189767
0.000249017
0.000320095
0.000465045
0.00016173
0.000214678
0.000299819
0.000465045
0.000583669
0.000105379
0.000117509
0.000128076
0.000138981
0.00015106
0.000117509
0.000139034
0.000160249
0.000188566
0.000212262
0.000128076
0.000160249
0.000204293
0.00026142
0.00034846
0.000138981
0.000188566
0.00026142
0.00040574
0.000430777
0.00015106
0.000212262
0.00034846
0.000430777
0.000898945
8.77579e-05
9.51627e-05
0.000101835
0.000107096
0.000112691
9.51627e-05
0.000108674
0.000120446
0.000134299
0.000143792
0.000101835
0.000120446
0.000141987
0.00016452
0.000190879
0.000107096
0.000134299
0.00016452
0.000230876
0.000320027
0.000112691
0.000143792
0.000190879
0.000320027
0.000715711
6.91379e-05
7.16548e-05
7.31953e-05
7.37472e-05
7.10294e-05
7.16548e-05
7.63726e-05
7.88177e-05
7.86163e-05
7.56101e-05
7.31953e-05
7.88177e-05
7.44675e-05
6.72554e-05
3.72103e-05
7.37472e-05
7.86163e-05
6.72554e-05
3.37676e-05
1.48221e-05
7.10294e-05
7.56101e-05
3.72103e-05
1.48221e-05
-0.000278226
5.06483e-05
4.89227e-05
4.81748e-05
4.63719e-05
4.62653e-05
4.89227e-05
4.90552e-05
4.83053e-05
5.1206e-05
5.09672e-05
4.81748e-05
4.83053e-05
4.86229e-05
5.29789e-05
6.60625e-05
4.63719e-05
5.1206e-05
5.29789e-05
8.17117e-05
5.00511e-05
4.62653e-05
5.09672e-05
6.60625e-05
5.00511e-05
6.16554e-05
3.41614e-05
3.01256e-05
2.75017e-05
2.4494e-05
2.34056e-05
3.01256e-05
2.42704e-05
2.1438e-05
1.45855e-05
1.58686e-05
2.75017e-05
2.1438e-05
1.96898e-05
1.8275e-05
3.84383e-05
2.4494e-05
1.45855e-05
1.8275e-05
2.85876e-05
0.000104969
2.34056e-05
1.58686e-05
3.84383e-05
0.000104969
0.000385208
1.50342e-05
3.34914e-06
-1.02566e-05
-2.3052e-05
-4.16123e-05
3.34914e-06
-1.22481e-05
-3.37788e-05
-5.13275e-05
-7.60995e-05
-1.02566e-05
-3.37788e-05
-8.1245e-05
-0.000124994
-0.000224075
-2.3052e-05
-5.13275e-05
-0.000124994
-0.000114353
-0.000217628
-4.16123e-05
-7.60995e-05
-0.000224075
-0.000217628
-0.000442899
5.71076e-06
-4.51936e-06
-1.41863e-05
-2.50736e-05
-3.64345e-05
-4.51936e-06
-1.8483e-05
-3.71025e-05
-5.4473e-05
-8.59386e-05
-1.41863e-05
-3.71025e-05
-7.18858e-05
-0.000114771
-0.000190067
-2.50736e-05
-5.4473e-05
-0.000114771
-0.000192592
-0.000389784
-3.64345e-05
-8.59386e-05
-0.000190067
-0.000389784
-0.000784267
6.58521e-06
-8.39632e-06
-1.95438e-05
-3.2368e-05
-4.55119e-05
-8.39632e-06
-3.02325e-05
-4.99368e-05
-7.27082e-05
-9.52289e-05
-1.95438e-05
-4.99368e-05
-8.59911e-05
-0.000123354
-0.000168409
-3.2368e-05
-7.27082e-05
-0.000123354
-0.000184594
-0.000267617
-4.55119e-05
-9.52289e-05
-0.000168409
-0.000267617
-0.000436699
-3.19366e-06
-9.06591e-06
-1.38841e-05
-1.97664e-05
-2.59251e-05
-9.06591e-06
-1.71213e-05
-2.82164e-05
-3.90847e-05
-5.09161e-05
-1.38841e-05
-2.82164e-05
-4.77724e-05
-6.3025e-05
-8.26616e-05
-1.97664e-05
-3.90847e-05
-6.3025e-05
-8.20449e-05
-0.000118724
-2.59251e-05
-5.09161e-05
-8.26616e-05
-0.000118724
-0.000179838
1.42211e-05
1.3462e-06
-1.01204e-06
-6.66517e-06
-9.87629e-06
1.3462e-06
-1.6315e-05
-2.00728e-05
-2.65451e-05
-3.33419e-05
-1.01204e-06
-2.00728e-05
-2.57171e-05
-3.63001e-05
-5.27073e-05
-6.66517e-06
-2.65451e-05
-3.63001e-05
-5.2641e-05
-7.66752e-05
-9.87629e-06
-3.33419e-05
-5.27073e-05
-7.66752e-05
-0.000116169
0.000515428
0.000653184
0.000803327
0.000452451
0.000533572
0.000745649
0.000985808
0.000653184
0.000515428
0.000803327
0.000452451
0.000745649
0.000533572
0.000985808
0.00120019
0.00120019
0.00155805
0.000855857
0.00153419
0.00153419
0.00479192
0.000273351
0.000273351
0.00036792
0.000158356
0.000152073
0.000152073
0.000104525
0.00035043
0.000588854
0.000883538
0.000137877
0.000127819
-4.19232e-05
-0.000240247
0.000588854
0.00035043
0.000883538
0.000137877
-4.19232e-05
0.000127819
-0.000240247
0.00171365
0.00171365
0.00279356
-0.000168616
-0.00126707
-0.00126707
-0.00124243
-5.14728e-05
-0.000202595
-0.000516482
2.55256e-05
-2.43805e-06
-8.51803e-05
-0.000198769
-0.000202595
-5.14728e-05
-0.000516482
2.55256e-05
-8.51803e-05
-2.43805e-06
-0.000198769
-0.00105834
-0.00105834
-0.00242011
-0.000294045
-0.000275236
-0.000275236
-0.000860853
5.8696e-05
5.63231e-05
6.96578e-05
0.000119697
0.000142598
0.000226408
0.000345182
5.63231e-05
5.8696e-05
6.96578e-05
0.000119697
0.000226408
0.000142598
0.000345182
7.66454e-05
7.66454e-05
0.000109279
0.000450371
0.00078642
0.00078642
0.00202649
7.64071e-05
7.64071e-05
0.000155249
-2.83278e-05
-3.14179e-05
-3.14179e-05
-3.13849e-06
0.000177011
0.000313536
0.000653861
-1.86054e-05
-2.04201e-05
-7.29569e-05
-3.91619e-05
0.000313536
0.000177011
0.000653861
-1.86054e-05
-7.29569e-05
-2.04201e-05
-3.91619e-05
0.00103987
0.00103987
0.00325582
-4.03849e-05
0.000295867
0.000295867
0.000146441
-0.00015791
-0.00015791
-0.000254656
-0.00015741
-0.000248581
-0.000248581
-0.000418432
-0.000238069
-0.000300247
-0.000412245
-0.000301803
-0.000378244
-0.000620489
-0.000893241
-0.000300247
-0.000238069
-0.000412245
-0.000301803
-0.000620489
-0.000378244
-0.000893241
-0.00139956
-0.00139956
-0.00112053
-0.000693768
-0.00132844
-0.00132844
-0.00302877
-0.00110427
-0.00110427
-0.00205194
-0.000546505
-0.000731449
-0.000731449
-0.000905094
0.000995884
0.000959372
0.000959372
0.000513227
0.00167096
0.000571835
0.000571835
-0.000947196
-0.000585963
-0.000585963
-0.000251435
-0.00116412
-0.000535264
-0.000535264
0.00130085
0.000683188
0.000683188
0.000382268
0.00112583
0.000696721
0.000696721
-0.00167009
-0.000533779
-0.000533779
-0.000613081
-0.00104142
-0.000873639
-0.000873639
0.00165644
0.000851657
0.00116083
0.00116083
0.00117733
0.00117733
0.00174363
0.00213885
0.00153014
0.00128677
0.00266456
0.00131676
0.00232171
0.00255201
0.00213885
0.00153014
0.00128677
0.00266456
0.00131676
0.00232171
0.00255201
0.00283406
0.00358272
0.0039368
0.0039368
0.00299977
0.00316287
0.00316287
0.000390763
0.000456029
0.000727388
0.000387446
0.000537198
0.000347351
0.000459877
0.000456987
0.000682074
0.000858844
0.000470095
0.000593928
0.000484257
0.000520209
0.000166113
0.000161997
3.79699e-05
-0.000163186
0.000181691
0.000120156
-1.53747e-05
0.000172103
0.000117105
-0.000147149
-0.000227667
0.000129634
-6.38289e-05
0.000141923
0.000390763
0.000456029
0.000727388
0.000387446
0.000537198
0.000347351
0.000459877
0.000456987
0.000858844
0.000682074
0.000470095
0.000593928
0.000484257
0.000520209
0.000166113
0.000161997
3.79699e-05
-0.000163186
0.000181691
0.000120156
-1.53747e-05
0.000172103
0.000117105
-0.000227667
-0.000147149
0.000129634
-6.38289e-05
0.000141923
0.000932162
0.001188
0.00214809
0.00137837
0.00205175
0.000967489
0.000998394
0.000932162
0.001188
0.00214809
0.00137837
0.00205175
0.000967489
0.000998394
0.00108929
0.00253534
0.00253534
0.001276
0.00237519
0.00116706
0.00116706
-0.000259488
0.000131577
-0.000369687
-0.000369687
7.50023e-05
7.50023e-05
-0.00111941
-7.66587e-05
-0.000294733
-0.000727666
-0.00131546
-4.84744e-05
-0.00126111
-0.000131283
-7.66587e-05
-0.000294733
-0.000727666
-0.00131546
-4.84744e-05
-0.00126111
-0.000131283
-7.0207e-05
-2.37182e-05
-0.00126294
-0.00126294
-0.00122546
-6.42183e-05
-6.42183e-05
-0.000169694
-0.000231261
-0.000448431
-0.000500803
-0.000153541
-0.000444497
-0.00024114
-0.000169694
-0.000448431
-0.000231261
-0.000500803
-0.000153541
-0.000444497
-0.00024114
-0.00136834
-0.000720331
-0.00203595
-0.000880184
-0.00170561
-0.000680021
-0.00163706
-0.00136834
-0.000720331
-0.00203595
-0.000880184
-0.00170561
-0.000680021
-0.00163706
-0.00180908
-0.0024063
-0.0024063
-0.00292314
-0.00207741
-0.00215297
-0.00215297
-0.000874298
-0.000613426
-0.000171773
-0.000560916
-0.000493281
-0.000461874
-0.000975582
-0.000874298
-0.000613426
-0.000171773
-0.000560916
-0.000493281
-0.000461874
-0.000975582
-0.00119042
-0.00171153
-0.000661358
-0.000661358
-0.000509306
-0.00146486
-0.00146486
0.000647571
0.000444968
0.00065148
0.00117741
0.000337647
0.00106965
0.00075638
0.000647571
0.000444968
0.00065148
0.00117741
0.000337647
0.00106965
0.00075638
0.000717329
0.00109199
0.00176291
0.00176291
0.00144178
0.000875704
0.000875704
0.000274754
0.000367365
0.000593491
0.00064761
0.000293276
0.000574243
0.000362145
0.000119983
0.000140725
-6.98717e-05
-2.44794e-05
6.76075e-05
0.000264916
-5.70513e-05
0.000169619
0.000308231
-1.41104e-05
-5.47823e-05
0.000319525
-5.49727e-05
0.00026107
0.000274754
0.000593491
0.000367365
0.00064761
0.000293276
0.000574243
0.000362145
0.000119983
0.000140725
-6.98717e-05
-2.44794e-05
6.76075e-05
0.000264916
-5.70513e-05
0.000169619
0.000308231
-5.47823e-05
-1.41104e-05
0.000319525
-5.49727e-05
0.00026107
0.00183622
0.000832906
0.00186979
0.00120839
0.00159204
0.000831693
0.00220295
0.00183622
0.000832906
0.00186979
0.00120839
0.00159204
0.000831693
0.00220295
0.00225785
0.0024135
0.0024135
0.00267824
0.0020184
0.00266554
0.00266554
0.0012451
0.000258923
-3.48704e-05
-3.48704e-05
0.000438797
0.000438797
0.000253608
0.00130507
0.00139064
7.74312e-05
0.000163928
0.00082225
7.8324e-05
0.0013567
0.00130507
0.00139064
7.74312e-05
0.000163928
0.00082225
7.8324e-05
0.0013567
0.00132148
0.00140155
0.000152376
0.000152376
0.000124504
0.00139076
0.00139076
-0.000433142
-0.000259537
-0.000381239
-0.000475599
-0.000304655
-0.000349617
-0.000625046
-0.000493183
-0.000436695
-0.000419241
-0.000776534
-0.000379798
-0.000752728
-0.000579624
-0.000433142
-0.000259537
-0.000381239
-0.000475599
-0.000304655
-0.000349617
-0.000625046
-0.000493183
-0.000419241
-0.000436695
-0.000776534
-0.000379798
-0.000752728
-0.000579624
-0.00200045
-0.000978943
-0.000964861
-0.00162809
-0.000961583
-0.00114033
-0.00206838
-0.00200045
-0.000978943
-0.000964861
-0.00162809
-0.000961583
-0.00114033
-0.00206838
-0.00223041
-0.00106375
-0.00106375
-0.00250107
-0.00103314
-0.00235155
-0.00235155
-0.00166371
-0.000705538
-0.00100604
-0.00100604
-0.00104377
-0.00104377
-0.00147464
-0.00219727
-0.0014513
-0.00112387
-0.00226299
-0.00118613
-0.00189329
-0.00258232
-0.00219727
-0.0014513
-0.00112387
-0.00226299
-0.00118613
-0.00189329
-0.00258232
-0.00277859
-0.0041361
-0.00268388
-0.00268388
-0.00237794
-0.00363674
-0.00363674
-0.00120812
-0.00186132
-0.00186132
-0.00148664
-0.00166764
-0.00134857
-0.00134857
0.000501888
0.000501888
0.000433184
0.000790431
0.00103156
0.00103156
0.0015076
0.00199096
0.00153053
0.00153053
0.00254625
0.00155962
0.00223939
0.00223939
)
;

boundaryField
{
    inlet
    {
        type            fixedValue;
        value           uniform 0;
    }
    wall
    {
        type            zeroGradient;
    }
    outlet
    {
        type            fixedValue;
        value           uniform 0;
    }
    procBoundary0to1
    {
        type            processor;
        value           nonuniform List<scalar> 
326
(
3.31107e-06
3.31156e-06
3.31136e-06
3.31156e-06
3.31145e-06
6.14905e-06
6.14985e-06
6.14987e-06
6.15006e-06
6.15001e-06
1.57491e-05
1.575e-05
1.57499e-05
1.57502e-05
1.575e-05
1.96007e-05
1.96022e-05
1.96022e-05
1.96026e-05
1.96024e-05
2.84695e-05
2.84716e-05
2.84714e-05
2.84722e-05
2.84719e-05
3.33876e-05
3.33908e-05
3.33907e-05
3.33919e-05
3.33917e-05
4.12526e-05
4.12574e-05
4.12573e-05
4.12593e-05
4.12591e-05
4.70316e-05
4.70389e-05
4.70387e-05
4.70418e-05
4.70417e-05
5.42305e-05
5.42414e-05
5.4241e-05
5.42454e-05
5.4245e-05
6.05259e-05
6.05422e-05
6.05411e-05
6.05473e-05
6.05462e-05
6.73943e-05
6.74188e-05
6.74162e-05
6.74249e-05
6.74226e-05
7.39573e-05
7.39939e-05
7.39891e-05
7.40011e-05
7.39965e-05
8.0732e-05
8.07872e-05
8.07791e-05
8.0796e-05
8.07879e-05
8.74595e-05
8.75432e-05
8.75322e-05
8.75586e-05
8.75467e-05
9.43026e-05
9.44323e-05
9.44221e-05
9.44617e-05
9.44445e-05
0.000101216
0.000101423
0.000101433
0.000101524
0.000101526
0.00010826
0.000108594
0.000108709
0.000108997
0.000109128
0.000115407
0.000115976
0.000116372
0.000117009
0.00011732
0.000122702
0.000123687
0.000124436
0.000125413
0.000125813
0.000129883
0.000131426
0.000132375
0.00013343
0.000133845
0.000136699
0.000138816
0.000139907
0.000141187
0.000141704
0.000142757
0.00014563
0.000147117
0.000148934
0.000149762
0.00014852
0.000152579
0.000154842
0.000157557
0.000158936
0.000153791
0.000159606
0.000163408
0.000167623
0.000170391
0.000159395
0.000167851
0.000173999
0.000180674
0.000185356
0.000165147
0.000177046
0.000188238
0.000198847
0.000207704
0.000170068
0.000188433
0.000207943
0.000229781
0.000256323
0.000171457
0.000198729
0.000229782
0.000259947
0.000260276
0.000173366
0.000220425
0.000289838
0.000377069
0.000605636
0.00016172
0.000214688
0.000299803
0.000465064
0.000502064
0.000151057
0.000212257
0.000348473
0.00051566
0.0012013
0.000112678
0.000143788
0.000190879
0.000350402
0.00171372
7.10184e-05
7.56117e-05
3.7196e-05
-5.15136e-05
-0.00105832
4.62602e-05
5.09699e-05
6.60586e-05
5.87096e-05
7.66504e-05
2.34048e-05
1.58732e-05
3.8434e-05
0.000177065
0.00103981
-4.16092e-05
-7.60889e-05
-0.000224089
-0.000238042
-0.00139958
-3.64437e-05
-8.59222e-05
-0.00019007
-0.00038975
-0.00110489
-4.54924e-05
-9.52172e-05
-0.000168398
-0.000267576
-0.000436681
-2.59287e-05
-5.09116e-05
-8.26769e-05
-0.000118717
-0.000179894
-9.86203e-06
-3.33398e-05
-5.27039e-05
-7.66804e-05
-0.000116178
0.000803242
0.00098573
0.000533576
0.00155848
0.00479203
0.00153441
0.000883526
-0.000240252
0.000127766
0.00279362
-0.00124244
-0.00126706
-0.000516486
-0.000198767
-2.4518e-06
-0.00242012
-0.000860826
-0.000275223
6.96625e-05
0.000345183
0.000142609
0.000109293
0.00202642
0.00078636
0.000653832
-3.91529e-05
-2.04114e-05
0.00325579
0.00014644
0.00029587
-0.00041223
-0.000893282
-0.000378236
-0.00112054
-0.00302873
-0.00132864
-0.00205195
-0.0009049
-0.000730884
0.00214814
0.000998409
0.00137841
-0.00203595
-0.00163706
-0.000880175
0.00186974
0.00220292
0.00120836
-0.000964861
-0.00206837
-0.00162809
0.00393721
0.00316481
0.003583
0.00153052
0.00255264
0.00266477
0.00047008
0.000520201
0.000682072
-0.000147142
0.000141918
0.000117097
0.00127601
0.00116709
0.00253548
-0.00126295
-6.42161e-05
-2.37183e-05
-0.00029472
-0.000131285
-0.00131546
-0.000500811
-0.000241136
-0.000231258
-0.00292313
-0.00215294
-0.0024063
-0.000661328
-0.00146484
-0.00171149
-0.000613407
-0.000975562
-0.000560904
0.00176283
0.000875621
0.0010919
0.000444897
0.000756315
0.00117735
0.000647587
0.000362124
0.000367333
-1.40944e-05
0.000261066
0.000308217
0.00267823
0.00266551
0.00241345
0.000152374
0.00139075
0.00140155
0.00139062
0.00135668
0.000163926
-0.000776522
-0.00057958
-0.000436681
-0.00250108
-0.00235157
-0.00106376
-0.00268378
-0.00363684
-0.00413614
-0.00145143
-0.00258238
-0.00226302
-0.00148659
-0.00134843
-0.00186126
0.000433474
0.00150686
0.00103134
0.00254674
0.00223903
0.00153117
)
;
    }
    procBoundary0to2
    {
        type            processor;
        value           nonuniform List<scalar> 
326
(
3.31107e-06
3.31156e-06
3.31136e-06
3.31156e-06
3.31145e-06
6.14905e-06
6.14985e-06
6.14987e-06
6.15006e-06
6.15001e-06
1.57491e-05
1.575e-05
1.57499e-05
1.57502e-05
1.575e-05
1.96007e-05
1.96022e-05
1.96022e-05
1.96026e-05
1.96024e-05
2.84695e-05
2.84716e-05
2.84714e-05
2.84722e-05
2.84719e-05
3.33876e-05
3.33908e-05
3.33907e-05
3.33919e-05
3.33917e-05
4.12526e-05
4.12574e-05
4.12573e-05
4.12593e-05
4.12591e-05
4.70316e-05
4.70389e-05
4.70387e-05
4.70418e-05
4.70417e-05
5.42305e-05
5.42414e-05
5.4241e-05
5.42454e-05
5.4245e-05
6.05259e-05
6.05422e-05
6.05411e-05
6.05473e-05
6.05462e-05
6.73943e-05
6.74188e-05
6.74162e-05
6.74249e-05
6.74226e-05
7.39573e-05
7.39939e-05
7.39891e-05
7.40011e-05
7.39965e-05
8.0732e-05
8.07872e-05
8.07791e-05
8.0796e-05
8.07879e-05
8.74595e-05
8.75432e-05
8.75322e-05
8.75586e-05
8.75467e-05
9.43026e-05
9.44323e-05
9.44221e-05
9.44617e-05
9.44445e-05
0.000101216
0.000101423
0.000101433
0.000101524
0.000101526
0.00010826
0.000108594
0.000108709
0.000108997
0.000109128
0.000115407
0.000115976
0.000116372
0.000117009
0.00011732
0.000122702
0.000123687
0.000124436
0.000125413
0.000125813
0.000129883
0.000131426
0.000132375
0.00013343
0.000133845
0.000136699
0.000138816
0.000139907
0.000141187
0.000141704
0.000142757
0.00014563
0.000147117
0.000148934
0.000149762
0.00014852
0.000152579
0.000154842
0.000157557
0.000158936
0.000153791
0.000159606
0.000163408
0.000167623
0.000170391
0.000159395
0.000167851
0.000173999
0.000180674
0.000185356
0.000165147
0.000177046
0.000188238
0.000198847
0.000207704
0.000170068
0.000188433
0.000207943
0.000229781
0.000256323
0.000171457
0.000198729
0.000229782
0.000259947
0.000260276
0.000173366
0.000220425
0.000289838
0.000377069
0.000605636
0.00016172
0.000214688
0.000299803
0.000465064
0.000502064
0.000151057
0.000212257
0.000348473
0.00051566
0.0012013
0.000112678
0.000143788
0.000190879
0.000350402
0.00171372
7.10184e-05
7.56117e-05
3.7196e-05
-5.15136e-05
-0.00105832
4.62602e-05
5.09699e-05
6.60586e-05
5.87096e-05
7.66504e-05
2.34048e-05
1.58732e-05
3.8434e-05
0.000177065
0.00103981
-4.16092e-05
-7.60889e-05
-0.000224089
-0.000238042
-0.00139958
-3.64437e-05
-8.59222e-05
-0.00019007
-0.00038975
-0.00110489
-4.54924e-05
-9.52172e-05
-0.000168398
-0.000267576
-0.000436681
-2.59287e-05
-5.09116e-05
-8.26769e-05
-0.000118717
-0.000179894
-9.86203e-06
-3.33398e-05
-5.27039e-05
-7.66804e-05
-0.000116178
0.000533576
0.00098573
0.000803242
0.00153441
0.00479203
0.00155848
0.000127766
-0.000240252
0.000883526
-0.00126706
-0.00124244
0.00279362
-2.4518e-06
-0.000198767
-0.000516486
-0.000275223
-0.000860826
-0.00242012
0.000142609
0.000345183
6.96625e-05
0.00078636
0.00202642
0.000109293
-2.04114e-05
-3.91529e-05
0.000653832
0.00029587
0.00014644
0.00325579
-0.000378236
-0.000893282
-0.00041223
-0.00132864
-0.00302873
-0.00112054
-0.000730884
-0.0009049
-0.00205195
0.00137841
0.000998409
0.00214814
-0.000880175
-0.00163706
-0.00203595
0.00120836
0.00220292
0.00186974
-0.00162809
-0.00206837
-0.000964861
0.00266477
0.00255264
0.00153052
0.003583
0.00316481
0.00393721
0.000117097
0.000141918
-0.000147142
0.000682072
0.000520201
0.00047008
-0.00131546
-0.000131285
-0.00029472
-2.37183e-05
-6.42161e-05
-0.00126295
0.00253548
0.00116709
0.00127601
-0.000231258
-0.000241136
-0.000500811
-0.000560904
-0.000975562
-0.000613407
-0.00171149
-0.00146484
-0.000661328
-0.0024063
-0.00215294
-0.00292313
0.00117735
0.000756315
0.000444897
0.0010919
0.000875621
0.00176283
0.000308217
0.000261066
-1.40944e-05
0.000367333
0.000362124
0.000647587
0.000163926
0.00135668
0.00139062
0.00140155
0.00139075
0.000152374
0.00241345
0.00266551
0.00267823
-0.000436681
-0.00057958
-0.000776522
-0.00226302
-0.00258238
-0.00145143
-0.00413614
-0.00363684
-0.00268378
-0.00106376
-0.00235157
-0.00250108
-0.00186126
-0.00134843
-0.00148659
0.00103134
0.00150686
0.000433474
0.00153117
0.00223903
0.00254674
)
;
    }
}


// ************************************************************************* //
