/*--------------------------------*- C++ -*----------------------------------*\
| =========                 |                                                 |
| \\      /  F ield         | OpenFOAM: The Open Source CFD Toolbox           |
|  \\    /   O peration     | Version:  5.x                                   |
|   \\  /    A nd           | Web:      www.OpenFOAM.org                      |
|    \\/     M anipulation  |                                                 |
\*---------------------------------------------------------------------------*/
FoamFile
{
    version     2.0;
    format      ascii;
    class       volVectorField;
    location    "0.006";
    object      U;
}
// * * * * * * * * * * * * * * * * * * * * * * * * * * * * * * * * * * * * * //

dimensions      [0 1 -1 0 0 0 0];

internalField   nonuniform List<vector> 
1581
(
(-4.26171e-10 -4.25933e-10 -0.000386497)
(3.99632e-08 -4.37761e-08 -0.000386036)
(-1.84998e-08 -7.67026e-08 -0.00038589)
(-6.14388e-08 -6.60677e-08 -0.000385939)
(-2.45948e-08 -7.03226e-08 -0.000385943)
(-4.37766e-08 3.99629e-08 -0.000386036)
(-3.73335e-08 -3.73337e-08 -0.000386001)
(-4.11779e-08 -8.70575e-08 -0.000385956)
(-5.541e-08 -8.42437e-08 -0.000385984)
(-2.12095e-08 -9.52348e-08 -0.000385983)
(-7.67022e-08 -1.85002e-08 -0.00038589)
(-8.70574e-08 -4.11778e-08 -0.000385956)
(-6.55457e-08 -6.55457e-08 -0.000385941)
(-6.96867e-08 -6.40891e-08 -0.000385975)
(-2.85676e-08 -7.11381e-08 -0.000385975)
(-6.60677e-08 -6.14388e-08 -0.000385939)
(-8.42436e-08 -5.541e-08 -0.000385984)
(-6.40888e-08 -6.9687e-08 -0.000385975)
(-6.10028e-08 -6.1003e-08 -0.000385999)
(-2.44533e-08 -6.42731e-08 -0.000385997)
(-7.03227e-08 -2.45952e-08 -0.000385943)
(-9.52348e-08 -2.12095e-08 -0.000385983)
(-7.11383e-08 -2.85674e-08 -0.000385975)
(-6.42728e-08 -2.44539e-08 -0.000385997)
(-2.67647e-08 -2.67653e-08 -0.000385998)
(-2.65623e-07 -2.65623e-07 0.000200999)
(-3.58073e-07 -1.36198e-07 0.000200878)
(-1.95392e-07 -1.02309e-07 0.000200812)
(-1.45459e-07 -7.31735e-08 0.000200787)
(-6.85797e-08 -6.30531e-08 0.000200767)
(-1.36198e-07 -3.58073e-07 0.000200878)
(-1.95912e-07 -1.95912e-07 0.000200814)
(-1.32932e-07 -1.52852e-07 0.000200775)
(-1.06553e-07 -1.13667e-07 0.00020075)
(-5.16248e-08 -1.0015e-07 0.000200735)
(-1.02309e-07 -1.95392e-07 0.000200812)
(-1.52852e-07 -1.32932e-07 0.000200775)
(-1.13229e-07 -1.13229e-07 0.000200748)
(-9.28102e-08 -9.10181e-08 0.000200729)
(-4.51242e-08 -8.23391e-08 0.000200718)
(-7.31736e-08 -1.45459e-07 0.000200787)
(-1.13667e-07 -1.06554e-07 0.00020075)
(-9.10181e-08 -9.28104e-08 0.000200729)
(-7.56638e-08 -7.56637e-08 0.000200708)
(-3.57181e-08 -6.80516e-08 0.000200699)
(-6.30532e-08 -6.85799e-08 0.000200767)
(-1.0015e-07 -5.16247e-08 0.000200735)
(-8.23388e-08 -4.51243e-08 0.000200718)
(-6.80518e-08 -3.57182e-08 0.000200699)
(-3.0983e-08 -3.09829e-08 0.000200691)
(-1.2293e-07 -1.22931e-07 -0.000270801)
(-1.49696e-07 -1.08262e-07 -0.000270723)
(-1.10436e-07 -1.14392e-07 -0.000270706)
(-1.07543e-07 -1.03567e-07 -0.000270719)
(-4.21709e-08 -1.03181e-07 -0.000270722)
(-1.08263e-07 -1.49696e-07 -0.000270723)
(-1.41494e-07 -1.41494e-07 -0.00027074)
(-1.0594e-07 -1.52553e-07 -0.000270748)
(-9.65224e-08 -1.43228e-07 -0.000270776)
(-3.65073e-08 -1.4491e-07 -0.000270784)
(-1.14391e-07 -1.10436e-07 -0.000270706)
(-1.52553e-07 -1.0594e-07 -0.000270748)
(-1.12214e-07 -1.12214e-07 -0.000270763)
(-9.99353e-08 -1.06692e-07 -0.000270797)
(-3.83653e-08 -1.07671e-07 -0.000270806)
(-1.03567e-07 -1.07543e-07 -0.000270719)
(-1.43228e-07 -9.65222e-08 -0.000270776)
(-1.06692e-07 -9.99352e-08 -0.000270797)
(-9.19793e-08 -9.19795e-08 -0.000270834)
(-3.386e-08 -9.1441e-08 -0.000270846)
(-1.03181e-07 -4.2171e-08 -0.000270722)
(-1.4491e-07 -3.65075e-08 -0.000270784)
(-1.07671e-07 -3.83658e-08 -0.000270806)
(-9.14409e-08 -3.38606e-08 -0.000270846)
(-3.34787e-08 -3.34787e-08 -0.000270858)
(-1.86127e-07 -1.86126e-07 8.45782e-05)
(-2.62811e-07 -1.53185e-07 8.44883e-05)
(-1.91166e-07 -1.44097e-07 8.44303e-05)
(-1.60914e-07 -1.30323e-07 8.43756e-05)
(-6.70947e-08 -1.25077e-07 8.4348e-05)
(-1.53185e-07 -2.62812e-07 8.44883e-05)
(-2.21059e-07 -2.21059e-07 8.43928e-05)
(-1.68485e-07 -2.09601e-07 8.43405e-05)
(-1.42045e-07 -1.91585e-07 8.42806e-05)
(-5.6683e-08 -1.84719e-07 8.42541e-05)
(-1.44097e-07 -1.91166e-07 8.44303e-05)
(-2.09601e-07 -1.68485e-07 8.43405e-05)
(-1.61716e-07 -1.61716e-07 8.42919e-05)
(-1.36054e-07 -1.49615e-07 8.42337e-05)
(-5.33035e-08 -1.4451e-07 8.4209e-05)
(-1.30324e-07 -1.60915e-07 8.43756e-05)
(-1.91585e-07 -1.42045e-07 8.42806e-05)
(-1.49614e-07 -1.36054e-07 8.42337e-05)
(-1.2484e-07 -1.24839e-07 8.41725e-05)
(-4.6245e-08 -1.1974e-07 8.41481e-05)
(-1.25075e-07 -6.70951e-08 8.4348e-05)
(-1.84718e-07 -5.66838e-08 8.42541e-05)
(-1.4451e-07 -5.3304e-08 8.4209e-05)
(-1.19739e-07 -4.62445e-08 8.41481e-05)
(-4.29503e-08 -4.29502e-08 8.41247e-05)
(-2.12843e-07 -2.12842e-07 -0.00017184)
(-2.976e-07 -2.04e-07 -0.000171948)
(-2.23172e-07 -2.04362e-07 -0.000172003)
(-1.89754e-07 -1.98819e-07 -0.000172082)
(-6.56774e-08 -1.97432e-07 -0.000172111)
(-2.04e-07 -2.976e-07 -0.000171948)
(-2.89231e-07 -2.89231e-07 -0.000172082)
(-2.18074e-07 -2.90873e-07 -0.000172145)
(-1.82906e-07 -2.85071e-07 -0.000172233)
(-6.09836e-08 -2.83911e-07 -0.000172266)
(-2.04361e-07 -2.23171e-07 -0.000172003)
(-2.90873e-07 -2.18074e-07 -0.000172145)
(-2.19026e-07 -2.19026e-07 -0.000172209)
(-1.82807e-07 -2.14867e-07 -0.000172301)
(-6.06603e-08 -2.1375e-07 -0.000172335)
(-1.98821e-07 -1.89754e-07 -0.000172082)
(-2.85072e-07 -1.82906e-07 -0.000172233)
(-2.14867e-07 -1.82806e-07 -0.000172301)
(-1.7763e-07 -1.7763e-07 -0.000172398)
(-5.68915e-08 -1.75742e-07 -0.000172434)
(-1.97432e-07 -6.56778e-08 -0.000172111)
(-2.83911e-07 -6.09841e-08 -0.000172266)
(-2.1375e-07 -6.06607e-08 -0.000172335)
(-1.75741e-07 -5.68911e-08 -0.000172434)
(-5.5639e-08 -5.5639e-08 -0.00017247)
(-2.94685e-07 -2.94686e-07 5.46334e-06)
(-4.25732e-07 -2.87883e-07 5.2454e-06)
(-3.24786e-07 -2.86304e-07 5.13997e-06)
(-2.69209e-07 -2.82483e-07 4.99883e-06)
(-8.93068e-08 -2.80667e-07 4.94379e-06)
(-2.87883e-07 -4.25732e-07 5.2454e-06)
(-4.17413e-07 -4.17414e-07 5.01751e-06)
(-3.19436e-07 -4.15568e-07 4.91066e-06)
(-2.63623e-07 -4.10751e-07 4.76337e-06)
(-8.46459e-08 -4.08339e-07 4.70678e-06)
(-2.86304e-07 -3.24786e-07 5.13997e-06)
(-4.15568e-07 -3.19436e-07 4.91066e-06)
(-3.18132e-07 -3.18132e-07 4.80399e-06)
(-2.61989e-07 -3.14329e-07 4.65537e-06)
(-8.3156e-08 -3.12305e-07 4.59871e-06)
(-2.82483e-07 -2.69209e-07 4.99883e-06)
(-4.10751e-07 -2.63623e-07 4.76337e-06)
(-3.14328e-07 -2.61989e-07 4.65537e-06)
(-2.57795e-07 -2.57795e-07 4.50279e-06)
(-7.94681e-08 -2.55294e-07 4.44476e-06)
(-2.80667e-07 -8.93071e-08 4.94379e-06)
(-4.08339e-07 -8.46461e-08 4.70678e-06)
(-3.12305e-07 -8.3156e-08 4.59871e-06)
(-2.55293e-07 -7.94685e-08 4.44476e-06)
(-7.78659e-08 -7.78659e-08 4.38671e-06)
(-4.31602e-07 -4.31602e-07 -0.00011177)
(-6.20935e-07 -4.32802e-07 -0.000112113)
(-4.69749e-07 -4.34598e-07 -0.000112266)
(-3.85935e-07 -4.35254e-07 -0.000112487)
(-1.1622e-07 -4.35442e-07 -0.000112568)
(-4.32802e-07 -6.20935e-07 -0.000112113)
(-6.23939e-07 -6.23939e-07 -0.000112471)
(-4.72209e-07 -6.26825e-07 -0.000112629)
(-3.86795e-07 -6.28502e-07 -0.000112859)
(-1.14515e-07 -6.28969e-07 -0.000112943)
(-4.34598e-07 -4.69749e-07 -0.000112266)
(-6.26825e-07 -4.72209e-07 -0.000112629)
(-4.74318e-07 -4.74318e-07 -0.00011279)
(-3.88085e-07 -4.75444e-07 -0.000113023)
(-1.14438e-07 -4.75761e-07 -0.000113108)
(-4.35254e-07 -3.85935e-07 -0.000112487)
(-6.28502e-07 -3.86795e-07 -0.000112859)
(-4.75444e-07 -3.88085e-07 -0.000113023)
(-3.88239e-07 -3.88238e-07 -0.000113261)
(-1.12873e-07 -3.87738e-07 -0.000113349)
(-4.35442e-07 -1.16219e-07 -0.000112568)
(-6.28969e-07 -1.14514e-07 -0.000112943)
(-4.75761e-07 -1.14438e-07 -0.000113108)
(-3.87738e-07 -1.12873e-07 -0.000113349)
(-1.12683e-07 -1.12683e-07 -0.000113438)
(-6.39685e-07 -6.39685e-07 -3.66712e-05)
(-9.22356e-07 -6.47067e-07 -3.72085e-05)
(-6.98661e-07 -6.50923e-07 -3.74451e-05)
(-5.7097e-07 -6.55643e-07 -3.779e-05)
(-1.6494e-07 -6.57272e-07 -3.79165e-05)
(-6.47066e-07 -9.22356e-07 -3.72085e-05)
(-9.33554e-07 -9.33554e-07 -3.7762e-05)
(-7.07209e-07 -9.39034e-07 -3.80051e-05)
(-5.77302e-07 -9.4623e-07 -3.83608e-05)
(-1.65064e-07 -9.485e-07 -3.84914e-05)
(-6.50923e-07 -6.98662e-07 -3.74451e-05)
(-9.39034e-07 -7.07209e-07 -3.80051e-05)
(-7.11341e-07 -7.11341e-07 -3.82506e-05)
(-5.8044e-07 -7.16654e-07 -3.86107e-05)
(-1.65462e-07 -7.18416e-07 -3.87427e-05)
(-6.55643e-07 -5.7097e-07 -3.779e-05)
(-9.4623e-07 -5.77303e-07 -3.83608e-05)
(-7.16654e-07 -5.8044e-07 -3.86107e-05)
(-5.84378e-07 -5.84378e-07 -3.8978e-05)
(-1.65242e-07 -5.85023e-07 -3.9113e-05)
(-6.57272e-07 -1.6494e-07 -3.79165e-05)
(-9.485e-07 -1.65063e-07 -3.84914e-05)
(-7.18416e-07 -1.65462e-07 -3.87427e-05)
(-5.85022e-07 -1.65242e-07 -3.9113e-05)
(-1.65889e-07 -1.65889e-07 -3.92484e-05)
(-9.71264e-07 -9.71264e-07 -8.17667e-05)
(-1.39479e-06 -9.88779e-07 -8.25964e-05)
(-1.05126e-06 -9.97131e-07 -8.29531e-05)
(-8.57288e-07 -1.00859e-06 -8.34838e-05)
(-2.3893e-07 -1.01294e-06 -8.36755e-05)
(-9.88779e-07 -1.39479e-06 -8.25964e-05)
(-1.42055e-06 -1.42055e-06 -8.34522e-05)
(-1.07098e-06 -1.43227e-06 -8.38203e-05)
(-8.73034e-07 -1.44916e-06 -8.43684e-05)
(-2.4215e-07 -1.4552e-06 -8.45669e-05)
(-9.97131e-07 -1.05126e-06 -8.29531e-05)
(-1.43227e-06 -1.07098e-06 -8.38203e-05)
(-1.07987e-06 -1.07987e-06 -8.41928e-05)
(-8.8022e-07 -1.09271e-06 -8.47485e-05)
(-2.43871e-07 -1.0974e-06 -8.49496e-05)
(-1.00858e-06 -8.57288e-07 -8.34838e-05)
(-1.44916e-06 -8.73034e-07 -8.43684e-05)
(-1.09271e-06 -8.80219e-07 -8.47485e-05)
(-8.90565e-07 -8.90566e-07 -8.5316e-05)
(-2.45889e-07 -8.9343e-07 -8.55216e-05)
(-1.01294e-06 -2.38929e-07 -8.36755e-05)
(-1.4552e-06 -2.42149e-07 -8.45669e-05)
(-1.0974e-06 -2.43871e-07 -8.49496e-05)
(-8.9343e-07 -2.45889e-07 -8.55216e-05)
(-2.47829e-07 -2.4783e-07 -8.57282e-05)
(-1.47328e-06 -1.47328e-06 -5.4401e-05)
(-2.10878e-06 -1.50676e-06 -5.56671e-05)
(-1.586e-06 -1.52213e-06 -5.62046e-05)
(-1.29338e-06 -1.54434e-06 -5.70149e-05)
(-3.53081e-07 -1.55281e-06 -5.73057e-05)
(-1.50676e-06 -2.10878e-06 -5.56671e-05)
(-2.15742e-06 -2.15742e-06 -5.69771e-05)
(-1.6234e-06 -2.17873e-06 -5.75339e-05)
(-1.32392e-06 -2.21095e-06 -5.83737e-05)
(-3.60616e-07 -2.2226e-06 -5.86758e-05)
(-1.52213e-06 -1.586e-06 -5.62046e-05)
(-2.17873e-06 -1.6234e-06 -5.75339e-05)
(-1.63953e-06 -1.63953e-06 -5.80979e-05)
(-1.33725e-06 -1.66421e-06 -5.89507e-05)
(-3.63993e-07 -1.67313e-06 -5.9257e-05)
(-1.54434e-06 -1.29338e-06 -5.70149e-05)
(-2.21095e-06 -1.32392e-06 -5.83737e-05)
(-1.66421e-06 -1.33725e-06 -5.89507e-05)
(-1.35751e-06 -1.35751e-06 -5.98234e-05)
(-3.68945e-07 -1.36365e-06 -6.01372e-05)
(-1.55281e-06 -3.53081e-07 -5.73057e-05)
(-2.2226e-06 -3.60616e-07 -5.86758e-05)
(-1.67313e-06 -3.63993e-07 -5.9257e-05)
(-1.36365e-06 -3.68945e-07 -6.01372e-05)
(-3.72173e-07 -3.72173e-07 -6.04529e-05)
(-2.24328e-06 -2.24328e-06 -6.80833e-05)
(-3.19838e-06 -2.30482e-06 -7.00129e-05)
(-2.39902e-06 -2.33258e-06 -7.08209e-05)
(-1.95836e-06 -2.37378e-06 -7.2055e-05)
(-5.26838e-07 -2.38944e-06 -7.24945e-05)
(-2.30482e-06 -3.19838e-06 -7.00129e-05)
(-3.28727e-06 -3.28727e-06 -7.20186e-05)
(-2.46764e-06 -3.32558e-06 -7.28601e-05)
(-2.01495e-06 -3.38492e-06 -7.41461e-05)
(-5.41664e-07 -3.40645e-06 -7.4605e-05)
(-2.33258e-06 -2.39902e-06 -7.08209e-05)
(-3.32558e-06 -2.46764e-06 -7.28601e-05)
(-2.49667e-06 -2.49667e-06 -7.37144e-05)
(-2.03923e-06 -2.54241e-06 -7.5023e-05)
(-5.47871e-07 -2.5588e-06 -7.54892e-05)
(-2.37378e-06 -1.95836e-06 -7.2055e-05)
(-3.38492e-06 -2.01495e-06 -7.41461e-05)
(-2.54241e-06 -2.03923e-06 -7.5023e-05)
(-2.07708e-06 -2.07708e-06 -7.63669e-05)
(-5.57696e-07 -2.0894e-06 -7.6846e-05)
(-2.38944e-06 -5.26838e-07 -7.24945e-05)
(-3.40644e-06 -5.41663e-07 -7.4605e-05)
(-2.5588e-06 -5.47871e-07 -7.54892e-05)
(-2.0894e-06 -5.57696e-07 -7.6846e-05)
(-5.62661e-07 -5.62662e-07 -7.73295e-05)
(-3.41209e-06 -3.41208e-06 -5.8515e-05)
(-4.84635e-06 -3.52193e-06 -6.14394e-05)
(-3.62806e-06 -3.57112e-06 -6.26514e-05)
(-2.967e-06 -3.64545e-06 -6.45237e-05)
(-7.8993e-07 -3.67338e-06 -6.51867e-05)
(-3.52193e-06 -4.84635e-06 -6.14394e-05)
(-5.00462e-06 -5.00462e-06 -6.44979e-05)
(-3.75096e-06 -5.07232e-06 -6.57692e-05)
(-3.06877e-06 -5.17892e-06 -6.77342e-05)
(-8.17069e-07 -5.21736e-06 -6.84314e-05)
(-3.57112e-06 -3.62806e-06 -6.26514e-05)
(-5.07232e-06 -3.75096e-06 -6.57692e-05)
(-3.80236e-06 -3.80236e-06 -6.7063e-05)
(-3.11204e-06 -3.885e-06 -6.90683e-05)
(-8.27996e-07 -3.91418e-06 -6.97786e-05)
(-3.64545e-06 -2.967e-06 -6.45237e-05)
(-5.17892e-06 -3.06877e-06 -6.77342e-05)
(-3.885e-06 -3.11204e-06 -6.90683e-05)
(-3.18059e-06 -3.18059e-06 -7.1138e-05)
(-8.45899e-07 -3.20391e-06 -7.18711e-05)
(-3.67338e-06 -7.8993e-07 -6.51867e-05)
(-5.21736e-06 -8.17069e-07 -6.84314e-05)
(-3.91418e-06 -8.27995e-07 -6.97786e-05)
(-3.20391e-06 -8.45899e-07 -7.18711e-05)
(-8.5336e-07 -8.5336e-07 -7.26127e-05)
(-5.18188e-06 -5.18188e-06 -5.99094e-05)
(-7.33485e-06 -5.37804e-06 -6.43333e-05)
(-5.48324e-06 -5.4655e-06 -6.61477e-05)
(-4.49365e-06 -5.59986e-06 -6.89828e-05)
(-1.18757e-06 -5.64988e-06 -6.99816e-05)
(-5.37804e-06 -7.33485e-06 -6.43333e-05)
(-7.61706e-06 -7.61706e-06 -6.899e-05)
(-5.70391e-06 -7.73715e-06 -7.09092e-05)
(-4.67712e-06 -7.92958e-06 -7.39081e-05)
(-1.23681e-06 -7.99835e-06 -7.4967e-05)
(-5.4655e-06 -5.48324e-06 -6.61477e-05)
(-7.73715e-06 -5.70391e-06 -7.09092e-05)
(-5.79576e-06 -5.79576e-06 -7.28684e-05)
(-4.75485e-06 -5.94622e-06 -7.59399e-05)
(-1.25608e-06 -5.99854e-06 -7.70225e-05)
(-5.59986e-06 -4.49365e-06 -6.89828e-05)
(-7.92958e-06 -4.67712e-06 -7.39081e-05)
(-5.94622e-06 -4.75485e-06 -7.59399e-05)
(-4.8799e-06 -4.8799e-06 -7.91293e-05)
(-1.28861e-06 -4.92345e-06 -8.02542e-05)
(-5.64988e-06 -1.18757e-06 -6.99816e-05)
(-7.99835e-06 -1.23681e-06 -7.4967e-05)
(-5.99854e-06 -1.25608e-06 -7.70225e-05)
(-4.92345e-06 -1.28861e-06 -8.02542e-05)
(-1.3003e-06 -1.3003e-06 -8.13956e-05)
(-7.85779e-06 -7.85779e-06 -5.41861e-05)
(-1.10846e-05 -8.20147e-06 -6.08433e-05)
(-8.27756e-06 -8.35625e-06 -6.35626e-05)
(-6.80094e-06 -8.59506e-06 -6.78439e-05)
(-1.78658e-06 -8.68349e-06 -6.9353e-05)
(-8.20147e-06 -1.10846e-05 -6.08433e-05)
(-1.15806e-05 -1.15806e-05 -6.79155e-05)
(-8.66907e-06 -1.17931e-05 -7.08249e-05)
(-7.12651e-06 -1.2136e-05 -7.53997e-05)
(-1.87412e-06 -1.22583e-05 -7.70168e-05)
(-8.35625e-06 -8.27756e-06 -6.35626e-05)
(-1.17931e-05 -8.66907e-06 -7.08249e-05)
(-8.83302e-06 -8.83302e-06 -7.38062e-05)
(-7.26618e-06 -9.10627e-06 -7.85109e-05)
(-1.90866e-06 -9.20143e-06 -8.01674e-05)
(-8.59506e-06 -6.80094e-06 -6.78439e-05)
(-1.2136e-05 -7.12651e-06 -7.53997e-05)
(-9.10627e-06 -7.26618e-06 -7.85109e-05)
(-7.49492e-06 -7.49492e-06 -8.34097e-05)
(-1.96869e-06 -7.57694e-06 -8.51213e-05)
(-8.68349e-06 -1.78659e-06 -6.9353e-05)
(-1.22583e-05 -1.87412e-06 -7.70168e-05)
(-9.20143e-06 -1.90866e-06 -8.01674e-05)
(-7.57694e-06 -1.96869e-06 -8.51213e-05)
(-1.98985e-06 -1.98985e-06 -8.68548e-05)
(-1.18724e-05 -1.18724e-05 -4.91682e-05)
(-1.67114e-05 -1.24857e-05 -5.92102e-05)
(-1.24838e-05 -1.27643e-05 -6.32931e-05)
(-1.0284e-05 -1.31937e-05 -6.97417e-05)
(-2.69444e-06 -1.33524e-05 -7.20197e-05)
(-1.24857e-05 -1.67114e-05 -5.92102e-05)
(-1.75987e-05 -1.75987e-05 -6.99259e-05)
(-1.31881e-05 -1.79808e-05 -7.43401e-05)
(-1.08691e-05 -1.85967e-05 -8.13099e-05)
(-2.85191e-06 -1.88129e-05 -8.37886e-05)
(-1.27643e-05 -1.24838e-05 -6.32931e-05)
(-1.79808e-05 -1.31881e-05 -7.43401e-05)
(-1.34818e-05 -1.34818e-05 -7.88862e-05)
(-1.11161e-05 -1.39563e-05 -8.61041e-05)
(-2.91049e-06 -1.4103e-05 -8.86706e-05)
(-1.31937e-05 -1.0284e-05 -6.97417e-05)
(-1.85967e-05 -1.08691e-05 -8.13099e-05)
(-1.39562e-05 -1.11161e-05 -8.61041e-05)
(-1.14903e-05 -1.14903e-05 -9.37808e-05)
(-2.99825e-06 -1.16109e-05 -9.65553e-05)
(-1.33524e-05 -2.69444e-06 -7.20197e-05)
(-1.88129e-05 -2.8519e-06 -8.37886e-05)
(-1.4103e-05 -2.91048e-06 -8.86706e-05)
(-1.16109e-05 -2.99825e-06 -9.65553e-05)
(-3.02962e-06 -3.02962e-06 -9.94113e-05)
(-1.79508e-05 -1.79508e-05 -4.05934e-05)
(-2.52096e-05 -1.89717e-05 -5.53108e-05)
(-1.88091e-05 -1.94599e-05 -6.13771e-05)
(-1.55275e-05 -2.02225e-05 -7.10049e-05)
(-4.0619e-06 -2.05129e-05 -7.44627e-05)
(-1.89717e-05 -2.52096e-05 -5.53108e-05)
(-2.67106e-05 -2.67106e-05 -7.1423e-05)
(-2.0053e-05 -2.73863e-05 -7.81487e-05)
(-1.65749e-05 -2.84985e-05 -8.87019e-05)
(-4.3503e-06 -2.89094e-05 -9.25129e-05)
(-1.94599e-05 -1.88091e-05 -6.13771e-05)
(-2.73863e-05 -2.0053e-05 -7.81487e-05)
(-2.0597e-05 -2.0597e-05 -8.51961e-05)
(-1.70506e-05 -2.15772e-05 -9.63064e-05)
(-4.47265e-06 -2.19682e-05 -0.000100382)
(-2.02225e-05 -1.55275e-05 -7.10049e-05)
(-2.84986e-05 -1.65749e-05 -8.87019e-05)
(-2.15772e-05 -1.70506e-05 -9.63064e-05)
(-1.79461e-05 -1.79461e-05 -0.000108119)
(-4.74131e-06 -1.83177e-05 -0.000112393)
(-2.05129e-05 -4.0619e-06 -7.44627e-05)
(-2.89094e-05 -4.3503e-06 -9.25129e-05)
(-2.19682e-05 -4.47265e-06 -0.000100382)
(-1.83177e-05 -4.74131e-06 -0.000112393)
(-4.84357e-06 -4.84357e-06 -0.000116877)
(-2.66672e-05 -2.66672e-05 -2.71648e-05)
(-3.74953e-05 -2.86818e-05 -4.93621e-05)
(-2.81779e-05 -2.96235e-05 -5.85206e-05)
(-2.33695e-05 -3.09832e-05 -7.29375e-05)
(-6.14916e-06 -3.14973e-05 -7.82259e-05)
(-2.86818e-05 -3.74953e-05 -4.93621e-05)
(-4.04368e-05 -4.04368e-05 -7.36191e-05)
(-3.04671e-05 -4.17999e-05 -8.39045e-05)
(-2.52333e-05 -4.38984e-05 -9.99809e-05)
(-6.65937e-06 -4.47324e-05 -0.000106004)
(-2.96235e-05 -2.81779e-05 -5.85206e-05)
(-4.17999e-05 -3.04671e-05 -8.39045e-05)
(-3.16395e-05 -3.16395e-05 -9.47495e-05)
(-2.6302e-05 -3.33736e-05 -0.000111671)
(-6.98258e-06 -3.39827e-05 -0.000117992)
(-3.09832e-05 -2.33695e-05 -7.29375e-05)
(-4.38984e-05 -2.52333e-05 -9.99809e-05)
(-3.33736e-05 -2.6302e-05 -0.000111671)
(-2.75765e-05 -2.75765e-05 -0.00012981)
(-7.26858e-06 -2.81059e-05 -0.000136601)
(-3.14973e-05 -6.14916e-06 -7.82259e-05)
(-4.47324e-05 -6.65937e-06 -0.000106004)
(-3.39827e-05 -6.98258e-06 -0.000117992)
(-2.81059e-05 -7.26857e-06 -0.000136601)
(-7.51258e-06 -7.51258e-06 -0.000143576)
(-4.02667e-05 -4.02667e-05 -7.7432e-06)
(-5.65656e-05 -4.33576e-05 -4.08446e-05)
(-4.23844e-05 -4.49791e-05 -5.47415e-05)
(-3.52328e-05 -4.74096e-05 -7.6104e-05)
(-9.34609e-06 -4.84388e-05 -8.44009e-05)
(-4.33576e-05 -5.65656e-05 -4.08446e-05)
(-6.12532e-05 -6.12532e-05 -7.69895e-05)
(-4.64147e-05 -6.36155e-05 -9.29429e-05)
(-3.86747e-05 -6.72323e-05 -0.000117048)
(-1.03684e-05 -6.86758e-05 -0.000126476)
(-4.49791e-05 -4.23844e-05 -5.47415e-05)
(-6.36155e-05 -4.64147e-05 -9.29429e-05)
(-4.83635e-05 -4.83635e-05 -0.000110123)
(-4.02931e-05 -5.14067e-05 -0.000135569)
(-1.07881e-05 -5.25652e-05 -0.000145632)
(-4.74096e-05 -3.52328e-05 -7.6104e-05)
(-6.72323e-05 -3.86747e-05 -0.000117048)
(-5.14067e-05 -4.02931e-05 -0.000135569)
(-4.28763e-05 -4.28763e-05 -0.000162629)
(-1.15268e-05 -4.39017e-05 -0.000173904)
(-4.84388e-05 -9.34609e-06 -8.44009e-05)
(-6.86758e-05 -1.03684e-05 -0.000126476)
(-5.25652e-05 -1.07881e-05 -0.000145632)
(-4.39017e-05 -1.15268e-05 -0.000173904)
(-1.18147e-05 -1.18147e-05 -0.000186113)
(-5.9946e-05 -5.9946e-05 1.88923e-05)
(-8.4494e-05 -6.50234e-05 -2.62385e-05)
(-6.34374e-05 -6.80332e-05 -4.74166e-05)
(-5.30289e-05 -7.21507e-05 -7.83129e-05)
(-1.44404e-05 -7.38024e-05 -9.08974e-05)
(-6.50235e-05 -8.4494e-05 -2.62385e-05)
(-9.25354e-05 -9.25354e-05 -7.94903e-05)
(-7.05259e-05 -9.71815e-05 -0.000104167)
(-5.87662e-05 -0.000103364 -0.000139521)
(-1.6079e-05 -0.000105964 -0.000153926)
(-6.80332e-05 -6.34374e-05 -4.74166e-05)
(-9.71815e-05 -7.05259e-05 -0.000104167)
(-7.42656e-05 -7.42656e-05 -0.000130653)
(-6.18114e-05 -7.89543e-05 -0.000169007)
(-1.70377e-05 -8.14107e-05 -0.000186)
(-7.21507e-05 -5.30289e-05 -7.83129e-05)
(-0.000103364 -5.87662e-05 -0.000139521)
(-7.89543e-05 -6.18114e-05 -0.000169007)
(-6.59112e-05 -6.59112e-05 -0.000212027)
(-1.85337e-05 -6.85869e-05 -0.000231455)
(-7.38024e-05 -1.44404e-05 -9.08974e-05)
(-0.000105964 -1.6079e-05 -0.000153926)
(-8.14107e-05 -1.70377e-05 -0.000186)
(-6.85869e-05 -1.85337e-05 -0.000231455)
(-1.97121e-05 -1.97121e-05 -0.000252592)
(-8.5661e-05 -8.5661e-05 5.67792e-05)
(-0.000122875 -9.69081e-05 -5.73532e-06)
(-9.44588e-05 -0.000102048 -3.81618e-05)
(-7.87136e-05 -0.000108963 -8.33297e-05)
(-2.19204e-05 -0.000111826 -0.000103099)
(-9.69081e-05 -0.000122875 -5.73532e-06)
(-0.000139182 -0.000139182 -8.47052e-05)
(-0.000106445 -0.000146852 -0.000123541)
(-8.84344e-05 -0.000157927 -0.000176808)
(-2.47605e-05 -0.000163779 -0.000201416)
(-0.000102048 -9.44588e-05 -3.81618e-05)
(-0.000146852 -0.000106445 -0.000123541)
(-0.000113204 -0.000113204 -0.000166579)
(-9.56404e-05 -0.000123913 -0.000227327)
(-2.77659e-05 -0.000130094 -0.000256535)
(-0.000108963 -7.87136e-05 -8.33297e-05)
(-0.000157927 -8.84344e-05 -0.000176808)
(-0.000123913 -9.56404e-05 -0.000227327)
(-0.000105325 -0.000105325 -0.000295425)
(-3.09366e-05 -0.000110493 -0.000328995)
(-0.000111826 -2.19204e-05 -0.000103099)
(-0.000163779 -2.47605e-05 -0.000201416)
(-0.000130094 -2.77659e-05 -0.000256535)
(-0.000110493 -3.09366e-05 -0.000328995)
(-3.29313e-05 -3.29313e-05 -0.000366281)
(-0.000122844 -0.000122844 0.000119285)
(-0.000179436 -0.000144446 2.91454e-05)
(-0.000141032 -0.000153903 -1.62742e-05)
(-0.000117966 -0.000166167 -8.21733e-05)
(-3.41964e-05 -0.000172684 -0.00011214)
(-0.000144446 -0.000179436 2.91454e-05)
(-0.000210342 -0.000210342 -8.28468e-05)
(-0.000162629 -0.000225599 -0.000142696)
(-0.000136642 -0.000247362 -0.000222884)
(-4.06682e-05 -0.000259401 -0.000263383)
(-0.000153903 -0.000141032 -1.62742e-05)
(-0.000225599 -0.000162629 -0.000142696)
(-0.000178052 -0.000178052 -0.000214006)
(-0.000151768 -0.000197571 -0.000306774)
(-4.62248e-05 -0.00020899 -0.000356296)
(-0.000166167 -0.000117966 -8.21733e-05)
(-0.000247362 -0.000136642 -0.000222884)
(-0.000197571 -0.000151768 -0.000306774)
(-0.000167579 -0.000167579 -0.000410232)
(-5.20821e-05 -0.000178333 -0.000469117)
(-0.000172684 -3.41964e-05 -0.00011214)
(-0.000259401 -4.06682e-05 -0.000263383)
(-0.00020899 -4.62248e-05 -0.000356296)
(-0.000178333 -5.20821e-05 -0.000469117)
(-5.69755e-05 -5.69755e-05 -0.000537724)
(-0.000176337 -0.000176337 0.000209352)
(-0.000258435 -0.000209569 7.85865e-05)
(-0.000205777 -0.000229215 8.75537e-06)
(-0.000174579 -0.0002505 -8.57103e-05)
(-5.18593e-05 -0.000263952 -0.00013455)
(-0.000209569 -0.000258435 7.85865e-05)
(-0.000311025 -0.000311025 -8.44802e-05)
(-0.000246482 -0.000344586 -0.000180295)
(-0.000209122 -0.000382529 -0.000300635)
(-6.52213e-05 -0.000407938 -0.000367352)
(-0.000229215 -0.000205777 8.75537e-06)
(-0.000344586 -0.000246482 -0.000180295)
(-0.000277281 -0.000277281 -0.000298357)
(-0.000237931 -0.000311261 -0.000439658)
(-7.72451e-05 -0.000335827 -0.000526986)
(-0.0002505 -0.000174579 -8.57103e-05)
(-0.000382529 -0.000209122 -0.000300635)
(-0.000311261 -0.000237931 -0.000439658)
(-0.000267668 -0.000267668 -0.000602655)
(-8.97678e-05 -0.000291921 -0.000708509)
(-0.000263952 -5.18593e-05 -0.00013455)
(-0.000407938 -6.52213e-05 -0.000367352)
(-0.000335827 -7.72451e-05 -0.000526986)
(-0.000291921 -8.97678e-05 -0.000708509)
(-0.000101488 -0.000101488 -0.000837332)
(-0.000254363 -0.000254363 0.000350664)
(-0.000380035 -0.000308494 0.000171919)
(-0.000305328 -0.000344095 6.86155e-05)
(-0.000261272 -0.000382385 -6.33844e-05)
(-8.30015e-05 -0.000406888 -0.000139007)
(-0.000308494 -0.000380035 0.000171919)
(-0.000469225 -0.000469225 -5.18654e-05)
(-0.000378783 -0.000532714 -0.000203124)
(-0.000323698 -0.000601313 -0.000377128)
(-0.000107344 -0.000651841 -0.000489803)
(-0.000344095 -0.000305328 6.86155e-05)
(-0.000532714 -0.000378783 -0.000203124)
(-0.000437415 -0.000437415 -0.00039471)
(-0.000380397 -0.000499591 -0.000610839)
(-0.000133507 -0.000550147 -0.000768464)
(-0.000382385 -0.000261272 -6.33844e-05)
(-0.000601313 -0.000323698 -0.000377128)
(-0.000499591 -0.000380397 -0.000610839)
(-0.00043643 -0.00043643 -0.000865526)
(-0.0001579 -0.000488679 -0.00106571)
(-0.000406888 -8.30015e-05 -0.000139007)
(-0.000651841 -0.000107344 -0.000489803)
(-0.000550147 -0.000133507 -0.000768464)
(-0.000488679 -0.0001579 -0.00106571)
(-0.000185755 -0.000185755 -0.0013244)
(-0.000356123 -0.000356123 0.000543585)
(-0.000540486 -0.000434706 0.0003043)
(-0.000441081 -0.000502644 0.000143762)
(-0.000382202 -0.000566195 -3.93759e-05)
(-0.000127412 -0.000616934 -0.00016639)
(-0.000434706 -0.000540486 0.0003043)
(-0.000686072 -0.000686072 -1.3703e-05)
(-0.000571744 -0.000807915 -0.000251019)
(-0.0004958 -0.000929989 -0.000511144)
(-0.000177785 -0.0010374 -0.00069962)
(-0.000502644 -0.000441081 0.000143762)
(-0.000807915 -0.000571744 -0.000251019)
(-0.000684996 -0.000684996 -0.000568233)
(-0.000611685 -0.000799659 -0.000903586)
(-0.000234753 -0.000911733 -0.00118731)
(-0.000566195 -0.000382202 -3.93759e-05)
(-0.000929989 -0.0004958 -0.000511144)
(-0.000799659 -0.000611685 -0.000903586)
(-0.000722537 -0.000722537 -0.00131369)
(-0.000289777 -0.000847859 -0.0016803)
(-0.000616934 -0.000127412 -0.00016639)
(-0.0010374 -0.000177785 -0.00069962)
(-0.000911733 -0.000234753 -0.00118731)
(-0.000847859 -0.000289777 -0.0016803)
(-0.000360035 -0.000360035 -0.00218715)
(-0.000495094 -0.000495094 0.000863837)
(-0.000779861 -0.000628419 0.000548609)
(-0.000649004 -0.000741359 0.000323256)
(-0.000571425 -0.000857179 7.1698e-05)
(-0.000209917 -0.000943559 -0.000122093)
(-0.000628419 -0.000779861 0.000548608)
(-0.00102455 -0.00102455 0.000130413)
(-0.000876224 -0.00124472 -0.000223498)
(-0.0007723 -0.00146553 -0.000585743)
(-0.000295767 -0.00167277 -0.000912626)
(-0.000741359 -0.000649004 0.000323256)
(-0.00124472 -0.000876224 -0.000223498)
(-0.00108998 -0.00108998 -0.000736588)
(-0.000999473 -0.00130214 -0.00124851)
(-0.000417145 -0.00153083 -0.00178776)
(-0.000857179 -0.000571425 7.1698e-05)
(-0.00146553 -0.0007723 -0.000585743)
(-0.00130214 -0.000999473 -0.00124851)
(-0.00121315 -0.00121315 -0.00189116)
(-0.000524558 -0.00148852 -0.00263964)
(-0.000943559 -0.000209917 -0.000122093)
(-0.00167277 -0.000295767 -0.000912626)
(-0.00153083 -0.000417145 -0.00178776)
(-0.00148852 -0.000524558 -0.00263964)
(-0.000692558 -0.000692558 -0.00376697)
(-0.000673269 -0.000673269 0.00129088)
(-0.00108107 -0.000855492 0.000896444)
(-0.00091799 -0.00105285 0.000561084)
(-0.000827551 -0.00122798 0.000222843)
(-0.000321046 -0.00141273 -6.97855e-05)
(-0.000855492 -0.00108107 0.000896444)
(-0.00145818 -0.00145818 0.0003232)
(-0.0012879 -0.00186777 -0.000182448)
(-0.00118493 -0.00225021 -0.000740425)
(-0.000504374 -0.00270308 -0.00125644)
(-0.00105285 -0.00091799 0.000561084)
(-0.00186777 -0.0012879 -0.000182448)
(-0.00171001 -0.00171001 -0.00100664)
(-0.00166286 -0.00210508 -0.00181654)
(-0.000773727 -0.00263875 -0.00276863)
(-0.00122798 -0.000827551 0.000222843)
(-0.00225021 -0.00118493 -0.000740425)
(-0.00210508 -0.00166286 -0.00181654)
(-0.00211366 -0.00211366 -0.00290867)
(-0.00103773 -0.00282707 -0.00429144)
(-0.00141273 -0.000321046 -6.97855e-05)
(-0.00270308 -0.000504374 -0.00125644)
(-0.00263875 -0.000773727 -0.00276863)
(-0.00282707 -0.00103773 -0.00429144)
(-0.00148705 -0.00148705 -0.00665155)
(-0.000892104 -0.000892104 0.00194623)
(-0.00150966 -0.00120532 0.00151789)
(-0.0013226 -0.00148972 0.00109153)
(-0.00120229 -0.00182681 0.000657525)
(-0.000502302 -0.00213826 0.000209846)
(-0.00120532 -0.00150966 0.00151789)
(-0.00210345 -0.00210345 0.000861991)
(-0.00193985 -0.00281246 0.000149221)
(-0.00184629 -0.00350493 -0.000527424)
(-0.000811846 -0.00437162 -0.00142904)
(-0.00148972 -0.0013226 0.00109153)
(-0.00281246 -0.00193985 0.000149221)
(-0.00272408 -0.00272408 -0.00108613)
(-0.00276145 -0.00347039 -0.00226446)
(-0.00136908 -0.00456586 -0.00409234)
(-0.00182681 -0.00120229 0.000657525)
(-0.00350493 -0.00184629 -0.000527424)
(-0.00347039 -0.00276145 -0.00226446)
(-0.00368803 -0.00368803 -0.00389213)
(-0.00190797 -0.00537139 -0.00684011)
(-0.00213826 -0.000502302 0.000209846)
(-0.00437162 -0.000811846 -0.00142904)
(-0.00456586 -0.00136908 -0.00409234)
(-0.00537139 -0.00190797 -0.00684011)
(-0.00305276 -0.00305276 -0.0120171)
(-0.00110455 -0.00110455 0.00278455)
(-0.00193578 -0.00151584 0.00232997)
(-0.00177835 -0.00200156 0.00184671)
(-0.00170923 -0.00242113 0.00130722)
(-0.00076853 -0.00306306 0.000683336)
(-0.00151584 -0.00193578 0.00232997)
(-0.00282686 -0.00282686 0.00157069)
(-0.00267731 -0.00404543 0.000621622)
(-0.00276318 -0.0051722 -0.00036167)
(-0.00140543 -0.00700527 -0.00167994)
(-0.00200156 -0.00177835 0.00184671)
(-0.00404543 -0.00267731 0.000621622)
(-0.0041237 -0.0041237 -0.00106562)
(-0.00466904 -0.0054698 -0.00302484)
(-0.00260124 -0.00804988 -0.00614939)
(-0.00242113 -0.00170923 0.00130722)
(-0.0051722 -0.00276318 -0.00036167)
(-0.0054698 -0.00466904 -0.00302484)
(-0.00668919 -0.00668919 -0.00617821)
(-0.00398482 -0.0107515 -0.0118141)
(-0.00306306 -0.00076853 0.000683336)
(-0.00700527 -0.00140543 -0.00167994)
(-0.00804988 -0.00260124 -0.00614939)
(-0.0107515 -0.00398482 -0.0118141)
(-0.00666521 -0.00666521 -0.0260992)
(-0.00134981 -0.00134981 0.00396911)
(-0.00244751 -0.00196979 0.00368779)
(-0.00234536 -0.00272323 0.00326376)
(-0.00236567 -0.00350722 0.00285827)
(-0.00112562 -0.00451814 0.00213247)
(-0.00196979 -0.00244751 0.00368779)
(-0.00381182 -0.00381182 0.0031229)
(-0.00387223 -0.00572482 0.0022371)
(-0.00414783 -0.00783702 0.00129941)
(-0.00213052 -0.0112043 -0.000475701)
(-0.00272323 -0.00234536 0.00326376)
(-0.00572482 -0.00387223 0.0022371)
(-0.00637059 -0.00637059 0.000299318)
(-0.00784508 -0.00928695 -0.00189502)
(-0.00449317 -0.0146989 -0.0069584)
(-0.00350722 -0.00236567 0.00285827)
(-0.00783702 -0.00414783 0.00129941)
(-0.00928695 -0.00784508 -0.00189502)
(-0.0124788 -0.0124788 -0.0059052)
(-0.0075484 -0.0253395 -0.0183104)
(-0.00451814 -0.00112562 0.00213247)
(-0.0112043 -0.00213052 -0.000475701)
(-0.0146989 -0.00449317 -0.0069584)
(-0.0253395 -0.0075484 -0.0183104)
(-0.0173785 -0.0173785 -0.040517)
(-0.00138803 -0.00138803 0.0053565)
(-0.00264114 -0.00208492 0.00531746)
(-0.00260786 -0.00303593 0.00513574)