/*--------------------------------*- C++ -*----------------------------------*\
| =========                 |                                                 |
| \\      /  F ield         | OpenFOAM: The Open Source CFD Toolbox           |
|  \\    /   O peration     | Version:  5.x                                   |
|   \\  /    A nd           | Web:      www.OpenFOAM.org                      |
|    \\/     M anipulation  |                                                 |
\*---------------------------------------------------------------------------*/
FoamFile
{
    version     2.0;
    format      ascii;
    class       volScalarField;
    location    "0.036";
    object      phiIB;
}
// * * * * * * * * * * * * * * * * * * * * * * * * * * * * * * * * * * * * * //

dimensions      [0 2 -1 0 0 0 0];

internalField   nonuniform List<scalar> 
1553
(
-8.25992e-06
-8.25836e-06
-8.2661e-06
-8.26234e-06
-8.27466e-06
-8.24657e-06
-8.24496e-06
-8.25283e-06
-8.24907e-06
-8.26143e-06
-8.25067e-06
-8.24898e-06
-8.25683e-06
-8.25305e-06
-8.26543e-06
-8.24253e-06
-8.24078e-06
-8.24861e-06
-8.24479e-06
-8.25728e-06
-8.24455e-06
-8.24271e-06
-8.25048e-06
-8.24658e-06
-8.25906e-06
-2.27416e-05
-2.27435e-05
-2.27485e-05
-2.2751e-05
-2.27567e-05
-2.27344e-05
-2.27361e-05
-2.27409e-05
-2.27437e-05
-2.27501e-05
-2.27316e-05
-2.27332e-05
-2.27378e-05
-2.27408e-05
-2.27475e-05
-2.27267e-05
-2.27282e-05
-2.27327e-05
-2.27354e-05
-2.27419e-05
-2.27251e-05
-2.27265e-05
-2.27308e-05
-2.27335e-05
-2.27398e-05
-3.67346e-05
-3.67368e-05
-3.67501e-05
-3.67525e-05
-3.67689e-05
-3.67159e-05
-3.67183e-05
-3.67318e-05
-3.67346e-05
-3.67514e-05
-3.6711e-05
-3.67138e-05
-3.67282e-05
-3.67317e-05
-3.6749e-05
-3.66944e-05
-3.66979e-05
-3.67133e-05
-3.67176e-05
-3.67352e-05
-3.66903e-05
-3.66942e-05
-3.67102e-05
-3.67151e-05
-3.67328e-05
-5.66754e-05
-5.66805e-05
-5.66971e-05
-5.67042e-05
-5.67226e-05
-5.66528e-05
-5.66588e-05
-5.66766e-05
-5.66843e-05
-5.67029e-05
-5.66386e-05
-5.66463e-05
-5.66669e-05
-5.66764e-05
-5.66956e-05
-5.66106e-05
-5.66208e-05
-5.66455e-05
-5.66578e-05
-5.66781e-05
-5.65984e-05
-5.66101e-05
-5.66373e-05
-5.66515e-05
-5.66727e-05
-6.95187e-05
-6.95278e-05
-6.95571e-05
-6.95683e-05
-6.95977e-05
-6.94814e-05
-6.9492e-05
-6.95234e-05
-6.95362e-05
-6.9567e-05
-6.94574e-05
-6.94712e-05
-6.95072e-05
-6.95234e-05
-6.95559e-05
-6.94108e-05
-6.94287e-05
-6.94707e-05
-6.94915e-05
-6.95262e-05
-6.93898e-05
-6.94105e-05
-6.94566e-05
-6.94809e-05
-6.9517e-05
-8.90217e-05
-8.90357e-05
-8.90754e-05
-8.9091e-05
-8.91283e-05
-8.89741e-05
-8.89899e-05
-8.90317e-05
-8.90498e-05
-8.90894e-05
-8.89358e-05
-8.89575e-05
-8.90079e-05
-8.9032e-05
-8.90741e-05
-8.88638e-05
-8.88937e-05
-8.8957e-05
-8.89897e-05
-8.90341e-05
-8.88283e-05
-8.88637e-05
-8.89353e-05
-8.89741e-05
-8.90203e-05
-0.000102839
-0.000102856
-0.000102908
-0.000102927
-0.000102979
-0.000102772
-0.000102793
-0.000102849
-0.00010287
-0.000102925
-0.000102724
-0.000102752
-0.000102821
-0.00010285
-0.000102908
-0.000102628
-0.000102667
-0.000102752
-0.000102794
-0.000102856
-0.000102582
-0.000102628
-0.000102724
-0.000102774
-0.00010284
-0.000121025
-0.00012104
-0.000121098
-0.000121107
-0.000121167
-0.000120945
-0.000120965
-0.000121033
-0.000121045
-0.000121106
-0.0001209
-0.000120928
-0.000121011
-0.000121034
-0.000121099
-0.00012079
-0.000120828
-0.000120929
-0.000120968
-0.000121042
-0.000120749
-0.000120792
-0.000120902
-0.000120949
-0.000121029
-0.000135609
-0.000135603
-0.000135647
-0.000135626
-0.000135697
-0.000135532
-0.000135526
-0.000135577
-0.000135555
-0.000135625
-0.000135599
-0.000135578
-0.000135614
-0.000135581
-0.000135649
-0.000135616
-0.000135574
-0.000135581
-0.000135532
-0.000135608
-0.000135676
-0.000135621
-0.000135606
-0.000135542
-0.000135618
-0.000152651
-0.000152588
-0.000152575
-0.000152494
-0.000152571
-0.00015262
-0.000152527
-0.000152498
-0.000152405
-0.000152493
-0.000152971
-0.00015281
-0.00015267
-0.000152503
-0.000152579
-0.000153342
-0.000153109
-0.000152818
-0.000152539
-0.000152597
-0.000153624
-0.000153352
-0.000152988
-0.000152641
-0.000152667
-0.000167053
-0.000166884
-0.000166729
-0.000166503
-0.000166556
-0.000167226
-0.000166969
-0.0001667
-0.000166426
-0.000166501
-0.00016795
-0.000167592
-0.000167126
-0.000166707
-0.000166733
-0.00016866
-0.000168242
-0.000167602
-0.000166985
-0.000166895
-0.000169115
-0.000168671
-0.000167973
-0.000167255
-0.000167073
-0.000182636
-0.000182377
-0.000182107
-0.000181726
-0.000181749
-0.000182938
-0.000182611
-0.000182155
-0.000181676
-0.000181723
-0.000183643
-0.000183284
-0.00018275
-0.000182159
-0.000182108
-0.000184043
-0.00018372
-0.000183286
-0.000182619
-0.000182385
-0.000184347
-0.000184046
-0.000183649
-0.000182951
-0.000182652
-0.000194814
-0.000194485
-0.000194143
-0.000193657
-0.000193663
-0.000194894
-0.000194647
-0.000194348
-0.000193759
-0.000193649
-0.000195229
-0.000195074
-0.000194926
-0.000194347
-0.000194136
-0.000195078
-0.00019501
-0.000195065
-0.00019464
-0.000194482
-0.000195089
-0.000195068
-0.00019521
-0.000194881
-0.000194814
-0.000207114
-0.000206819
-0.000206536
-0.000206146
-0.000206363
-0.000206633
-0.000206485
-0.000206456
-0.000206046
-0.000206135
-0.000206548
-0.000206545
-0.000206754
-0.000206448
-0.000206518
-0.000206039
-0.000206139
-0.000206529
-0.000206462
-0.000206789
-0.000205867
-0.000206021
-0.000206514
-0.000206596
-0.000207074
-0.000214945
-0.000214765
-0.000214669
-0.000214498
-0.000215042
-0.000213803
-0.00021382
-0.000214191
-0.000214128
-0.000214483
-0.000213211
-0.00021339
-0.000214043
-0.000214176
-0.000214639
-0.000212374
-0.000212622
-0.000213367
-0.000213781
-0.000214708
-0.000212068
-0.00021235
-0.000213163
-0.00021374
-0.000214863
-0.000224145
-0.000224131
-0.000224443
-0.000224436
-0.000225269
-0.000222656
-0.000222814
-0.000223504
-0.000223647
-0.000224419
-0.000221825
-0.000222122
-0.000223085
-0.000223487
-0.000224409
-0.000220655
-0.000221011
-0.000222093
-0.000222767
-0.000224065
-0.000220246
-0.000220626
-0.000221767
-0.000222579
-0.000224046
-0.000228279
-0.00022858
-0.000229604
-0.000229843
-0.000230987
-0.000226333
-0.000226668
-0.000227799
-0.000228367
-0.000229824
-0.000225286
-0.000225674
-0.000226924
-0.000227781
-0.000229568
-0.000223915
-0.000224325
-0.00022564
-0.000226615
-0.000228503
-0.000223471
-0.000223885
-0.000225223
-0.000226247
-0.000228165
-0.000236729
-0.000237079
-0.000238298
-0.000238764
-0.000240676
-0.00023422
-0.000234667
-0.000236197
-0.000236911
-0.000238741
-0.000233024
-0.000233527
-0.000235207
-0.000236177
-0.000238256
-0.000231254
-0.000231775
-0.00023349
-0.000234609
-0.000236995
-0.000230698
-0.000231225
-0.000232957
-0.000234129
-0.000236607
-0.000238636
-0.000239191
-0.000241178
-0.000242159
-0.000244527
-0.000235484
-0.000236017
-0.000237925
-0.000239142
-0.000242124
-0.000234164
-0.000234692
-0.000236589
-0.000237905
-0.00024112
-0.000232102
-0.000232672
-0.000234649
-0.000235953
-0.000239091
-0.000231481
-0.000232079
-0.000234096
-0.000235393
-0.000238506
-0.000247224
-0.00024786
-0.000250263
-0.000251474
-0.000255361
-0.00024267
-0.000243472
-0.000246145
-0.000247698
-0.00025143
-0.000240688
-0.000241589
-0.000244391
-0.000246122
-0.000250203
-0.000237704
-0.000238712
-0.00024154
-0.0002434
-0.000247751
-0.000236562
-0.000237679
-0.000240613
-0.000242571
-0.000247082
-0.000247581
-0.000248339
-0.000251406
-0.000253182
-0.000257153
-0.000241898
-0.000242806
-0.000245841
-0.000247825
-0.000253141
-0.00023956
-0.0002406
-0.000243761
-0.000245827
-0.000251344
-0.000235981
-0.000237156
-0.000240537
-0.000242727
-0.000248211
-0.000234721
-0.000235966
-0.000239482
-0.000241803
-0.000247436
-0.000255009
-0.000256135
-0.000260117
-0.00026249
-0.000269487
-0.000245807
-0.000247644
-0.000252161
-0.00025519
-0.00026244
-0.000240789
-0.000243315
-0.000248549
-0.000252142
-0.000260054
-0.000234361
-0.000237621
-0.000243246
-0.000247551
-0.000255989
-0.000230097
-0.000234338
-0.000240701
-0.000245695
-0.000254845
-0.000255544
-0.000256504
-0.000260388
-0.000261896
-0.000268504
-0.000244941
-0.000246571
-0.000251084
-0.00025391
-0.000261815
-0.000240349
-0.000242396
-0.000247408
-0.000251071
-0.000260288
-0.000234386
-0.00023681
-0.0002423
-0.000246463
-0.000256325
-0.000232688
-0.000234382
-0.000240252
-0.000244838
-0.000255374
-0.000256516
-0.000259296
-0.000265807
-0.000269708
-0.000281739
-0.000236111
-0.000241692
-0.00024992
-0.000256552
-0.000269615
-0.000220324
-0.000229682
-0.000240558
-0.000249898
-0.00026571
-0.000204223
-0.000217161
-0.000229596
-0.00024157
-0.000259101
-0.000183044
-0.000204194
-0.000220232
-0.000235987
-0.000256337
-0.000263058
-0.000263522
-0.000267347
-0.000269337
-0.000279693
-0.000244153
-0.000247152
-0.000253235
-0.000256968
-0.000269222
-0.000237139
-0.000239952
-0.000247267
-0.00025323
-0.000267234
-0.000223775
-0.000230539
-0.000239821
-0.000246997
-0.000263265
-0.000227416
-0.000223796
-0.000237029
-0.000244018
-0.000262831
-0.000246466
-0.000251823
-0.000261967
-0.000270086
-0.000289063
-0.000202419
-0.00021854
-0.000232869
-0.000246183
-0.000269973
-0.000153956
-0.000187709
-0.000209176
-0.000232851
-0.000261875
-0.000117259
-0.000163764
-0.000187647
-0.000218388
-0.000251608
-4.58058e-06
-0.000117146
-0.000153922
-0.000202276
-0.00024627
-0.000262148
-0.00026431
-0.000270591
-0.000273703
-0.000289087
-0.000224831
-0.000235662
-0.000244181
-0.000253466
-0.000273546
-0.000218802
-0.000222245
-0.000235614
-0.000244171
-0.000270468
-0.000160323
-0.000205067
-0.000222093
-0.000235458
-0.000263987
-0.000190024
-0.000160629
-0.000218825
-0.000224778
-0.000262031
-0.00021986
-0.000233926
-0.000249103
-0.000261661
-0.000287163
-0.000145817
-0.000172058
-0.000197263
-0.000225201
-0.000261548
-2.8983e-05
-0.000120781
-0.000152038
-0.000197231
-0.000249069
3.09371e-05
-8.40873e-05
-0.000120803
-0.000171884
-0.000233754
0.000613397
3.15473e-05
-2.92475e-05
-0.000145806
-0.000219932
-0.000251718
-0.000258094
-0.000269583
-0.000271786
-0.000292699
-0.000147598
-0.000206154
-0.00022706
-0.000244077
-0.00027156
-6.95474e-05
-0.000150343
-0.000197183
-0.000226978
-0.000269409
0.000150161
-0.000160508
-0.00015003
-0.000205717
-0.000257612
0.000158503
0.000149233
-6.94364e-05
-0.000147101
-0.000251458
-0.000220222
-0.000222897
-0.000244064
-0.000249637
-0.00027691
-7.81638e-05
-0.000115797
-0.000176439
-0.000203857
-0.000249383
1.1658e-05
-6.07566e-05
-0.000141517
-0.000176361
-0.00024393
0.000219771
0.000165551
-6.03775e-05
-0.000115255
-0.000222457
0.0011957
0.000489441
1.00435e-05
-7.74867e-05
-0.000220535
-0.000302741
-0.00028591
-0.000288315
-0.000273133
-0.000288676
-0.000263303
-0.000237177
-0.000269692
-0.000254127
-0.000272633
-0.000357168
-0.000316934
-0.000303397
-0.000269411
-0.000287914
-0.000328797
-0.000244168
-0.000316336
-0.000236235
-0.000285103
0.00151023
-0.000166881
-0.000357032
-0.000262341
-0.000302528
-0.000209036
-0.000209634
-0.000232646
-0.0002302
-0.000249931
-0.000180345
-0.00018223
-0.000200315
-0.000215885
-0.000229379
-0.000135781
-0.000165167
-0.000188923
-0.0002001
-0.000232117
-0.00019963
-0.000166741
-0.000165032
-0.000181415
-0.00020879
-0.00118024
-0.000484892
-0.000137961
-0.000178617
-0.000209682
-0.00022025
-0.000232268
-0.000242706
-0.000242396
-0.000253572
-0.000219375
-0.000222913
-0.000241091
-0.000236998
-0.000241296
-8.76444e-05
-0.000209907
-0.000225512
-0.000241021
-0.000241375
-8.13224e-05
-0.000168767
-0.000209612
-0.00022152
-0.000230595
0.000273985
-0.000192446
-8.35177e-05
-0.000217693
-0.000220035
-0.000209902
-0.000193818
-0.000208602
-0.000199517
-0.000206762
-0.000267994
-0.000236361
-0.00021444
-0.000212284
-0.000198061
-0.00025724
-0.000217937
-0.000229171
-0.000214618
-0.000207338
-9.77475e-05
-0.000189318
-0.000217842
-0.000235046
-0.000191823
0.000886702
6.68645e-05
-0.00025861
-0.000267367
-0.000209656
-0.000287663
-0.000266836
-0.000249097
-0.000236072
-0.000232459
-0.000338864
-0.000318232
-0.000287303
-0.000252915
-0.000234863
-0.000573959
-0.000411466
-0.000338385
-0.000287484
-0.000248193
-0.000584576
-0.000482786
-0.000410129
-0.000317061
-0.000265071
-0.00268582
-0.000887498
-0.000577219
-0.000337487
-0.000287064
-0.000165448
-0.000167698
-0.000163932
-0.000159765
-0.000154837
-0.000211872
-0.000173451
-0.000181011
-0.000167851
-0.00015769
-0.000220345
-0.000214664
-0.000189245
-0.000181578
-0.000162453
-0.000418744
-0.00019228
-0.000216703
-0.000172145
-0.000165573
-0.000725118
-0.000396837
-0.000228333
-0.000209684
-0.000164905
-0.000223057
-0.000215501
-0.000206545
-0.000194139
-0.00019233
-0.000266207
-0.000256541
-0.000227763
-0.000209007
-0.000192707
-0.000293524
-0.000299801
-0.000252448
-0.000227714
-0.000205432
-0.000472276
-0.000414791
-0.000300377
-0.000255498
-0.0002136
-0.000400641
-0.000471762
-0.000295114
-0.00026466
-0.000221947
-0.000127507
-0.000123144
-0.00011191
-0.00010414
-9.21711e-05
-0.00015825
-0.000147874
-0.000135634
-0.000122654
-0.000101966
-0.000171529
-0.000166704
-0.00014697
-0.000136522
-0.0001099
-0.00024005
-0.000179095
-0.000165545
-0.000146863
-0.000119527
-0.000276409
-0.000239155
-0.00017177
-0.000158274
-0.00012445
-0.000124502
-0.000122753
-0.000126223
-0.000121699
-0.000124856
-0.000125822
-0.000126287
-0.000128046
-0.000124577
-0.000120658
-0.0001319
-0.000135082
-0.00012999
-0.000128213
-0.000125331
-0.00015924
-0.00015893
-0.000135113
-0.000125814
-0.000121171
-0.000129209
-0.000158051
-0.000132104
-0.000125291
-0.000122889
-4.48466e-05
-4.6147e-05
-4.08743e-05
-4.26293e-05
-3.24372e-05
-7.51681e-05
-6.92422e-05
-5.29862e-05
-5.59293e-05
-4.04896e-05
-8.63029e-05
-8.13559e-05
-6.02859e-05
-5.41655e-05
-3.9141e-05
-0.000116389
-0.000105304
-7.86969e-05
-6.86136e-05
-4.30189e-05
-0.000122416
-0.000118797
-8.5796e-05
-7.65752e-05
-4.31336e-05
-0.000211909
-0.000734457
-0.000168015
-0.0002166
-0.00027262
-0.000984333
-0.000513416
0.000161502
0.00135993
0.00150783
-0.00167381
-0.00053239
-0.00184655
-0.00167307
-0.000211981
-0.000736658
-0.000326661
-0.0005129
-0.000271584
-0.000981649
-0.00021495
-0.000110639
-0.000681954
-0.000486558
-0.000163319
-0.000199524
7.60981e-05
-0.000168778
-0.000335782
-0.00271963
-0.00118556
-0.000210522
-0.00027967
0.000466905
-0.000205599
-0.000109534
-0.000676325
-0.000197356
-0.00016697
-0.000195629
6.83607e-05
-0.000155688
4.29335e-05
0.000519805
0.000248165
0.00118917
0.000259637
0.00426452
0.00118034
-0.00014793
0.000505593
6.53087e-05
-0.000668512
-0.000569966
-0.00102051
-0.00065067
9.8519e-05
0.00436691
0.000887895
-0.00269358
-0.000932223
-0.00107234
-0.002687
-0.000147242
0.000505359
-9.76344e-05
-0.000655247
-0.000568182
-0.00102034
-0.000665632
-0.000480036
-0.00107578
-0.000878448
-0.000440611
-0.000309246
-0.000914091
-0.000748232
-0.000943598
-0.0017865
-0.00267708
-0.000657538
-0.000181271
-0.00142586
-0.000699245
-0.000474358
-0.00107893
-0.000582645
-0.000777235
-0.000291463
-0.000919214
-0.000429345
-0.000620045
-0.00079195
-0.000732844
-0.000425463
-0.000506321
-0.000536288
-0.000527561
-0.000943437
-0.000931458
-0.00164476
-7.20281e-05
-0.00142152
0.000206306
-0.0014378
-0.00206237
-0.00229713
-0.00190844
-0.0018574
-0.00192783
-0.00150865
-0.00222463
-0.00151152
-0.00252502
-0.0014179
-0.00157628
-0.00233644
-0.00146527
-0.00141066
-0.00220901
-0.000768409
-0.000951675
-0.000953198
-0.0012301
-0.00123169
-0.00205474
-0.00134417
-0.00112274
-0.00168023
-0.00167766
-0.00148844
-0.00122207
-0.00122109
-0.00151069
-0.00252397
-0.0014162
-0.00156841
-0.00233522
-0.00146224
-0.0014095
-0.00113305
-0.000890744
-0.000893375
0.000324129
-0.00146829
-0.000444527
-0.000448519
-0.000179768
-0.00190399
-0.0019047
-0.00200018
-0.00128445
-0.000954779
-0.000941262
-0.000939108
-0.000932345
-0.00163505
-7.55962e-05
-0.00141722
0.000206286
-0.00143199
-0.00154498
-0.00024141
-0.00214275
-0.00164936
-0.000253944
-0.00170602
-0.000910804
-0.000684899
3.22772e-05
-0.00126865
-0.00126741
-0.00145141
-0.000290342
-0.000293959
-0.00154441
-0.000240808
-0.00213956
-0.00164596
-0.00025216
-0.00170162
-0.000912118
-0.000720461
-0.00100985
-0.00102049
-0.00132422
-0.000874009
-0.00129703
-0.000849783
-0.00220106
-0.00142791
-0.00142285
-0.000793299
-0.00269325
-0.0014338
-0.00142873
-0.00214607
-0.00187987
-0.00187495
-0.00232131
-0.00195652
-0.00235793
-0.00235143
-0.00207284
-0.0022917
-0.00190322
-0.00186062
-0.00192705
-0.0015096
-0.0022304
-0.00170469
-0.0014366
-0.000476995
-0.00126439
-0.0011887
-0.00110156
-0.0018471
-0.00147942
-0.000589964
-0.000813047
-0.000811959
-0.00111699
-0.00110851
-0.00124513
-0.00160965
-0.00221439
-0.00115033
-0.00114303
-0.000864123
-0.00188691
-0.00188183
-0.00170856
-0.00142416
-0.000494769
-0.0012784
-0.00117259
-0.00112724
-0.00183117
-0.000720347
-0.00102236
-0.00100923
-0.001332
-0.000875205
-0.00129944
-0.000848618
0.000685064
0.00291594
0.00119814
0.00170731
0.000390612
0.0040817
0.00170436
-0.000826613
0.000780008
0.000779606
-0.000201326
0.000379229
-0.000521415
-0.000521032
-0.00142624
0.000910368
-0.000552237
-0.00160631
-0.000698857
-0.00113557
-0.00113662
-0.000528867
-0.000757672
-0.000363183
-0.000800882
-0.000658359
-0.000297409
-0.000604462
-0.00142615
0.000917982
-0.000555184
-0.00160249
-0.000703286
-0.00113297
-0.00113616
-0.000528533
-0.000757507
-0.000798754
-0.000360061
-0.000656043
-0.000296593
-0.000603203
-0.00123375
-0.00026839
-0.00137434
-0.00137162
-0.000974132
-0.000970653
-0.00239047
-0.00207676
-0.000519049
-0.000518527
-0.000436116
8.19417e-05
-0.0011535
-0.00115157
0.00102814
0.00412612
0.00406386
0.00178558
0.00264531
0.00137921
0.00136349
-0.000132826
-0.000334436
-0.000242868
-0.000242078
-0.000191175
-0.000458347
-0.000241573
-0.000497325
-0.000452807
-0.000280182
-0.000817303
-0.000341915
-0.000682308
-0.000450278
-0.000495649
-0.000452895
-0.000280105
-0.000816442
-0.000342212
-0.000681969
-0.000448297
0.000462297
0.000278331
0.00271776
0.00163232
0.00196709
0.000776764
0.00011963
-0.000238259
-0.00106633
-0.000839979
-0.000890882
-0.0010374
-0.000716229
-0.00018316
0.000462886
0.000275791
0.00270348
0.00163046
0.00194137
0.000769462
0.000113778
-0.000238951
-0.00106774
-0.000891564
-0.000836757
-0.00103901
-0.000716639
-0.000181948
0.00323947
0.00323772
0.00294923
0.00251191
0.00823381
0.00472801
0.00472489
2.82052e-05
0.00069177
0.0004904
0.000555725
0.000173387
0.000611677
0.000391605
2.84916e-05
0.000694966
0.000217881
0.000388264
0.000174502
0.000612966
0.000556683
-0.000249663
0.00024032
-0.000455813
-0.000641444
0.00012915
-0.000664313
-0.000365324
-0.000251986
-0.000455316
0.000242153
-0.000639521
0.000132991
-0.000662614
-0.000361604
0.000847964
0.0018775
0.0017368
0.0027748
0.00112786
0.00110513
0.0028817
0.000848663
0.00187561
0.00169316
0.00278131
0.00112057
0.00111413
0.00287041
0.00112268
0.000346354
0.00035197
5.81284e-05
0.00146529
-0.000126575
-0.000126864
0.000385343
0.000394676
0.00126093
0.00217302
0.000589974
0.00103062
0.00102475
-0.000280733
-7.44799e-05
-0.000188405
-0.000394207
-0.000408788
-0.000276419
-0.000393277
-0.00043892
-0.000564678
-0.000506205
-0.000793816
-0.000319933
-0.000650028
-0.000577737
-0.000438332
-0.000567098
-0.000507944
-0.00079725
-0.000320734
-0.000651745
-0.000579943
0.00151151
0.00320004
0.00314093
0.00312513
0.00296928
0.00235689
0.0023299
-0.000366683
-4.39563e-05
-0.000210734
-0.000441756
-0.000152111
-0.000209647
-0.000611426
-0.000367696
-4.32201e-05
-0.000209163
-0.000440907
-0.000154968
-0.000208313
-0.000611338
-6.82204e-05
-0.000242468
-0.000220346
-0.000219541
-0.000277537
0.000598507
0.000224098
-6.30931e-05
-0.00022695
-8.90576e-05
0.000229031
-0.000274036
0.000602632
-0.000214603
0.00116181
0.00050334
0.000900823
0.00302662
0.00030085
0.00242616
0.00146632
0.00116
0.000514385
0.000891083
0.00301098
0.000304366
0.00241836
0.00146682
-4.52895e-07
9.07306e-05
0.000479429
-0.000391418
-5.21605e-05
-7.85569e-05
0.000198783
-3.51104e-06
0.000474105
9.15864e-05
-0.000393795
-5.35371e-05
-8.05912e-05
0.000200341
6.50875e-05
0.000413207
0.000151327
0.00123269
0.00075921
0.00194813
0.00123602
0.0039865
0.00239032
0.00240314
0.0048188
0.00196925
0.00452184
0.00450843
0.00252048
0.00107746
0.00151895
0.00161563
0.00135695
0.00140098
0.00298889
0.00252179
0.00108768
0.00151827
0.00161296
0.00133855
0.00139133
0.00299286
0.000464321
0.000663876
0.000260334
0.000959831
0.00108532
0.000415774
0.000462819
0.000661189
0.000465113
0.000245449
0.000952019
0.00108698
0.000424913
0.000460019
0.000728281
0.000149847
0.000609389
0.00061082
0.000289126
0.000298518
0.00156509
)
;

boundaryField
{
    inlet
    {
        type            fixedValue;
        value           uniform 0;
    }
    wall
    {
        type            zeroGradient;
    }
    outlet
    {
        type            fixedValue;
        value           uniform 0;
    }
    procBoundary1to0
    {
        type            processor;
        value           nonuniform List<scalar> 
320
(
-8.25903e-06
-8.24596e-06
-8.25047e-06
-8.2423e-06
-8.24449e-06
-2.27422e-05
-2.27348e-05
-2.2732e-05
-2.27269e-05
-2.27252e-05
-3.67346e-05
-3.6716e-05
-3.67111e-05
-3.66945e-05
-3.66904e-05
-5.66762e-05
-5.66535e-05
-5.66392e-05
-5.66111e-05
-5.65988e-05
-6.95189e-05
-6.94816e-05
-6.94576e-05
-6.9411e-05
-6.93899e-05
-8.90224e-05
-8.89746e-05
-8.89364e-05
-8.88643e-05
-8.88286e-05
-0.000102839
-0.000102772
-0.000102724
-0.000102628
-0.000102582
-0.000121025
-0.000120945
-0.0001209
-0.00012079
-0.000120748
-0.000135608
-0.000135531
-0.000135597
-0.000135615
-0.000135674
-0.00015265
-0.000152618
-0.000152967
-0.000153338
-0.000153619
-0.000167051
-0.000167222
-0.000167945
-0.000168655
-0.000169109
-0.000182635
-0.000182937
-0.000183642
-0.000184042
-0.000184346
-0.000194815
-0.000194897
-0.000195235
-0.000195084
-0.000195095
-0.000207121
-0.000206641
-0.000206557
-0.00020605
-0.000205878
-0.000214958
-0.000213816
-0.000213225
-0.000212389
-0.000212084
-0.000224161
-0.000222673
-0.000221844
-0.000220674
-0.000220267
-0.0002283
-0.000226354
-0.000225308
-0.000223937
-0.000223496
-0.000236755
-0.000234246
-0.000233052
-0.000231282
-0.000230729
-0.000238666
-0.000235513
-0.000234194
-0.000232134
-0.000231516
-0.000247264
-0.000242708
-0.000240727
-0.000237744
-0.000236605
-0.000247621
-0.000241941
-0.000239605
-0.000236029
-0.000234775
-0.000255068
-0.000245862
-0.000240845
-0.000234417
-0.000230157
-0.000255599
-0.000245007
-0.000240417
-0.000234469
-0.000232781
-0.000256583
-0.000236183
-0.000220388
-0.000204297
-0.000183091
-0.000263136
-0.000244256
-0.000237258
-0.000223955
-0.000227691
-0.000246531
-0.000202503
-0.000153973
-0.000117345
-4.30874e-06
-0.00026222
-0.000224965
-0.000219069
-0.000160701
-0.000191246
-0.000219858
-0.00014585
-2.8868e-05
3.05553e-05
0.000615937
-0.000251827
-0.000147747
-6.97527e-05
0.000149654
0.000154856
-0.000220433
-7.81767e-05
1.02615e-05
0.000217728
0.00119643
-0.000303119
-0.000263037
-0.000358422
-0.000325958
0.00151117
-0.000209177
-0.000179813
-0.000137512
-0.000183462
-0.00117604
-0.000220604
-0.000219152
-8.77059e-05
-8.12986e-05
0.000267263
-0.000209993
-0.000268053
-0.000257751
-9.61276e-05
0.00088734
-0.000287932
-0.000338832
-0.000575334
-0.000590369
-0.00268531
-0.000164824
-0.000212024
-0.000220052
-0.000416508
-0.000734389
-0.000223055
-0.000265802
-0.000294368
-0.0004689
-0.000406759
-0.000127433
-0.000158914
-0.000171017
-0.000240244
-0.000272628
-0.000124529
-0.000125933
-0.000131914
-0.000158686
-0.000129124
-4.53332e-05
-7.61229e-05
-8.70977e-05
-0.000117573
-0.000122849
-0.000734485
-0.00098308
-0.000217938
0.00135935
-0.00184695
-0.00167448
-0.000702564
8.81643e-05
-0.000166177
-0.00271979
0.000468213
-0.000209901
0.000495426
0.00428518
0.00118864
0.00050681
-0.00102217
-0.000669196
0.00438825
-0.00107249
-0.00269038
-0.00107795
-0.000914817
-0.000435262
-0.00178765
-0.00142428
-0.000667038
-0.000824464
-0.000548086
-0.000492299
-0.00164694
-0.00143017
-7.05903e-05
-0.00190575
-0.00222316
-0.00185649
-0.00168005
-0.00122231
-0.00112312
-0.00252137
-0.00141072
-0.00157467
-0.00199734
-0.000952556
-0.00190234
-0.00126856
-0.000289189
3.45305e-05
-0.000241085
-0.000910088
-0.00164811
-0.00132937
-0.000850421
-0.00101114
-0.00231911
-0.00235716
-0.00188008
-0.00114926
-0.00188091
-0.00220283
-0.00143176
-0.00183205
-0.0012528
0.00291902
0.00408112
0.00170625
-0.000201704
-0.00052187
0.000778528
-0.000552525
-0.00113667
-0.00160696
-0.000363781
-0.000607008
-0.000759465
0.0017935
0.00138351
0.00412996
0.00272172
0.000131714
0.00162778
-0.00083897
-0.000183788
-0.00107046
0.00323526
0.00473008
0.0082375
0.000690059
0.000612514
0.000557898
-0.000641453
-0.000364964
0.000241865
0.00112418
0.00287351
0.00187483
0.00314682
0.00236268
0.00321813
-0.000250686
0.000603191
-0.000220144
0.00050789
0.00147191
0.00302701
-0.000384693
0.000199386
9.12997e-05
0.00040842
0.00195032
0.00123562
0.00481703
0.00452269
0.00239569
0.00152029
0.00299258
0.00161759
0.000464517
0.000459376
0.000955285
)
;
    }
    procBoundary1to3
    {
        type            processor;
        value           nonuniform List<scalar> 
320
(
-8.24438e-06
-8.24253e-06
-8.25037e-06
-8.24646e-06
-8.25897e-06
-2.27247e-05
-2.27262e-05
-2.27306e-05
-2.27333e-05
-2.27396e-05
-3.66899e-05
-3.66939e-05
-3.671e-05
-3.67148e-05
-3.67326e-05
-5.65978e-05
-5.66096e-05
-5.66369e-05
-5.66512e-05
-5.66724e-05
-6.93892e-05
-6.94101e-05
-6.94562e-05
-6.94805e-05
-6.95167e-05
-8.88277e-05
-8.88633e-05
-8.89349e-05
-8.89738e-05
-8.90201e-05
-0.000102582
-0.000102628
-0.000102724
-0.000102774
-0.00010284
-0.000120748
-0.000120792
-0.000120902
-0.000120949
-0.000121029
-0.000135678
-0.000135623
-0.000135607
-0.000135542
-0.000135619
-0.000153628
-0.000153356
-0.000152991
-0.000152643
-0.000152669
-0.000169119
-0.000168676
-0.000167977
-0.000167258
-0.000167075
-0.000184347
-0.000184046
-0.000183649
-0.000182951
-0.000182653
-0.000195082
-0.000195061
-0.000195203
-0.000194876
-0.000194812
-0.000205854
-0.000206009
-0.000206503
-0.000206586
-0.000207066
-0.00021205
-0.000212332
-0.000213145
-0.000213723
-0.000214846
-0.000220224
-0.000220602
-0.000221743
-0.000222556
-0.000224025
-0.000223444
-0.000223856
-0.000225193
-0.000226217
-0.000228134
-0.000230665
-0.000231189
-0.000232919
-0.00023409
-0.000236568
-0.000231441
-0.000232035
-0.000234051
-0.000235345
-0.000238455
-0.000236512
-0.000237623
-0.000240555
-0.000242508
-0.000247017
-0.000234655
-0.000235894
-0.000239408
-0.000241723
-0.000247354
-0.000230019
-0.00023425
-0.000240606
-0.00024559
-0.000254731
-0.000232565
-0.000234255
-0.000240121
-0.000244699
-0.000255232
-0.000182939
-0.000204075
-0.000220086
-0.000235823
-0.00025615
-0.00022707
-0.000223524
-0.000236766
-0.00024377
-0.000262562
-4.53932e-06
-0.000117087
-0.000153738
-0.000202062
-0.000245977
-0.000188989
-0.000159944
-0.000218254
-0.000224381
-0.000261598
0.000613605
3.13291e-05
-2.90665e-05
-0.000145667
-0.000219548
0.000415849
0.000150366
-6.88721e-05
-0.000146413
-0.000250903
0.00290836
0.000692024
1.03792e-05
-7.68445e-05
-0.000219974
0.00136023
-0.000733771
-0.000356717
-0.000261615
-0.000301963
-0.00272044
-0.00069619
-0.000140374
-0.000177637
-0.000209337
0.000555198
-0.000223046
-8.42247e-05
-0.000217253
-0.000219287
0.00434634
0.000504886
-0.000258435
-0.000266955
-0.000208939
-0.00178175
-0.00107838
-0.000576869
-0.000336657
-0.000286809
-0.000779659
-0.00039859
-0.000228483
-0.000209376
-0.000164781
-0.000419827
-0.000472696
-0.000297617
-0.000264523
-0.000221175
-0.000275176
-0.000240737
-0.000171991
-0.000157636
-0.000123836
-0.000132646
-0.000159203
-0.000132323
-0.000125155
-0.000122245
-0.000121386
-0.000118054
-8.47576e-05
-7.56793e-05
-4.24635e-05
-0.00184604
-0.00167292
0.00151033
-0.000981196
-0.000215701
-0.000323608
0.000446046
-0.000199033
-0.00118042
7.62334e-05
-0.00015738
-0.00017933
0.00424757
0.00117838
0.000253905
-0.00107131
-0.00268582
0.000887299
-0.00102102
-0.000666788
-9.87391e-05
-0.00145185
-0.000696139
-0.0026709
-0.00091792
-0.000426774
-0.000586787
-0.000379973
-0.000560243
-0.000676111
-0.00199052
-0.000944499
-0.00190286
-0.00231808
-0.00229117
-0.00186347
-0.00133207
-0.000846286
-0.00100917
-0.00167736
-0.00122052
-0.00112226
-0.00251972
-0.00140898
-0.00156604
-0.00163742
-0.00142492
-7.53136e-05
-0.0012658
-0.000295097
3.01949e-05
-0.000241746
-0.00091342
-0.00164706
-0.0010905
-0.00178015
-0.00226896
-0.00138126
-0.00184899
-0.00128241
-0.00190516
-0.00223327
-0.00185616
0.00408178
0.00170161
0.00118981
-0.000200992
-0.000520604
0.000780479
-0.000552653
-0.00113594
-0.00160282
-0.000361231
-0.000606282
-0.000758439
0.00177812
0.00136051
0.00405869
0.00270086
0.000113858
0.00162868
-0.000837439
-0.000183129
-0.00106845
0.00323961
0.00472954
0.00823147
0.000610828
0.000556258
0.00022007
-0.000641139
-0.000363544
0.000241893
0.00112529
0.00286602
0.0018818
0.00311579
0.00232398
0.0031808
0.00060354
-0.000214483
-8.4411e-05
-0.000392974
0.000200064
9.08775e-05
0.000510067
0.00146168
0.00300782
0.00194483
0.00123563
0.000156228
0.00482304
0.00451272
0.0023975
0.00151116
0.00299778
0.0016143
0.000463098
0.000465503
0.000958155
)
;
    }
}


// ************************************************************************* //
