/*--------------------------------*- C++ -*----------------------------------*\
| =========                 |                                                 |
| \\      /  F ield         | OpenFOAM: The Open Source CFD Toolbox           |
|  \\    /   O peration     | Version:  5.x                                   |
|   \\  /    A nd           | Web:      www.OpenFOAM.org                      |
|    \\/     M anipulation  |                                                 |
\*---------------------------------------------------------------------------*/
FoamFile
{
    version     2.0;
    format      ascii;
    class       volVectorField;
    location    "0.036";
    object      U;
}
// * * * * * * * * * * * * * * * * * * * * * * * * * * * * * * * * * * * * * //

dimensions      [0 1 -1 0 0 0 0];

internalField   nonuniform List<vector> 
1553
(
(2.25625e-08 -4.8999e-06 -0.000199732)
(2.74104e-06 -4.91369e-06 -0.000200287)
(2.74611e-06 -4.88378e-06 -0.000199)
(4.60979e-06 -4.88318e-06 -0.00020025)
(4.65905e-06 -4.83158e-06 -0.000197686)
(-1.43981e-08 -4.90251e-06 -0.000202541)
(2.75641e-06 -4.92722e-06 -0.000203077)
(2.77555e-06 -4.8991e-06 -0.000201736)
(4.6606e-06 -4.90226e-06 -0.00020298)
(4.71064e-06 -4.84766e-06 -0.000200379)
(-4.80668e-08 -3.01228e-06 -0.000201306)
(2.7444e-06 -3.02979e-06 -0.000201849)
(2.77102e-06 -3.00679e-06 -0.000200494)
(4.66122e-06 -3.01001e-06 -0.000201745)
(4.71509e-06 -2.97261e-06 -0.00019914)
(-5.82007e-08 -3.00542e-06 -0.000202819)
(2.7619e-06 -3.01963e-06 -0.000203344)
(2.79532e-06 -2.99537e-06 -0.000201955)
(4.69479e-06 -2.99783e-06 -0.0002032)
(4.74913e-06 -2.96069e-06 -0.000200565)
(-8.05237e-08 -1.6718e-07 -0.000202314)
(2.75446e-06 -1.80263e-07 -0.000202843)
(2.79282e-06 -1.68322e-07 -0.000201444)
(4.6959e-06 -1.7115e-07 -0.000202694)
(4.75327e-06 -1.54065e-07 -0.000200052)
(-8.03015e-08 -2.47687e-06 0.000535533)
(1.58945e-06 -2.45064e-06 0.000535735)
(2.07301e-06 -2.40489e-06 0.000536162)
(2.94621e-06 -2.39551e-06 0.000536599)
(2.24272e-06 -2.374e-06 0.000537176)
(4.74825e-08 -3.33834e-06 0.000534977)
(1.65959e-06 -3.2986e-06 0.000535184)
(2.12675e-06 -3.24224e-06 0.000535612)
(2.97598e-06 -3.22724e-06 0.000536051)
(2.26423e-06 -3.20208e-06 0.000536627)
(9.98339e-08 -2.52378e-06 0.000534514)
(1.68549e-06 -2.49266e-06 0.000534728)
(2.14434e-06 -2.45365e-06 0.000535161)
(2.98634e-06 -2.43959e-06 0.000535603)
(2.26884e-06 -2.41061e-06 0.000536181)
(1.74197e-07 -2.13927e-06 0.0005341)
(1.72973e-06 -2.10919e-06 0.000534317)
(2.17981e-06 -2.07183e-06 0.00053475)
(3.01902e-06 -2.05758e-06 0.000535196)
(2.29397e-06 -2.02679e-06 0.000535776)
(2.13016e-07 -6.29514e-07 0.000533859)
(1.75293e-06 -6.04859e-07 0.00053408)
(2.19594e-06 -5.81739e-07 0.000534515)
(3.03139e-06 -5.70484e-07 0.000534964)
(2.30036e-06 -5.58012e-07 0.000535544)
(2.21984e-07 -5.53301e-06 -0.000176966)
(3.41469e-06 -5.54154e-06 -0.000176979)
(3.66449e-06 -5.51047e-06 -0.000175043)
(5.69839e-06 -5.50809e-06 -0.00017509)
(5.31095e-06 -5.45582e-06 -0.000171867)
(1.94252e-07 -6.00042e-06 -0.000180335)
(3.43645e-06 -6.01293e-06 -0.000180348)
(3.69691e-06 -5.97928e-06 -0.00017839)
(5.75148e-06 -5.9764e-06 -0.000178429)
(5.36321e-06 -5.92016e-06 -0.000175152)
(1.80663e-07 -3.94849e-06 -0.000180307)
(3.43579e-06 -3.95598e-06 -0.000180327)
(3.70099e-06 -3.92738e-06 -0.000178373)
(5.7575e-06 -3.9229e-06 -0.000178412)
(5.36878e-06 -3.88102e-06 -0.000175125)
(1.69144e-07 -3.71046e-06 -0.000182309)
(3.45757e-06 -3.71687e-06 -0.000182333)
(3.72999e-06 -3.68917e-06 -0.000180378)
(5.79784e-06 -3.68541e-06 -0.000180418)
(5.40619e-06 -3.64481e-06 -0.000177108)
(1.57153e-07 -4.1496e-07 -0.000182306)
(3.45707e-06 -4.22464e-07 -0.000182335)
(3.73245e-06 -4.1383e-07 -0.000180384)
(5.80187e-06 -4.1435e-07 -0.000180427)
(5.4104e-06 -4.02453e-07 -0.000177113)
(-5.71372e-08 -5.91994e-06 0.000435294)
(3.51293e-06 -5.89443e-06 0.000435513)
(3.96213e-06 -5.82546e-06 0.000437635)
(6.12352e-06 -5.8071e-06 0.000438108)
(5.53695e-06 -5.73025e-06 0.000441524)
(4.7425e-08 -6.6804e-06 0.000431751)
(3.60482e-06 -6.64814e-06 0.000431983)
(4.04708e-06 -6.57331e-06 0.000434136)
(6.21617e-06 -6.55001e-06 0.000434628)
(5.61381e-06 -6.46144e-06 0.000438089)
(7.42656e-08 -4.49827e-06 0.000431189)
(3.61998e-06 -4.4778e-06 0.000431429)
(4.06023e-06 -4.44142e-06 0.000433595)
(6.23537e-06 -4.42992e-06 0.0004341)
(5.62795e-06 -4.36774e-06 0.000437579)
(1.41618e-07 -4.13845e-06 0.000428956)
(3.66168e-06 -4.11776e-06 0.000429208)
(4.09497e-06 -4.08289e-06 0.000431404)
(6.28986e-06 -4.07337e-06 0.00043192)
(5.67778e-06 -4.01515e-06 0.000435428)
(1.6596e-07 -6.47552e-07 0.000428639)
(3.67555e-06 -6.29521e-07 0.000428897)
(4.10462e-06 -6.05882e-07 0.000431102)
(6.30312e-06 -5.97018e-07 0.000431625)
(5.68785e-06 -5.76648e-07 0.00043514)
(4.01893e-07 -9.15781e-06 -4.62648e-05)
(5.75559e-06 -9.15362e-06 -4.5989e-05)
(6.25909e-06 -9.09034e-06 -4.24477e-05)
(9.58826e-06 -9.06913e-06 -4.18959e-05)
(8.80804e-06 -8.97047e-06 -3.60956e-05)
(3.97893e-07 -1.01057e-05 -5.2265e-05)
(5.82121e-06 -1.0097e-05 -5.19846e-05)
(6.34148e-06 -1.00194e-05 -4.83849e-05)
(9.70527e-06 -9.9848e-06 -4.78192e-05)
(8.9067e-06 -9.86569e-06 -4.19367e-05)
(3.97926e-07 -6.7436e-06 -5.28696e-05)
(5.8419e-06 -6.73129e-06 -5.25923e-05)
(6.37126e-06 -6.65986e-06 -4.8988e-05)
(9.74194e-06 -6.63045e-06 -4.84221e-05)
(8.93003e-06 -6.54224e-06 -4.25244e-05)
(4.02945e-07 -6.25982e-06 -5.65263e-05)
(5.90494e-06 -6.24892e-06 -5.62514e-05)
(6.44232e-06 -6.18188e-06 -5.26245e-05)
(9.82291e-06 -6.15972e-06 -5.2053e-05)
(8.99704e-06 -6.08363e-06 -4.60901e-05)
(4.00943e-07 -7.48213e-07 -5.68487e-05)
(5.91984e-06 -7.47592e-07 -5.65777e-05)
(6.46045e-06 -7.31073e-07 -5.29513e-05)
(9.84021e-06 -7.24925e-07 -5.23808e-05)
(9.00809e-06 -7.08756e-07 -4.64072e-05)
(2.72804e-07 -1.20584e-05 0.000300002)
(7.33008e-06 -1.20283e-05 0.000300443)
(8.05532e-06 -1.18995e-05 0.000305253)
(1.24767e-05 -1.18667e-05 0.000306171)
(1.14705e-05 -1.17043e-05 0.000313944)
(3.50854e-07 -1.32865e-05 0.000291798)
(7.48491e-06 -1.32527e-05 0.000292274)
(8.21255e-06 -1.31149e-05 0.000297196)
(1.26656e-05 -1.30775e-05 0.000298172)
(1.16329e-05 -1.28913e-05 0.000306116)
(3.66079e-07 -8.75963e-06 0.000290668)
(7.50161e-06 -8.74466e-06 0.000291162)
(8.23042e-06 -8.681e-06 0.000296119)
(1.27002e-05 -8.66383e-06 0.000297127)
(1.16628e-05 -8.52114e-06 0.000305128)
(4.14969e-07 -8.11762e-06 0.00028555)
(7.56354e-06 -8.10323e-06 0.000286065)
(8.29337e-06 -8.04625e-06 0.000291099)
(1.28255e-05 -8.03211e-06 0.000292142)
(1.17795e-05 -7.89798e-06 0.000300252)
(4.29916e-07 -9.89148e-07 0.000284923)
(7.57299e-06 -9.76527e-07 0.000285446)
(8.30154e-06 -9.54049e-07 0.000290499)
(1.28485e-05 -9.46846e-07 0.000291559)
(1.18004e-05 -9.1512e-07 0.000299701)
(7.95839e-07 -1.75515e-05 5.927e-05)
(1.10066e-05 -1.75124e-05 5.9889e-05)
(1.19874e-05 -1.7335e-05 6.67769e-05)
(1.82813e-05 -1.72558e-05 6.7999e-05)
(1.67647e-05 -1.69826e-05 7.92215e-05)
(8.3258e-07 -1.94407e-05 4.7523e-05)
(1.12184e-05 -1.93796e-05 4.81702e-05)
(1.22388e-05 -1.91546e-05 5.51849e-05)
(1.86268e-05 -1.90306e-05 5.64738e-05)
(1.70379e-05 -1.86836e-05 6.79457e-05)
(8.52611e-07 -1.29916e-05 4.61131e-05)
(1.12927e-05 -1.29401e-05 4.67654e-05)
(1.23363e-05 -1.27569e-05 5.38185e-05)
(1.87522e-05 -1.26602e-05 5.51154e-05)
(1.71186e-05 -1.24057e-05 6.66555e-05)
(8.83085e-07 -1.20052e-05 3.89128e-05)
(1.1453e-05 -1.1965e-05 3.95642e-05)
(1.25188e-05 -1.1802e-05 4.67183e-05)
(1.89781e-05 -1.17277e-05 4.80532e-05)
(1.72976e-05 -1.15104e-05 5.97262e-05)
(8.92511e-07 -1.41425e-06 3.81684e-05)
(1.14958e-05 -1.40196e-06 3.88114e-05)
(1.25737e-05 -1.36504e-06 4.59657e-05)
(1.90438e-05 -1.34146e-06 4.7306e-05)
(1.73405e-05 -1.29467e-06 5.9011e-05)
(9.18379e-07 -2.40853e-05 0.000200679)
(1.4837e-05 -2.40263e-05 0.00020159)
(1.61653e-05 -2.37662e-05 0.000211326)
(2.49236e-05 -2.36651e-05 0.000213218)
(2.29604e-05 -2.32468e-05 0.000229064)
(1.00301e-06 -2.64459e-05 0.000183878)
(1.51468e-05 -2.63789e-05 0.000184855)
(1.65162e-05 -2.60758e-05 0.000194791)
(2.5429e-05 -2.59636e-05 0.000196812)
(2.33787e-05 -2.54597e-05 0.000213115)
(1.01883e-06 -1.73698e-05 0.000181742)
(1.5207e-05 -1.73508e-05 0.000182705)
(1.65804e-05 -1.71476e-05 0.000192673)
(2.55398e-05 -1.70845e-05 0.000194677)
(2.34783e-05 -1.67407e-05 0.000211109)
(1.05465e-06 -1.60624e-05 0.00017155)
(1.53691e-05 -1.60572e-05 0.000172496)
(1.67825e-05 -1.5899e-05 0.000182597)
(2.5836e-05 -1.58416e-05 0.000184632)
(2.37327e-05 -1.55425e-05 0.000201261)
(1.06033e-06 -1.76416e-06 0.000170468)
(1.53703e-05 -1.75865e-06 0.000171379)
(1.67961e-05 -1.73857e-06 0.00018146)
(2.58964e-05 -1.72676e-06 0.000183481)
(2.37864e-05 -1.66316e-06 0.000200175)
(1.64879e-06 -3.47525e-05 0.000116633)
(2.16541e-05 -3.46459e-05 0.000117828)
(2.36156e-05 -3.42632e-05 0.00013126)
(3.6023e-05 -3.4053e-05 0.000133725)
(3.29923e-05 -3.33126e-05 0.000155721)
(1.75211e-06 -3.83815e-05 9.31013e-05)
(2.21318e-05 -3.82676e-05 9.44359e-05)
(2.41952e-05 -3.78109e-05 0.000108333)
(3.69539e-05 -3.75751e-05 0.000110997)
(3.37327e-05 -3.66426e-05 0.000133628)
(1.75966e-06 -2.53196e-05 9.00609e-05)
(2.22245e-05 -2.5299e-05 9.14074e-05)
(2.4308e-05 -2.49517e-05 0.000105502)
(3.71913e-05 -2.48393e-05 0.000108213)
(3.39445e-05 -2.42593e-05 0.000131045)
(1.77494e-06 -2.32792e-05 7.53215e-05)
(2.24997e-05 -2.32913e-05 7.676e-05)
(2.4655e-05 -2.30151e-05 9.13148e-05)
(3.76465e-05 -2.29234e-05 9.42221e-05)
(3.4326e-05 -2.24442e-05 0.000117525)
(1.75518e-06 -2.56038e-06 7.36766e-05)
(2.24886e-05 -2.57814e-06 7.51312e-05)
(2.4676e-05 -2.56093e-06 8.97838e-05)
(3.77624e-05 -2.55217e-06 9.27039e-05)
(3.44353e-05 -2.43968e-06 0.00011615)
(2.10104e-06 -4.81909e-05 0.0001266)
(2.94647e-05 -4.79904e-05 0.000128428)
(3.2062e-05 -4.72536e-05 0.000147553)
(4.93893e-05 -4.69484e-05 0.000151243)
(4.54947e-05 -4.58765e-05 0.00018232)
(2.31251e-06 -5.30231e-05 9.267e-05)
(3.03785e-05 -5.28049e-05 9.48619e-05)
(3.30776e-05 -5.18395e-05 0.000114835)
(5.07297e-05 -5.14803e-05 0.000118858)
(4.65666e-05 -5.01406e-05 0.000151067)
(2.3376e-06 -3.51498e-05 8.76043e-05)
(3.06481e-05 -3.50267e-05 8.98798e-05)
(3.33864e-05 -3.41659e-05 0.000110474)
(5.10881e-05 -3.38596e-05 0.000114646)
(4.68711e-05 -3.28442e-05 0.000147191)
(2.45608e-06 -3.24467e-05 6.55077e-05)
(3.13624e-05 -3.23335e-05 6.79189e-05)
(3.42446e-05 -3.16172e-05 8.96748e-05)
(5.20516e-05 -3.1351e-05 9.44596e-05)
(4.76084e-05 -3.04372e-05 0.00012788)
(2.4807e-06 -3.46426e-06 6.27146e-05)
(3.14776e-05 -3.43765e-06 6.52071e-05)
(3.43689e-05 -3.31822e-06 8.70928e-05)
(5.22684e-05 -3.2924e-06 9.19613e-05)
(4.78082e-05 -3.08404e-06 0.000125766)
(3.39504e-06 -6.95065e-05 0.000136341)
(4.26072e-05 -6.90329e-05 0.000139108)
(4.64299e-05 -6.77865e-05 0.000165831)
(7.0797e-05 -6.72364e-05 0.000171167)
(6.48431e-05 -6.53383e-05 0.000214464)
(3.85249e-06 -7.73848e-05 8.60963e-05)
(4.42969e-05 -7.68239e-05 8.9426e-05)
(4.81911e-05 -7.48979e-05 0.00011903)
(7.31937e-05 -7.41788e-05 0.000125431)
(6.67412e-05 -7.17785e-05 0.000170992)
(3.9431e-06 -5.24819e-05 7.84936e-05)
(4.50938e-05 -5.2242e-05 8.20118e-05)
(4.90746e-05 -5.0112e-05 0.00011215)
(7.39164e-05 -4.92375e-05 0.000118817)
(6.72949e-05 -4.74467e-05 0.000165442)
(4.08924e-06 -4.8169e-05 4.8213e-05)
(4.66668e-05 -4.7964e-05 5.19626e-05)
(5.11956e-05 -4.63959e-05 8.18283e-05)
(7.58594e-05 -4.56085e-05 8.90339e-05)
(6.85673e-05 -4.38691e-05 0.000138533)
(4.15594e-06 -5.46389e-06 4.40089e-05)
(4.68669e-05 -5.39405e-06 4.78784e-05)
(5.14301e-05 -5.24661e-06 7.79757e-05)
(7.64436e-05 -5.15192e-06 8.53743e-05)
(6.90646e-05 -4.64875e-06 0.000135433)
(4.79731e-06 -9.96106e-05 4.62965e-05)
(5.89546e-05 -9.88403e-05 5.09357e-05)
(6.41219e-05 -9.51932e-05 8.85288e-05)
(9.80329e-05 -9.38109e-05 9.63915e-05)
(8.98696e-05 -9.04258e-05 0.000156261)
(5.56562e-06 -0.000110881 -1.94579e-05)
(6.33122e-05 -0.000109912 -1.51697e-05)
(6.90826e-05 -0.000105531 2.31873e-05)
(0.000102703 -0.000103842 3.2142e-05)
(9.32548e-05 -9.91725e-05 9.61007e-05)
(5.77637e-06 -7.30331e-05 -2.86477e-05)
(6.4305e-05 -7.24901e-05 -2.41428e-05)
(7.01911e-05 -7.13674e-05 1.36965e-05)
(0.000104391 -7.02568e-05 2.28805e-05)
(9.46368e-05 -6.53031e-05 8.7925e-05)
(6.12126e-06 -6.69314e-05 -6.67597e-05)
(6.49778e-05 -6.6467e-05 -6.19981e-05)
(7.13159e-05 -6.5792e-05 -2.44197e-05)
(0.000108768 -6.47933e-05 -1.57303e-05)
(9.8277e-05 -6.04461e-05 4.99522e-05)
(6.26831e-06 -7.7602e-06 -7.20913e-05)
(6.54444e-05 -7.61016e-06 -6.72036e-05)
(7.18649e-05 -7.25353e-06 -2.93649e-05)
(0.000109738 -7.02981e-06 -2.04565e-05)
(9.90437e-05 -6.25495e-06 4.48033e-05)
(7.89475e-06 -0.000136939 0.00012164)
(8.48397e-05 -0.000136807 0.000128754)
(9.18859e-05 -0.000134762 0.00018353)
(0.000138544 -0.000133102 0.000195966)
(0.000126265 -0.000127051 0.000278979)
(8.01508e-06 -0.000152346 2.80593e-05)
(8.69423e-05 -0.000151919 3.57626e-05)
(9.55028e-05 -0.000149746 9.09682e-05)
(0.000146123 -0.000147706 0.000105267)
(0.000132316 -0.00014013 0.000195662)
(8.3212e-06 -9.97837e-05 1.17437e-05)
(8.74382e-05 -9.90704e-05 1.98163e-05)
(9.6098e-05 -9.7719e-05 7.57409e-05)
(0.000148161 -9.71097e-05 9.06042e-05)
(0.000133973 -9.35953e-05 0.000182861)
(8.7215e-06 -9.16127e-05 -4.72475e-05)
(8.9007e-05 -9.10249e-05 -3.87028e-05)
(9.74635e-05 -8.94575e-05 1.95188e-05)
(0.000150248 -8.89457e-05 3.51021e-05)
(0.000135919 -8.69909e-05 0.000127785)
(8.9165e-06 -1.09305e-05 -5.64961e-05)
(8.95935e-05 -1.07358e-05 -4.78223e-05)
(9.81772e-05 -1.03365e-05 1.0867e-05)
(0.000150629 -1.00195e-05 2.68217e-05)
(0.000136002 -9.96149e-06 0.00012009)
(1.17587e-05 -0.000195602 -7.19471e-05)
(0.000120844 -0.000194219 -6.23741e-05)
(0.000131334 -0.000190067 1.08538e-05)
(0.000193503 -0.000186782 2.9113e-05)
(0.000175036 -0.000175895 0.000142496)
(1.31244e-05 -0.000220802 -0.000196635)
(0.000126221 -0.000218873 -0.000185361)
(0.000138587 -0.000213342 -0.000110243)
(0.000207419 -0.000209226 -9.10712e-05)
(0.000185923 -0.000195312 2.86584e-05)
(1.37088e-05 -0.000148339 -0.000220491)
(0.000128302 -0.000146955 -0.000208402)
(0.000140978 -0.000142816 -0.000131271)
(0.000211534 -0.000140421 -0.000110711)
(0.000189207 -0.00013318 9.92297e-06)
(1.45328e-05 -0.000135171 -0.000302637)
(0.000131744 -0.000134105 -0.000289571)
(0.00014512 -0.000130666 -0.000208856)
(0.000217057 -0.000128575 -0.000186294)
(0.000193348 -0.000123217 -6.362e-05)
(1.48072e-05 -1.71284e-05 -0.000316945)
(0.000132807 -1.68548e-05 -0.000303443)
(0.000146508 -1.60191e-05 -0.000221742)
(0.000218984 -1.5424e-05 -0.000198366)
(0.000194723 -1.40479e-05 -7.39328e-05)
(1.72966e-05 -0.000265105 7.46756e-05)
(0.000167642 -0.000263234 9.0776e-05)
(0.000183373 -0.00025917 0.000194024)
(0.000270218 -0.000256546 0.000223125)
(0.000242739 -0.00024398 0.000381511)
(1.90948e-05 -0.000300927 -0.000115077)
(0.000173335 -0.000297984 -9.64031e-05)
(0.000189793 -0.000291907 1.38316e-05)
(0.00028506 -0.000287565 4.70444e-05)
(0.000255304 -0.000272734 0.000222587)
(2.02177e-05 -0.000205786 -0.000154412)
(0.000176659 -0.000203281 -0.000134689)
(0.000193789 -0.000196332 -2.15253e-05)
(0.000289391 -0.000192333 1.32402e-05)
(0.000257918 -0.000185874 0.000192869)
(2.15788e-05 -0.000188068 -0.000275259)
(0.000182789 -0.000186067 -0.000253486)
(0.000200741 -0.00017993 -0.000135151)
(0.000295521 -0.000176602 -9.74563e-05)
(0.000262033 -0.000170848 8.9186e-05)
(2.2204e-05 -2.54526e-05 -0.000298794)
(0.000184798 -2.48262e-05 -0.000276229)
(0.000203255 -2.34391e-05 -0.000155843)
(0.000298475 -2.23067e-05 -0.000117109)
(0.000263914 -2.04833e-05 7.21091e-05)
(2.76151e-05 -0.00039054 -0.000264361)
(0.000240191 -0.000386487 -0.00023969)
(0.000263679 -0.000375047 -0.000106192)
(0.000381033 -0.0003675 -6.09967e-05)
(0.000337709 -0.000339104 0.000164245)
(3.15818e-05 -0.00044994 -0.000527894)
(0.000255128 -0.000444387 -0.000497923)
(0.000282031 -0.000428938 -0.000347689)
(0.00041622 -0.000419155 -0.000296566)
(0.000366105 -0.000383997 -6.18501e-05)
(3.32163e-05 -0.000308519 -0.000592671)
(0.000261187 -0.000304036 -0.000559706)
(0.000288904 -0.000291796 -0.000403733)
(0.000425974 -0.000284919 -0.000348512)
(0.000373624 -0.000266578 -0.000107882)
(3.61173e-05 -0.000279552 -0.000762142)
(0.000271851 -0.000275644 -0.000725524)
(0.000301148 -0.000264982 -0.000560487)
(0.000441444 -0.000258924 -0.000499514)
(0.000385081 -0.000243975 -0.000242102)
(3.71739e-05 -4.08207e-05 -0.000802395)
(0.000275757 -3.9765e-05 -0.000763483)
(0.000305625 -3.68411e-05 -0.000594806)
(0.000446987 -3.52067e-05 -0.000530842)
(0.000389128 -3.12181e-05 -0.000268128)
(4.17043e-05 -0.000536017 -3.13235e-05)
(0.000325814 -0.000528707 7.17464e-06)
(0.000362068 -0.000507512 0.000204772)
(0.000540721 -0.000498741 0.000272341)
(0.000474135 -0.000476231 0.000576084)
(4.87577e-05 -0.000629322 -0.000420293)
(0.000353543 -0.000618083 -0.000371041)
(0.000391151 -0.000589526 -0.000153379)
(0.000570974 -0.000575156 -7.11982e-05)
(0.000496644 -0.000544926 0.000271366)
(5.28719e-05 -0.000440035 -0.000528095)
(0.000365601 -0.000430883 -0.000473303)
(0.000404984 -0.000409131 -0.000244052)
(0.000585321 -0.000395282 -0.000154316)
(0.000505391 -0.000366127 0.000202775)
(5.78607e-05 -0.000397797 -0.000779931)
(0.000384449 -0.000389849 -0.0007168)
(0.000426751 -0.000371006 -0.000474114)
(0.000613989 -0.000358935 -0.000372763)
(0.000526683 -0.000331097 4.48218e-06)
(6.07717e-05 -6.60579e-05 -0.000848987)
(0.000392392 -6.3143e-05 -0.000781479)
(0.000435897 -5.80966e-05 -0.000530469)
(0.000625238 -5.39659e-05 -0.000423587)
(0.000534005 -4.68127e-05 -3.56e-05)
(6.57288e-05 -0.000790341 -0.000609026)
(0.000476282 -0.000775258 -0.000544)
(0.000528834 -0.000743115 -0.000278856)
(0.000752434 -0.000720478 -0.000174182)
(0.000649786 -0.000652156 0.00025176)
(8.048e-05 -0.000946814 -0.00115046)
(0.000522035 -0.000924964 -0.00106804)
(0.000581862 -0.000877858 -0.00076929)
(0.000841057 -0.000845904 -0.000637491)
(0.000718109 -0.000757395 -0.000175739)
(8.76358e-05 -0.000668144 -0.00133464)
(0.000545224 -0.000649783 -0.00123829)
(0.00060788 -0.000612519 -0.000921021)
(0.000872898 -0.000586472 -0.000770514)
(0.000740631 -0.000533451 -0.000281554)
(9.89361e-05 -0.000600446 -0.00168844)
(0.000577668 -0.000583819 -0.00157909)
(0.000645173 -0.000551392 -0.00123969)
(0.000920139 -0.000528187 -0.00107063)
(0.000772882 -0.000482345 -0.000548097)
(0.000104332 -0.000110135 -0.00181124)
(0.000594278 -0.000104732 -0.00169042)
(0.000663504 -9.33698e-05 -0.00133809)
(0.000941957 -8.62047e-05 -0.00115511)
(0.000787947 -7.13537e-05 -0.000615267)
(0.000106307 -0.00109293 -0.000255967)
(0.000655998 -0.00106776 -0.000157327)
(0.000731888 -0.00101195 0.000226391)
(0.00107147 -0.000975364 0.000384846)
(0.000912059 -0.000915721 0.000969301)
(0.000130637 -0.00135514 -0.0010596)
(0.000734721 -0.00131256 -0.000920558)
(0.000821695 -0.00123187 -0.000489447)
(0.00116469 -0.00117165 -0.000276584)
(0.000971702 -0.00107837 0.000383104)
(0.000148679 -0.000978021 -0.00137749)
(0.000779239 -0.000941938 -0.00121181)
(0.000872756 -0.000879532 -0.00073754)
(0.00122497 -0.00082842 -0.000490817)
(0.00100834 -0.000738486 0.000223098)
(0.000166602 -0.000874403 -0.00192048)
(0.000833208 -0.000841987 -0.00172086)
(0.000935214 -0.000788093 -0.00121339)
(0.00130578 -0.000743543 -0.000923451)
(0.00106423 -0.000664823 -0.000162041)
(0.000180963 -0.000189489 -0.00214558)
(0.000865549 -0.000175116 -0.00192274)
(0.000971203 -0.000157093 -0.00138135)
(0.00134826 -0.00013903 -0.00106479)
(0.00108932 -0.000114465 -0.000263043)
(0.000163605 -0.00161674 -0.00119689)
(0.000958621 -0.00156025 -0.0010228)
(0.00107096 -0.00147907 -0.000522726)
(0.00149553 -0.00140057 -0.000259479)
(0.00125026 -0.00125437 0.000515028)
(0.000218833 -0.00206858 -0.00230464)
(0.00109218 -0.00197968 -0.0020721)
(0.00122579 -0.00184197 -0.00148838)
(0.00171379 -0.00172174 -0.00114393)
(0.00139645 -0.00150379 -0.000262418)
(0.000252553 -0.001529 -0.00284875)
(0.00118518 -0.00145005 -0.0025536)
(0.00132883 -0.00133641 -0.00190671)
(0.00183372 -0.00123329 -0.00148998)
(0.00147466 -0.00107855 -0.000527337)
(0.000297959 -0.00136856 -0.00361293)
(0.00128478 -0.00129477 -0.00326616)
(0.00144255 -0.00119521 -0.00255634)
(0.00197172 -0.00110216 -0.00207628)
(0.00155605 -0.000968468 -0.00102984)
(0.000326444 -0.000335741 -0.00402295)
(0.00135853 -0.000307246 -0.00361529)
(0.00152142 -0.000261715 -0.00285411)
(0.00206051 -0.000227957 -0.0023115)
(0.00161245 -0.00017249 -0.00120694)
(0.000279633 -0.00223386 -0.000698352)
(0.00133022 -0.00214856 -0.000435859)
(0.00149522 -0.00200628 0.000308357)
(0.00210947 -0.00188637 0.000685862)
(0.00170922 -0.00171584 0.00178622)
(0.00036212 -0.00300742 -0.00238354)
(0.00155101 -0.00284377 -0.00197054)
(0.00174985 -0.00261625 -0.00112118)
(0.002391 -0.0024025 -0.000555053)
(0.00187975 -0.00212099 0.000682185)
(0.000442714 -0.00228628 -0.0033728)
(0.00172131 -0.00213597 -0.0028349)
(0.00193638 -0.0019475 -0.00182494)
(0.00260473 -0.00176075 -0.00112296)
(0.00199964 -0.00150592 0.000302843)
(0.000512082 -0.00204863 -0.00462234)
(0.00188982 -0.00190369 -0.00393279)
(0.00212507 -0.00173552 -0.00283802)
(0.00283269 -0.00156509 -0.00197541)
(0.00214214 -0.00134448 -0.000444265)
(0.000587241 -0.000600848 -0.00545117)
(0.00203442 -0.000525653 -0.00462542)
(0.00227497 -0.000456066 -0.00337891)
(0.00299585 -0.000375449 -0.00239145)
(0.00222704 -0.000292562 -0.000709847)
(0.000424426 -0.00335119 -0.00208201)
(0.00196525 -0.00314034 -0.00162038)
(0.00219254 -0.00294983 -0.000713244)
(0.00297383 -0.00267786 -7.20157e-05)
(0.00238093 -0.00238873 0.001245)
(0.000630451 -0.0047437 -0.0043506)
(0.00235454 -0.00437929 -0.00368652)
(0.00264116 -0.00397573 -0.0025636)
(0.00351755 -0.00353096 -0.00168827)
(0.00267006 -0.00298759 -7.70319e-05)
(0.000788923 -0.00376771 -0.00600872)
(0.00273306 -0.00341221 -0.00506299)
(0.00304065 -0.00305314 -0.00371834)
(0.00396196 -0.00265354 -0.00256514)
(0.00294167 -0.00220485 -0.000720327)
(0.000986407 -0.00344698 -0.00776149)
(0.00306912 -0.00308531 -0.00659912)
(0.00339983 -0.0027492 -0.0050686)
(0.00436605 -0.00237064 -0.00369315)
(0.00313259 -0.00198108 -0.00163207)
(0.00115084 -0.00116556 -0.00925386)
(0.00343083 -0.00100127 -0.00776295)
(0.00375531 -0.000803613 -0.0060166)
(0.00473025 -0.000645156 -0.00435966)
(0.0033433 -0.000438762 -0.00209709)
(0.000739951 -0.00457449 -0.0014368)
(0.00269914 -0.00428063 -0.000724525)
(0.00304358 -0.0039151 0.000668194)
(0.00406807 -0.00355406 0.00157113)
(0.00306715 -0.00307882 0.00349201)
(0.00102394 -0.00693514 -0.00502647)
(0.00333804 -0.00628729 -0.00375744)
(0.00374802 -0.00562219 -0.00211652)
(0.00487823 -0.00489629 -0.000638647)
(0.00354239 -0.00408667 0.00156468)
(0.00138602 -0.0056973 -0.00822967)
(0.0040118 -0.00504858 -0.00636056)
(0.00443421 -0.00445249 -0.0041186)
(0.00560359 -0.00376555 -0.00211845)
(0.00390288 -0.00306096 0.000660119)
(0.00167145 -0.00529406 -0.0114741)
(0.00458286 -0.00460382 -0.00885708)
(0.00503104 -0.00403389 -0.00636624)
(0.00627012 -0.00335964 -0.00376542)
(0.00426911 -0.00272141 -0.000738925)
(0.00207488 -0.00209677 -0.0150138)
(0.00527197 -0.00169317 -0.0114783)
(0.00567839 -0.00140696 -0.00823847)
(0.00691637 -0.00104472 -0.00503775)
(0.0045616 -0.000759761 -0.00145393)
(0.00113361 -0.00704897 -0.0029905)
(0.00407006 -0.00626687 -0.00182982)
(0.00448794 -0.00581798 -0.000256561)
(0.00579866 -0.00495508 0.00112176)
(0.00435725 -0.00437154 0.00321937)
(0.00189706 -0.0115381 -0.00758277)
(0.00526439 -0.0100165 -0.00572552)
(0.0057597 -0.00876355 -0.00363341)
(0.00719955 -0.00722134 -0.0015637)
(0.00494079 -0.0058205 0.00111282)
(0.00265576 -0.0102153 -0.0126265)
(0.00684409 -0.00851168 -0.00954707)
(0.00728249 -0.00730258 -0.00668931)
(0.00874171 -0.00578005 -0.00363389)
(0.00580363 -0.0045082 -0.000267349)
(0.00360233 -0.0102312 -0.0171174)
(0.00817688 -0.00820297 -0.0130189)
(0.00849132 -0.00686904 -0.00955851)
(0.00999451 -0.00528985 -0.00573613)
(0.00625267 -0.00409494 -0.00184879)
(0.00468626 -0.00470705 -0.0229369)
(0.0102062 -0.00362493 -0.0171146)
(0.0101959 -0.00267835 -0.0126373)
(0.0115163 -0.00192031 -0.00759338)
(0.00703517 -0.00115613 -0.00301184)
(0.00189823 -0.00932249 -0.00200952)
(0.00543336 -0.00831066 -0.000155249)
(0.00599489 -0.00740717 0.00227145)
(0.00754414 -0.00633158 0.00417288)
(0.00523409 -0.00525477 0.00710745)
(0.00287607 -0.0165734 -0.0096662)
(0.00728742 -0.0140065 -0.00582072)
(0.00790975 -0.0120566 -0.00282207)
(0.00962542 -0.00965289 0.000714305)
(0.00631091 -0.00757353 0.00416166)
(0.00446022 -0.015234 -0.0200641)
(0.00994927 -0.0123428 -0.0133471)
(0.0103478 -0.010378 -0.00818693)
(0.0120272 -0.0079379 -0.00282363)
(0.00738455 -0.00602231 0.00226)
(0.00576354 -0.0156054 -0.0299749)
(0.012142 -0.0121716 -0.0193241)
(0.0123146 -0.00998217 -0.0133562)
(0.0139818 -0.00731914 -0.00583315)
(0.00829071 -0.00546618 -0.000178266)
(0.00789119 -0.00793285 -0.0476435)
(0.0155725 -0.00580202 -0.0299824)
(0.0152017 -0.00449431 -0.020074)
(0.016544 -0.00290916 -0.00968126)
(0.00929875 -0.00192863 -0.00203178)
(0.00298385 -0.0149441 -0.00231867)
(0.00835103 -0.0121168 0.000308095)
(0.0088161 -0.0110704 0.00273131)
(0.0106368 -0.00852683 0.00525017)
(0.00738248 -0.00740808 0.00800753)
(0.00573952 -0.0295946 -0.0112063)
(0.012108 -0.0232094 -0.00631769)
(0.0122945 -0.0192236 -0.00266089)
(0.0141846 -0.0142192 0.00151381)
(0.00850122 -0.0106701 0.0052359)
(0.00937464 -0.0305283 -0.0258949)
(0.0187201 -0.0220167 -0.0160514)
(0.017806 -0.0178368 -0.00984826)
(0.0191903 -0.0123273 -0.0026591)
(0.0110461 -0.00884816 0.00271724)
(0.0142619 -0.0378069 -0.0403469)
(0.0247929 -0.0248356 -0.02461)
(0.0219839 -0.0187549 -0.0160724)
(0.0231735 -0.0121469 -0.00633477)
(0.0120919 -0.00838672 0.000279008)
(0.0223913 -0.0223977 -0.0645479)
(0.037772 -0.0142886 -0.0403306)
(0.0305013 -0.00940384 -0.0259055)
(0.0295604 -0.0057745 -0.0112169)
(0.0149231 -0.00301671 -0.00234441)
(0.00452068 -0.0185392 0.00118126)
(0.0104822 -0.0151922 0.00504986)
(0.0109355 -0.0130011 0.00837564)
(0.0128197 -0.0102103 0.0113954)
(0.00809179 -0.00812687 0.0144448)
(0.00775537 -0.0401489 -0.0135665)
(0.0158315 -0.0303676 -0.0035698)
(0.015742 -0.0246375 0.00100617)
(0.0175224 -0.0175624 0.007434)
(0.0101752 -0.0128631 0.0113778)
(0.0142987 -0.0443867 -0.0439797)
(0.0259911 -0.0306425 -0.0218799)
(0.0237429 -0.0237924 -0.0106576)
(0.024594 -0.0157872 0.00100556)
(0.0129625 -0.0109778 0.00836043)
(0.0215332 -0.054205 -0.0794498)
(0.0363994 -0.0364337 -0.0360799)
(0.0305972 -0.0260347 -0.0218954)
(0.0303348 -0.0158756 -0.00359043)
(0.0151602 -0.0105267 0.00501514)
(0.0322294 -0.032375 -0.18025)
(0.0541614 -0.0216253 -0.0794702)
(0.0443273 -0.0143629 -0.0439797)
(0.0401045 -0.00781184 -0.0135894)
(0.0185001 -0.00456761 0.00115666)
(0.0068522 -0.0301972 0.00609179)
(0.0155464 -0.0210487 0.010351)
(0.015163 -0.018697 0.0132102)
(0.0167086 -0.0126392 0.0158705)
(0.0105437 -0.010587 0.0180692)
(0.01574 -0.0747504 -0.00808048)
(0.0266773 -0.0501371 0.00243773)
(0.023302 -0.038259 0.0072632)
(0.0245589 -0.0246116 0.0129268)
(0.0125958 -0.0167571 0.0158497)
(0.0315436 -0.0964412 -0.0465918)
(0.0520199 -0.0545284 -0.0171078)
(0.0406981 -0.0407449 -0.0046112)
(0.0382105 -0.0233554 0.00726526)
(0.0186578 -0.0152122 0.0131928)
(0.0578949 -0.174176 -0.108578)
(0.0822973 -0.082377 -0.0385839)
(0.0544749 -0.0520548 -0.0171342)
(0.050082 -0.0267385 0.00241012)
(0.0210096 -0.0155915 0.0103094)
(0.124746 -0.124539 -0.217629)
(0.174141 -0.0578936 -0.108552)
(0.0964122 -0.0315606 -0.0465787)
(0.0746917 -0.015794 -0.00809709)
(0.0301743 -0.0068981 0.00606878)
(0.00877382 -0.0332933 0.0227775)
(0.0175957 -0.0234836 0.0257978)
(0.0164563 -0.019215 0.0268824)
(0.01768 -0.0133089 0.0278451)
(0.0103885 -0.0104446 0.027486)
(0.0182852 -0.0927561 0.00874876)
(0.0311504 -0.0578119 0.0201581)
(0.0262331 -0.0424524 0.0234662)
(0.0261067 -0.0261655 0.0274057)
(0.0132528 -0.0177407 0.0278208)
(0.0439505 -0.144336 -0.0364904)
(0.0678772 -0.0716259 -0.000734475)
(0.0481223 -0.0481961 0.013789)
(0.0423916 -0.0263059 0.0234693)
(0.0191567 -0.0165193 0.0268634)
(0.0952979 -0.312026 -0.186794)
(0.12765 -0.127685 -0.0312191)
(0.0715525 -0.0679084 -0.000793837)
(0.0577638 -0.0312133 0.0201195)
(0.0234374 -0.0176459 0.0257444)
(0.122803 -0.105623 -0.646873)
(0.311961 -0.095591 -0.186753)
(0.144236 -0.0440724 -0.0363951)
(0.0926757 -0.0183843 0.00870182)
(0.0332474 -0.00884499 0.0227599)
(0.00988295 -0.0449322 0.0423998)
(0.0196465 -0.0269821 0.0390489)
(0.0172114 -0.0223229 0.0382949)
(0.0173105 -0.0131508 0.0355873)
(0.0102093 -0.0102773 0.0338643)
(0.0272496 -0.132928 0.0538726)
(0.0413324 -0.0766261 0.0461833)
(0.0305503 -0.0513433 0.0426727)
(0.0289085 -0.0289826 0.0396562)
(0.0130828 -0.017378 0.0355581)
(0.0683598 -0.225407 0.0647615)
(0.101777 -0.104161 0.0505497)
(0.0649078 -0.0650114 0.0492025)
(0.0512757 -0.0306423 0.0426682)
(0.0222612 -0.0172896 0.0382663)
(0.127391 -0.557071 -0.0984103)
(0.231049 -0.230984 0.028633)
(0.104075 -0.101716 0.0505595)
(0.0765774 -0.0414438 0.0461424)
(0.0269279 -0.0196902 0.0389938)
(0.306312 -1.19091 -0.974508)
(0.578285 -0.362194 -0.178886)
(0.225558 -0.0683916 0.0648524)
(0.132759 -0.0273721 0.0538102)
(0.0449388 -0.00994835 0.0423693)
(0.0054473 -0.021898 0.08131)
(0.0135225 -0.0164418 0.0677564)
(0.0130106 -0.0148664 0.0583464)
(0.0132531 -0.00920557 0.0500757)
(0.00862541 -0.00871095 0.042094)
(0.0106627 -0.0654484 0.113912)
(0.0199312 -0.0453765 0.088295)
(0.019719 -0.031498 0.0755662)
(0.0190013 -0.0190936 0.0595671)
(0.00912002 -0.0133424 0.050046)
(0.0300528 -0.0861994 0.245851)
(0.0491597 -0.0621296 0.153445)
(0.0391872 -0.0392536 0.111945)
(0.0314089 -0.0198331 0.0755763)
(0.0147836 -0.0130996 0.0583128)
(0.0817768 -0.484462 0.486669)
(0.155674 -0.233146 0.298142)
(0.0621262 -0.049101 0.153383)
(0.045265 -0.0200528 0.0882508)
(0.0163814 -0.0135745 0.0676857)
(0.196596 -0.474553 -4.4609)
(0.672818 -0.559563 0.744765)
(0.0864627 -0.030258 0.245854)
(0.0652481 -0.0107687 0.11387)
(0.0218843 -0.0055512 0.0812626)
(-0.00371889 -0.0113863 0.0712144)
(-0.00330718 -0.00601787 0.0638097)
(-0.000460761 -0.00459834 0.0578393)