/*--------------------------------*- C++ -*----------------------------------*\
| =========                 |                                                 |
| \\      /  F ield         | OpenFOAM: The Open Source CFD Toolbox           |
|  \\    /   O peration     | Version:  5.x                                   |
|   \\  /    A nd           | Web:      www.OpenFOAM.org                      |
|    \\/     M anipulation  |                                                 |
\*---------------------------------------------------------------------------*/
FoamFile
{
    version     2.0;
    format      ascii;
    class       volScalarField;
    location    "0.06";
    object      interFace;
}
// * * * * * * * * * * * * * * * * * * * * * * * * * * * * * * * * * * * * * //

dimensions      [0 0 0 0 0 0 0];

internalField   nonuniform List<scalar> 
1553
(
0
0
0
0
0
0
0
0
0
0
0
0
0
0
0
0
0
0
0
0
0
0
0
0
0
0
0
0
0
0
0
0
0
0
0
0
0
0
0
0
0
0
0
0
0
0
0
0
0
0
0
0
0
0
0
0
0
0
0
0
0
0
0
0
0
0
0
0
0
0
0
0
0
0
0
0
0
0
0
0
0
0
0
0
0
0
0
0
0
0
0
0
0
0
0
0
0
0
0
0
0
0
0
0
0
0
0
0
0
0
0
0
0
0
0
0
0
0
0
0
0
0
0
0
0
0
0
0
0
0
0
0
0
0
0
0
0
0
0
0
0
0
0
0
0
0
0
0
0
0
0
0
0
0
0
0
0
0
0
0
0
0
0
0
0
0
0
0
0
0
0
0
0
0
0
0
0
0
0
0
0
0
0
0
0
0
0
0
0
0
0
0
0
0
0
0
0
0
0
0
0
0
0
0
0
0
0
0
0
0
0
0
0
0
0
0
0
0
0
0
0
0
0
0
0
0
0
0
0
0
0
0
0
0
0
0
0
0
0
0
0
0
0
0
0
0
0
0
0
0
0
0
0
0
0
0
0
0
0
0
0
0
0
0
0
0
0
0
0
0
0
0
0
0
0
0
0
0
0
0
0
0
0
0
0
0
0
0
0
0
0
0
0
0
0
0
0
0
0
0
0
0
0
0
0
0
0
0
0
0
0
0
0
0
0
0
0
0
0
0
0
0
0
0
0
0
0
0
0
0
0
0
0
0
0
0
0
0
0
0
0
0
0
0
0
0
0
0
0
0
0
0
0
0
0
0
0
0
0
0
0
0
0
0
0
0
0
0
0
0
0
0
0
0
0
0
0
0
0
0
0
0
0
0
0
0
0
0
0
0
0
0
0
0
0
0
0
0
0
0
0
0
0
0
0
0
0
0
0
0
0
0
0
0
0
0
0
0
0
0
0
0
0
0
0
0
0
0
0
0
0
0
0
0
0
0
0
0
0
0
0
0
0
0
0
0
0
0
0
0
0
0
0
0
0
0
0
0
0
0
0
0
0
0
0
0
0
0
0
0
0
0
0
0
0
0
0
0
0
0
0
0
0
0
0
0
0
0
0
0
0
0
0
0
0
0
0
0
0
0
0
0
0
0
0
0
0
0
0
0
0
0
0
0
0
0
0
0
0
0
0
0
0
0
0
0
0
0
0
0
0
0
0
0
0
0
0
0
0
0
0
0
0
0
0
0
0
0
0
0
0
0
0
0
0
0
0
0
0
0
0
0
0
0
0
0
0
0
0
0
0
0
0
0
0
0
0
0
0
0
0
0
0
0
0
0
0
0
0
0
0
0
0
0
0
0
0
0
0
0
0
0
0
0
0
0
0
0
0
0
0
0
0
0
0
0
0
0
0
0
0
0
0
0
0
0
0
0
0
0
0
0
0
0
0
0
0
0
0
0
0
0
0
0
0
0
0
0
0
0
0
0
0
0
0
0
0
0
0
0
0
0
0
0
0
0
0
0
0
0
0
0
0
0
0
0
0
0
0
0
0
0
0
0
0
0
0
0
0
0
0
0
0
0
0
0
0
0
0
0
0
0
0
0
0
0
0
0
0
0
0
0
0
0
0
0
0
0
0
0
0
0
0
0
0.665614
0
0
0
0
0
0
0
0
0
0
0
0
0
0
0
0
0
0
0
0
0
0
0
0
0.614778
0
0
0
0
0
0
0
0
0
0
0
0
0
0
0
0
0
0
0
0
0
0
0
0
0
0
0
0
0
0
0
0
0
0
0
0
0
0
0
0
0
0
0
0
0
0
0
0
0
0.886094
0
0
0
0
0
0
0
0
0
0
0
0
0
0
0
0
0
0
0
0
0
0
0
0
0.549076
0
0
0
0
0
0
0
0
0
0
0
0
0
0
0
0
0
0
0
0
0
0
0
0
0.8815
0
0
0
0
0
0
0
0
0
0
0
0
0
0
0
0
0
0
0
0
0
0
0
0
0
0
0
0
0
0
0
0
0
0
0
0
0
0
0
0
0
0
0
0
0
0
0
0
0
0
0
0
0
0
0
0
0
0
0
0
0
0
0
0
0
0
0
0
0
0
0
0
0
0
0
0
0
0
0
0
0
0
0
0
0
0
0
0
0
0
0
0
0
0
0
0
0
0
0
0
0
0
0
0
0
0
0
0
0
0
0
0
0
0
0
0
0
0
0
0
0
0
0
0
0
0
0
0
0
0
0
0
0
0
0
0
0
0
0
0
0
0
0
0
0
0
0
0
0
0
0
0
0.910761
0
0.872539
0.87254
0.693343
0.617298
0.6173
0.348504
0.5661
0.297304
0.297306
0.0285098
0.28028
0.280282
0.0114861
0.766928
0.498132
0.498134
0.229338
0
0
0
0
0
0
0
0
0
0
0
0
0
0
0.660391
0.660393
0.391597
0
0
0
0
0.345979
0.345986
0.0771871
0
0.778467
0.778474
0.509675
0.688232
0.436374
0.436375
0.598676
0.481153
0.643453
0.643454
0.77783
0.705169
0.525972
0.86747
0.570751
0.912248
0.733051
0.77783
0.70517
0.525974
0.867472
0.570751
0.912249
0.733053
0.554452
0.554454
0.599231
0.410248
0.320692
0.365469
0.365471
0
0.871698
0.525217
0
0
0
0.980825
0.871703
0
0.525227
0
0
0
0.980834
0.823246
0.644049
0.688828
0.499845
0.589483
0.634263
0.455066
0.823251
0.644054
0.688831
0.499847
0.589491
0.634267
0.455071
0.912845
0.912848
0.778428
0.589444
0.858282
0.723862
0.723865
0.201456
0.1119
0.274116
0.274117
0.318894
0.156678
0.156679
0
0.728315
0.459519
0
0
0.915461
0.677372
0.728316
0
0.459522
0
0.915462
0
0.677374
0.291054
0.380694
0.542911
0.363714
0.425473
0.408492
0.246276
0.291055
0.380696
0.542912
0.363715
0.425474
0.408493
0.246277
0.396815
0.396823
0.128024
0.560256
0.291457
0.291464
0.0226655
0.266085
0.121964
0.121966
0.176529
0.166743
0.221306
0.221308
0.355682
0.390758
0.211561
0.445321
0.25634
0.4901
0.310903
0.355685
0.390763
0.211566
0.445328
0.256342
0.490105
0.310908
0.380653
0.64949
0.632509
0.63251
0.515071
0.515072
0.498091
0.445282
0.480357
0.48036
0.71412
0.34594
0.579699
0.579702
0.128839
0.0562636
0.0562642
0.039283
0.101042
0.0840605
0.0840611
0.559934
0.901431
0.72215
0.604712
0.946209
0.828771
0.783993
0.559936
0.722152
0.901434
0.604714
0.946212
0.828774
0.783996
0.218437
0.325058
0.145862
0.308077
0.19064
0.352855
0.173658
0.218437
0.32506
0.145863
0.308079
0.19064
0.352856
0.17366
0.0674421
0.0674446
0.112221
0.10252
0.0129644
0.057741
0.0577435
0
0.832894
0.576054
0
0
0.739494
0.470695
0.832899
0
0.576064
0
0.739497
0
0.470705
0.569996
0.624559
0.669338
0.893397
0.749276
0.794055
0.848618
0.570003
0.624569
0.669345
0.893407
0.749288
0.794065
0.84863
0.308035
0.414657
0.414658
0.576873
0.280238
0.442454
0.442454
0.336236
0.157039
0.201818
0.192117
0.281756
0.326535
0.147338
0.336241
0.157044
0.201821
0.19212
0.281763
0.32654
0.147343
0.425836
0.425838
0.291418
0.281717
0.550555
0.416135
0.416137
0
0
0
0
0
0
0
0.17991
0.0903539
0.0732872
0.0732879
0.118065
0.135131
0.135132
0
0
0.838406
0
0
0.745339
0.476543
0
0
0.838408
0
0.745339
0
0.476545
0.269508
0.359148
0.342082
0.162885
0.403926
0.207663
0.224729
0.269508
0.35915
0.342083
0.162887
0.403927
0.207664
0.224731
0.683579
0.504297
0.487316
0.728357
0.532094
0.756154
0.711376
0.504299
0.683582
0.487319
0.72836
0.532096
0.756156
0.711379
0.973543
0.973548
0.794348
0.790375
0.521576
0.521583
0.252784
0.13764
0.172801
0.172803
0.0480839
0.21758
0.0928605
0.092863
0.227237
0.441595
0.262398
0.316875
0.307177
0.361654
0.182458
0.227239
0.441599
0.262403
0.316883
0.307179
0.361659
0.182463
0.515474
0.694754
0.739533
0.460994
0.505773
0.729832
0.685053
0.515482
0.694766
0.739543
0.461004
0.505781
0.729842
0.685065
0.359106
0.627944
0.431681
0.431681
0.493525
0.493525
0.297262
0.316836
0.531194
0.531197
0.585674
0.396776
0.451254
0.451257
0.952375
0.593896
0.756112
0.817956
0.621693
0.845753
0.980172
0.952376
0.593897
0.756113
0.817958
0.621694
0.845754
0.980173
0.286574
0.393281
0.393282
0.197019
0.438059
0.241796
0.241797
0
0
0
0
0
0
0
0.605074
0.963553
0.829133
0.729793
0.595373
0.819432
0.953852
0.605079
0.963558
0.82914
0.729796
0.595378
0.819439
0.953857
0.376172
0.662076
0.482879
0.465813
0.527657
0.510591
0.331394
0.376173
0.662077
0.482881
0.465815
0.527658
0.510592
0.331395
0.538387
0.700602
0.521321
0.583165
0.745381
0.807225
0.762447
0.53839
0.521323
0.700606
0.583167
0.745383
0.807227
0.76245
0.297561
0.297564
0.34234
0.511921
0.422366
0.467142
0.467145
0
0
0
0
0
0
0.903216
0
0
0
0
0
0
0.903226
0.620833
0.496114
0.540893
0.764952
0.800112
0.844892
0.720172
0.62084
0.496124
0.5409
0.764961
0.800125
0.844901
0.720185
0.566355
0.387158
0.431937
0.601518
0.691157
0.735936
0.556739
0.56636
0.387163
0.43194
0.601521
0.691164
0.735941
0.556744
0.465771
0.751675
0.751675
0.734609
0.617256
0.600189
0.60019
0.655955
0.655957
0.521537
0.691118
0.959956
0.825536
0.825538
0
0
0
0
0
0
0
0.807183
0.969398
0.61092
0.672764
0.834979
0.896823
0
0.807184
0.9694
0.610921
0.672765
0.834981
0.896825
0
)
;

boundaryField
{
    inlet
    {
        type            calculated;
        value           uniform 0;
    }
    wall
    {
        type            calculated;
        value           uniform 0;
    }
    outlet
    {
        type            calculated;
        value           uniform 0;
    }
    procBoundary0to1
    {
        type            processor;
        value           uniform 0;
    }
    procBoundary0to2
    {
        type            processor;
        value           uniform 0;
    }
}


// ************************************************************************* //
