/*--------------------------------*- C++ -*----------------------------------*\
| =========                 |                                                 |
| \\      /  F ield         | OpenFOAM: The Open Source CFD Toolbox           |
|  \\    /   O peration     | Version:  5.x                                   |
|   \\  /    A nd           | Web:      www.OpenFOAM.org                      |
|    \\/     M anipulation  |                                                 |
\*---------------------------------------------------------------------------*/
FoamFile
{
    version     2.0;
    format      ascii;
    class       volVectorField;
    location    "0.06";
    object      U;
}
// * * * * * * * * * * * * * * * * * * * * * * * * * * * * * * * * * * * * * //

dimensions      [0 1 -1 0 0 0 0];

internalField   nonuniform List<vector> 
1553
(
(-1.33378e-05 -1.33811e-05 0.0121119)
(-1.21046e-05 -1.57432e-05 0.012107)
(-8.04976e-06 -1.62648e-05 0.0121117)
(-8.34226e-06 -1.6984e-05 0.0121065)
(1.8992e-07 -1.71599e-05 0.0121082)
(-1.56999e-05 -1.21458e-05 0.0121069)
(-1.48995e-05 -1.49414e-05 0.0120964)
(-9.25505e-06 -1.57642e-05 0.0120995)
(-9.211e-06 -1.66375e-05 0.0120945)
(-1.93643e-07 -1.69207e-05 0.0120961)
(-1.62223e-05 -8.0874e-06 0.0121117)
(-1.5723e-05 -9.29315e-06 0.0120995)
(-9.7476e-06 -9.78548e-06 0.0121013)
(-9.49958e-06 -1.02751e-05 0.0120962)
(-3.95115e-07 -1.04795e-05 0.0120977)
(-1.69413e-05 -8.37785e-06 0.0121065)
(-1.65958e-05 -9.24771e-06 0.0120945)
(-1.0237e-05 -9.53627e-06 0.0120962)
(-9.90505e-06 -9.94198e-06 0.0120912)
(-5.8326e-07 -1.01031e-05 0.0120928)
(-1.71185e-05 1.5116e-07 0.0121082)
(-1.68806e-05 -2.30971e-07 0.0120961)
(-1.04419e-05 -4.31675e-07 0.0120977)
(-1.00664e-05 -6.19514e-07 0.0120928)
(-7.08011e-07 -7.43657e-07 0.0120943)
(-8.46484e-06 -8.46778e-06 -0.00527191)
(-1.09688e-05 -6.16557e-06 -0.00527344)
(-7.79956e-06 -5.6366e-06 -0.00527499)
(-6.62481e-06 -4.90263e-06 -0.00527557)
(-2.68988e-06 -4.70518e-06 -0.00527633)
(-6.16263e-06 -1.09787e-05 -0.00527343)
(-8.25609e-06 -8.26531e-06 -0.00527352)
(-6.58681e-06 -7.46353e-06 -0.00527473)
(-5.73057e-06 -6.58709e-06 -0.00527505)
(-2.21159e-06 -6.2795e-06 -0.00527574)
(-5.63301e-06 -7.81306e-06 -0.00527499)
(-7.45368e-06 -6.59978e-06 -0.00527474)
(-6.12347e-06 -6.13685e-06 -0.00527572)
(-5.44227e-06 -5.65948e-06 -0.00527596)
(-2.00739e-06 -5.45917e-06 -0.00527658)
(-4.89915e-06 -6.64209e-06 -0.00527556)
(-6.57775e-06 -5.74779e-06 -0.00527505)
(-5.64651e-06 -5.45948e-06 -0.00527595)
(-5.0529e-06 -5.06974e-06 -0.00527614)
(-1.78557e-06 -4.91888e-06 -0.00527674)
(-4.70154e-06 -2.70564e-06 -0.00527633)
(-6.26958e-06 -2.22731e-06 -0.00527574)
(-5.44541e-06 -2.02419e-06 -0.00527658)
(-4.90167e-06 -1.80238e-06 -0.00527675)
(-1.67345e-06 -1.69111e-06 -0.00527733)
(-1.53714e-05 -1.54074e-05 0.00872068)
(-1.5688e-05 -1.62222e-05 0.00871222)
(-1.05156e-05 -1.63782e-05 0.0087128)
(-9.94804e-06 -1.68264e-05 0.00870703)
(-6.15657e-07 -1.69299e-05 0.00870743)
(-1.61862e-05 -1.57258e-05 0.00871221)
(-1.66283e-05 -1.66663e-05 0.00870211)
(-1.11021e-05 -1.68881e-05 0.00870231)
(-1.04841e-05 -1.74171e-05 0.00869611)
(-8.62982e-07 -1.75642e-05 0.00869639)
(-1.63423e-05 -1.05532e-05 0.00871279)
(-1.68503e-05 -1.11398e-05 0.00870232)
(-1.1267e-05 -1.13045e-05 0.00870229)
(-1.06246e-05 -1.16627e-05 0.00869597)
(-9.59983e-07 -1.17838e-05 0.00869618)
(-1.67905e-05 -9.98586e-06 0.00870701)
(-1.73791e-05 -1.05224e-05 0.0086961)
(-1.1625e-05 -1.06629e-05 0.00869596)
(-1.09634e-05 -1.10018e-05 0.00868948)
(-1.1327e-06 -1.11169e-05 0.00868965)
(-1.68945e-05 -6.54088e-07 0.00870741)
(-1.75269e-05 -9.01005e-07 0.00869639)
(-1.17464e-05 -9.97861e-07 0.00869617)
(-1.10786e-05 -1.1706e-06 0.00868965)
(-1.2249e-06 -1.26265e-06 0.00868977)
(-1.72027e-05 -1.72199e-05 -0.00217254)
(-1.88578e-05 -1.66162e-05 -0.00218123)
(-1.29891e-05 -1.64841e-05 -0.00218253)
(-1.19975e-05 -1.62043e-05 -0.00218801)
(-2.34476e-06 -1.61264e-05 -0.00218867)
(-1.65991e-05 -1.88787e-05 -0.00218123)
(-1.8153e-05 -1.81737e-05 -0.00218974)
(-1.25947e-05 -1.79818e-05 -0.002191)
(-1.16554e-05 -1.76552e-05 -0.00219646)
(-2.08658e-06 -1.75397e-05 -0.00219711)
(-1.64667e-05 -1.30114e-05 -0.00218253)
(-1.79609e-05 -1.26168e-05 -0.002191)
(-1.24713e-05 -1.24936e-05 -0.00219222)
(-1.1556e-05 -1.2284e-05 -0.00219767)
(-2.01099e-06 -1.22048e-05 -0.0021983)
(-1.6187e-05 -1.20219e-05 -0.00218801)
(-1.76345e-05 -1.16798e-05 -0.00219646)
(-1.22619e-05 -1.15805e-05 -0.00219767)
(-1.13666e-05 -1.13909e-05 -0.00220314)
(-1.85568e-06 -1.13216e-05 -0.00220377)
(-1.61089e-05 -2.36831e-06 -0.00218867)
(-1.75187e-05 -2.11023e-06 -0.00219711)
(-1.21824e-05 -2.03503e-06 -0.0021983)
(-1.12971e-05 -1.87974e-06 -0.00220377)
(-1.81186e-06 -1.83632e-06 -0.00220438)
(-2.44298e-05 -2.44657e-05 0.00628938)
(-2.56744e-05 -2.5109e-05 0.00627385)
(-1.72987e-05 -2.52258e-05 0.00627265)
(-1.60942e-05 -2.56502e-05 0.0062627)
(-1.37093e-06 -2.57398e-05 0.00626226)
(-2.50732e-05 -2.57131e-05 0.00627383)
(-2.64108e-05 -2.64495e-05 0.00625742)
(-1.78235e-05 -2.65971e-05 0.00625606)
(-1.6593e-05 -2.70937e-05 0.00624564)
(-1.56116e-06 -2.72098e-05 0.00624511)
(-2.519e-05 -1.73378e-05 0.00627264)
(-2.65584e-05 -1.78626e-05 0.00625606)
(-1.7943e-05 -1.79821e-05 0.00625463)
(-1.6707e-05 -1.83498e-05 0.00624412)
(-1.63045e-06 -1.84525e-05 0.00624355)
(-2.56144e-05 -1.61342e-05 0.00626268)
(-2.70551e-05 -1.66332e-05 0.00624563)
(-1.83107e-05 -1.67473e-05 0.00624411)
(-1.70634e-05 -1.71037e-05 0.00623334)
(-1.78998e-06 -1.72033e-05 0.0062327)
(-2.57041e-05 -1.41055e-06 0.00626224)
(-2.71715e-05 -1.60078e-06 0.0062451)
(-1.84135e-05 -1.67011e-06 0.00624354)
(-1.7163e-05 -1.82973e-06 0.0062327)
(-1.87694e-06 -1.9167e-06 0.00623204)
(-3.333e-05 -3.33584e-05 -0.000201298)
(-3.5595e-05 -3.3662e-05 -0.000221113)
(-2.41352e-05 -3.37059e-05 -0.000223419)
(-2.23857e-05 -3.39023e-05 -0.000235999)
(-2.71501e-06 -3.39256e-05 -0.000237097)
(-3.36337e-05 -3.56259e-05 -0.000221117)
(-3.59315e-05 -3.59624e-05 -0.000241392)
(-2.43684e-05 -3.60036e-05 -0.000243792)
(-2.25996e-05 -3.62286e-05 -0.000256694)
(-2.65217e-06 -3.62506e-05 -0.000257848)
(-3.36775e-05 -2.41667e-05 -0.000223424)
(-3.59726e-05 -2.43998e-05 -0.000243793)
(-2.44016e-05 -2.44332e-05 -0.000246206)
(-2.26329e-05 -2.45853e-05 -0.000259172)
(-2.6497e-06 -2.46078e-05 -0.000260335)
(-3.38739e-05 -2.24185e-05 -0.000236008)
(-3.61979e-05 -2.26323e-05 -0.000256698)
(-2.45539e-05 -2.26658e-05 -0.000259177)
(-2.27743e-05 -2.2807e-05 -0.000272363)
(-2.6176e-06 -2.28258e-05 -0.000273565)
(-3.38971e-05 -2.74632e-06 -0.000237107)
(-3.62198e-05 -2.68369e-06 -0.000257853)
(-2.45762e-05 -2.68154e-06 -0.000260339)
(-2.27929e-05 -2.64954e-06 -0.000273565)
(-2.6404e-06 -2.67266e-06 -0.000274769)
(-4.50583e-05 -4.50991e-05 0.0047377)
(-4.78033e-05 -4.623e-05 0.00470751)
(-3.21889e-05 -4.64443e-05 0.00470425)
(-2.9777e-05 -4.72022e-05 0.00468509)
(-2.56446e-06 -4.73492e-05 0.00468361)
(-4.61892e-05 -4.78468e-05 0.0047075)
(-4.91044e-05 -4.91479e-05 0.0046762)
(-3.31294e-05 -4.94036e-05 0.00467272)
(-3.06529e-05 -5.02865e-05 0.00465286)
(-2.80634e-06 -5.04664e-05 0.00465125)
(-4.64035e-05 -3.22325e-05 0.00470423)
(-4.936e-05 -3.3173e-05 0.00467272)
(-3.33271e-05 -3.33708e-05 0.00466919)
(-3.08395e-05 -3.40233e-05 0.00464918)
(-2.88869e-06 -3.4174e-05 0.00464753)
(-4.71614e-05 -2.98212e-05 0.00468507)
(-5.02431e-05 -3.06972e-05 0.00465285)
(-3.39796e-05 -3.0884e-05 0.00464917)
(-3.14561e-05 -3.15005e-05 0.00462871)
(-3.09937e-06 -3.16413e-05 0.00462695)
(-4.73084e-05 -2.60736e-06 0.00468359)
(-5.04231e-05 -2.84946e-06 0.00465124)
(-3.41304e-05 -2.93205e-06 0.00464752)
(-3.15968e-05 -3.14284e-06 0.00462695)
(-3.21139e-06 -3.25497e-06 0.00462517)
(-6.47224e-05 -6.47619e-05 0.0010328)
(-6.90708e-05 -6.62063e-05 0.000992863)
(-4.65515e-05 -6.64731e-05 0.000987996)
(-4.3014e-05 -6.73992e-05 0.000962641)
(-4.09151e-06 -6.75665e-05 0.000960306)
(-6.61669e-05 -6.91127e-05 0.000992855)
(-7.07199e-05 -7.07615e-05 0.000951413)
(-4.7701e-05 -7.10724e-05 0.000946203)
(-4.40689e-05 -7.21435e-05 0.000919854)
(-4.24989e-06 -7.23457e-05 0.000917317)
(-6.64335e-05 -4.65927e-05 0.000987987)
(-7.10306e-05 -4.77422e-05 0.000946202)
(-4.79328e-05 -4.79743e-05 0.000940918)
(-4.42867e-05 -4.87324e-05 0.000914348)
(-4.31535e-06 -4.88974e-05 0.000911762)
(-6.73598e-05 -4.30558e-05 0.000962625)
(-7.21021e-05 -4.41106e-05 0.000919847)
(-4.86912e-05 -4.43287e-05 0.000914341)
(-4.49919e-05 -4.50336e-05 0.000887115)
(-4.45499e-06 -4.51867e-05 0.0008844)
(-6.75268e-05 -4.13054e-06 0.000960289)
(-7.2304e-05 -4.28936e-06 0.00091731)
(-4.88558e-05 -4.35532e-06 0.000911755)
(-4.51447e-05 -4.49512e-06 0.0008844)
(-4.55321e-06 -4.59379e-06 0.000881648)
(-8.66372e-05 -8.6687e-05 0.00381205)
(-9.2631e-05 -8.93856e-05 0.00375289)
(-6.24154e-05 -8.99556e-05 0.00374564)
(-5.74708e-05 -9.17423e-05 0.00370816)
(-4.93538e-06 -9.2098e-05 0.00370468)
(-8.93359e-05 -9.26839e-05 0.00375288)
(-9.5789e-05 -9.58415e-05 0.00369137)
(-6.46931e-05 -9.65145e-05 0.00368357)
(-5.95426e-05 -9.8613e-05 0.00364458)
(-5.41451e-06 -9.9045e-05 0.00364074)
(-8.99054e-05 -6.24664e-05 0.00374562)
(-9.64615e-05 -6.47441e-05 0.00368357)
(-6.51858e-05 -6.52374e-05 0.00367562)
(-6.00004e-05 -6.67669e-05 0.00363625)
(-5.56209e-06 -6.70966e-05 0.00363231)
(-9.16925e-05 -5.75225e-05 0.00370814)
(-9.85609e-05 -5.95937e-05 0.00364457)
(-6.67159e-05 -6.00519e-05 0.00363624)
(-6.14018e-05 -6.14528e-05 0.00359586)
(-5.9485e-06 -6.1759e-05 0.00359164)
(-9.20471e-05 -4.98235e-06 0.00370465)
(-9.89918e-05 -5.46268e-06 0.00364073)
(-6.7045e-05 -5.61094e-06 0.0036323)
(-6.17075e-05 -5.99761e-06 0.00359164)
(-6.12621e-06 -6.17575e-06 0.00358732)
(-0.000126266 -0.000126318 0.0017688)
(-0.000135524 -0.000130188 0.00169031)
(-9.12731e-05 -0.00013103 0.00167951)
(-8.39688e-05 -0.000133529 0.00162967)
(-7.42386e-06 -0.000134064 0.00162432)
(-0.000130136 -0.00013558 0.0016903)
(-0.000140058 -0.000140114 0.00160784)
(-9.44888e-05 -0.000141123 0.00159598)
(-8.68912e-05 -0.000144083 0.00154354)
(-8.01857e-06 -0.000144747 0.00153757)
(-0.000130978 -9.13253e-05 0.0016795)
(-0.000141067 -9.45411e-05 0.00159598)
(-9.52404e-05 -9.52935e-05 0.00158386)
(-8.75912e-05 -9.74403e-05 0.00153074)
(-8.21872e-06 -9.79898e-05 0.00152457)
(-0.000133477 -8.40216e-05 0.00162965)
(-0.000144029 -8.69436e-05 0.00154353)
(-9.73879e-05 -8.76442e-05 0.00153073)
(-8.95875e-05 -8.96395e-05 0.00147593)
(-8.71571e-06 -9.01697e-05 0.00146941)
(-0.000134011 -7.47127e-06 0.00162429)
(-0.000144691 -8.06678e-06 0.00153755)
(-9.79362e-05 -8.26799e-06 0.00152456)
(-9.01167e-05 -8.76524e-06 0.00146941)
(-8.9461e-06 -8.99665e-06 0.00146276)
(-0.000168362 -0.000168424 0.00331735)
(-0.000181967 -0.000175246 0.00320166)
(-0.00012306 -0.00017691 0.00318567)
(-0.000112672 -0.000181391 0.00311245)
(-1.02416e-05 -0.000182388 0.00310446)
(-0.000175183 -0.000182036 0.00320165)
(-0.000190166 -0.000190233 0.00308035)
(-0.000128997 -0.000192233 0.00306262)
(-0.000117967 -0.000197612 0.00298575)
(-1.14005e-05 -0.000198858 0.00297662)
(-0.000176846 -0.000123121 0.00318565)
(-0.000192165 -0.000129058 0.00306261)
(-0.000130436 -0.000130499 0.0030444)
(-0.000119294 -0.000134385 0.0029664)
(-1.17657e-05 -0.000135254 0.00295692)
(-0.000181328 -0.000112738 0.00311242)
(-0.000197546 -0.000118028 0.00298574)
(-0.000134324 -0.000119357 0.00296639)
(-0.000122722 -0.000122782 0.00288589)
(-1.25792e-05 -0.000123572 0.00287541)
(-0.00018232 -1.02917e-05 0.00310442)
(-0.000198787 -1.14554e-05 0.00297659)
(-0.000135189 -1.18221e-05 0.0029569)
(-0.000123509 -1.26363e-05 0.00287541)
(-1.29231e-05 -1.29818e-05 0.0028646)
(-0.000246651 -0.000246719 0.00219958)
(-0.00026728 -0.00025642 0.00204636)
(-0.000180486 -0.000259072 0.00202143)
(-0.00016518 -0.000265358 0.001924)
(-1.51779e-05 -0.000267075 0.00191093)
(-0.000256352 -0.000267358 0.00204634)
(-0.000279159 -0.000279235 0.00188308)
(-0.000189085 -0.000282465 0.00185482)
(-0.000172883 -0.000290202 0.00175088)
(-1.69996e-05 -0.000292351 0.00173595)
(-0.000259003 -0.000180552 0.0020214)
(-0.000282388 -0.000189151 0.00185481)
(-0.000191447 -0.000191515 0.00182545)
(-0.000175061 -0.000197295 0.00171915)
(-1.7574e-05 -0.000199191 0.00170333)
(-0.00026529 -0.000165252 0.00192397)
(-0.000290127 -0.000172955 0.00175086)
(-0.000197229 -0.000175134 0.00171914)
(-0.000180558 -0.000180624 0.00160868)
(-1.91613e-05 -0.000182486 0.00159203)
(-0.000267006 -1.52323e-05 0.00191089)
(-0.000292275 -1.70549e-05 0.00173592)
(-0.000199116 -1.7632e-05 0.00170331)
(-0.000182413 -1.92233e-05 0.00159202)
(-1.97623e-05 -1.98266e-05 0.0015748)
(-0.00032792 -0.000328002 0.00312126)
(-0.000360221 -0.000345242 0.00289659)
(-0.000245425 -0.000350349 0.00286065)
(-0.000223175 -0.000361584 0.0027187)
(-2.30728e-05 -0.0003645 0.00269989)
(-0.00034516 -0.000360315 0.00289656)
(-0.000381812 -0.000381904 0.00265799)
(-0.00026121 -0.000388332 0.00261636)
(-0.00023684 -0.000402587 0.00246522)
(-2.62238e-05 -0.000406581 0.00244259)
(-0.000350266 -0.000245503 0.00286062)
(-0.000388238 -0.000261287 0.00261635)
(-0.000266099 -0.00026618 0.00257324)
(-0.000241418 -0.000276586 0.00241907)
(-2.75145e-05 -0.000279184 0.0023955)
(-0.000361502 -0.000223259 0.00271865)
(-0.000402497 -0.000236923 0.0024652)
(-0.000276509 -0.000241505 0.00241906)
(-0.000249844 -0.000249922 0.00225862)
(-2.92573e-05 -0.000252112 0.00223093)
(-0.000364416 -2.31321e-05 0.00269983)
(-0.00040649 -2.62852e-05 0.00244255)
(-0.000279099 -2.75789e-05 0.00239547)
(-0.000252025 -2.93242e-05 0.0022309)
(-3.02416e-05 -3.03183e-05 0.00220195)
(-0.000480572 -0.000480663 0.00247649)
(-0.000528039 -0.000504843 0.0021788)
(-0.000358358 -0.000513383 0.00211963)
(-0.000325932 -0.000529255 0.00192943)
(-3.34431e-05 -0.00053492 0.0018959)
(-0.000504752 -0.000528152 0.00217877)
(-0.000559499 -0.000559611 0.00185697)
(-0.00038184 -0.000570018 0.00178672)
(-0.000346647 -0.00058998 0.0015814)
(-3.92756e-05 -0.000596894 0.0015423)
(-0.00051329 -0.00035845 0.00211959)
(-0.000569905 -0.00038193 0.0017867)
(-0.000388712 -0.000388804 0.00171233)
(-0.000352794 -0.00040388 0.00149739)
(-4.08719e-05 -0.000410844 0.00145353)
(-0.000529163 -0.000326031 0.00192937)
(-0.000589869 -0.000346747 0.00158137)
(-0.000403789 -0.000352896 0.00149738)
(-0.000368688 -0.000368787 0.00127106)
(-4.67378e-05 -0.000376028 0.00122646)
(-0.000534826 -3.35096e-05 0.00189582)
(-0.000596782 -3.9346e-05 0.00154225)
(-0.000410752 -4.09472e-05 0.00145349)
(-0.000375926 -4.68133e-05 0.00122644)
(-4.87005e-05 -4.87896e-05 0.00117996)
(-0.000637926 -0.000638035 0.00316965)
(-0.00071727 -0.000680356 0.00273841)
(-0.000494799 -0.000696898 0.0026548)
(-0.000446915 -0.000723839 0.00238235)
(-5.59042e-05 -0.000732547 0.00233613)
(-0.000680247 -0.000717411 0.00273837)
(-0.000774099 -0.000774235 0.00227185)
(-0.000536783 -0.000795879 0.00216981)
(-0.000481267 -0.000834867 0.00187317)
(-6.48604e-05 -0.000849209 0.0018133)
(-0.000696784 -0.000494908 0.00265473)
(-0.000795739 -0.00053689 0.00216978)
(-0.000555407 -0.000555519 0.002062)
(-0.000500226 -0.000586923 0.00175982)
(-7.09655e-05 -0.000595024 0.00169969)
(-0.000723728 -0.000447034 0.00238226)
(-0.000834735 -0.000481385 0.00187313)
(-0.000586817 -0.000500349 0.0017598)
(-0.000520774 -0.000520888 0.00145042)
(-7.36066e-05 -0.000525683 0.0013762)
(-0.000732432 -5.59753e-05 0.00233601)
(-0.000849073 -6.49371e-05 0.00181322)
(-0.000594908 -7.10486e-05 0.00169963)
(-0.000525559 -7.36912e-05 0.00137615)
(-7.66564e-05 -7.67579e-05 0.00129736)
(-0.000929845 -0.000929975 0.00272183)
(-0.0010432 -0.000990956 0.00214843)
(-0.000714394 -0.0010186 0.00200447)
(-0.000644586 -0.00105966 0.0016326)
(-7.84043e-05 -0.00107941 0.00154538)
(-0.000990826 -0.00104338 0.00214839)
(-0.00112836 -0.00112854 0.00151967)
(-0.000780485 -0.00116313 0.00133683)
(-0.000703153 -0.00121284 0.000931586)
(-9.82847e-05 -0.00123368 0.000828231)
(-0.00101847 -0.00071453 0.00200437)
(-0.00116294 -0.000780619 0.00133679)
(-0.000798646 -0.000798784 0.00114245)
(-0.0007151 -0.000826611 0.000706078)
(-0.000100256 -0.00084792 0.000576406)
(-0.00105953 -0.000644739 0.00163249)
(-0.00121267 -0.000703304 0.00093153)
(-0.000826477 -0.000715258 0.000706057)
(-0.000752294 -0.000752453 0.000221655)
(-0.000120574 -0.000778357 7.85894e-05)
(-0.00107927 -7.84904e-05 0.00154521)
(-0.0012335 -9.83792e-05 0.000828108)
(-0.000847791 -0.000100359 0.000576319)
(-0.000778199 -0.000120684 7.85318e-05)
(-0.000127297 -0.000127413 -7.93018e-05)
(-0.00123517 -0.00123532 0.00351972)
(-0.00143502 -0.00133526 0.00270152)
(-0.00101061 -0.00139188 0.00249239)
(-0.000906018 -0.00145367 0.001962)
(-0.000141611 -0.00147925 0.00183419)
(-0.0013351 -0.00143525 0.00270145)
(-0.00158612 -0.00158635 0.00180244)
(-0.00112485 -0.00165839 0.00153803)
(-0.00098988 -0.0017619 0.00094998)
(-0.0001671 -0.00181872 0.000780798)
(-0.00139171 -0.00101078 0.00249225)
(-0.00165816 -0.00112501 0.00153796)
(-0.00118609 -0.00118627 0.00124552)
(-0.00106629 -0.00129683 0.000600278)
(-0.000199771 -0.00134464 0.000410178)
(-0.00145351 -0.000906212 0.00196184)
(-0.00176169 -0.000990077 0.000949888)
(-0.00129666 -0.0010665 0.000600246)
(-0.00114826 -0.00114845 -6.85385e-05)
(-0.000216136 -0.00118142 -0.000284198)
(-0.00147908 -0.000141705 0.00183391)
(-0.0018185 -0.000167215 0.00078061)
(-0.00134446 -0.000199892 0.000410048)
(-0.0011812 -0.00021626 -0.000284278)
(-0.000234225 -0.000234366 -0.000519461)
(-0.00178272 -0.00178292 0.00313269)
(-0.00207113 -0.00192831 0.00205982)
(-0.00145383 -0.00201351 0.001697)
(-0.00130276 -0.00211447 0.000965557)
(-0.000203903 -0.00217697 0.000745288)
(-0.00192812 -0.00207146 0.00205975)
(-0.0022924 -0.00229271 0.000877193)
(-0.00163285 -0.00241066 0.000396994)
(-0.00146038 -0.00257527 -0.000411075)
(-0.000266031 -0.00265845 -0.000723706)
(-0.0020133 -0.00145407 0.0016968)
(-0.00241033 -0.00163308 0.000396891)
(-0.00173624 -0.00173648 -0.000179123)
(-0.00155045 -0.00184505 -0.00105019)
(-0.000288834 -0.00191284 -0.0014267)
(-0.00211427 -0.00130305 0.000965354)
(-0.00257497 -0.00146065 -0.000411192)
(-0.00184482 -0.00155073 -0.00105022)
(-0.00163677 -0.00163704 -0.00195623)
(-0.000335422 -0.00170804 -0.00241145)
(-0.00217674 -0.000204033 0.00074495)
(-0.00265812 -0.000266169 -0.000723944)
(-0.00191261 -0.000288993 -0.00142687)
(-0.00170775 -0.000335591 -0.00241158)
(-0.000361786 -0.000361973 -0.00293755)
(-0.00235305 -0.00235328 0.00449391)
(-0.00287148 -0.00256817 0.00297294)
(-0.00210479 -0.00274603 0.00249749)
(-0.00185778 -0.00288795 0.0014845)
(-0.000359156 -0.00300833 0.00114933)
(-0.00256794 -0.00287191 0.00297281)
(-0.00324982 -0.00325022 0.0013407)
(-0.00241303 -0.00353557 0.000644599)
(-0.00211066 -0.00377882 -0.000479293)
(-0.000477668 -0.00399194 -0.000940457)
(-0.00274576 -0.00210509 0.0024972)
(-0.00353514 -0.00241331 0.000644449)
(-0.00263311 -0.00263342 -0.000180546)
(-0.00231398 -0.00284193 -0.00145799)
(-0.000574271 -0.00303233 -0.00204533)
(-0.00288769 -0.00185812 0.00148417)
(-0.00377843 -0.00211099 -0.000479473)
(-0.00284165 -0.00231435 -0.00145806)
(-0.00250959 -0.00250994 -0.00285306)
(-0.000669993 -0.00269237 -0.00357023)
(-0.00300806 -0.00035928 0.00114866)
(-0.00399154 -0.000477834 -0.000940873)
(-0.00303204 -0.000574462 -0.00204563)
(-0.002692 -0.000670198 -0.00357042)
(-0.000758984 -0.000759207 -0.0043963)
(-0.0033698 -0.00337013 0.00434504)
(-0.00406877 -0.00363312 0.00224968)
(-0.00294204 -0.00394647 0.00132003)
(-0.0026509 -0.0041633 -0.000126574)
(-0.000534455 -0.00435642 -0.000775572)
(-0.00363279 -0.0040694 0.00224947)
(-0.00462186 -0.00462245 3.61094e-05)
(-0.00345261 -0.00509014 -0.0011969)
(-0.00304545 -0.00551936 -0.00274993)
(-0.000725013 -0.00585481 -0.00366251)
(-0.0039461 -0.00294247 0.00131956)
(-0.00508952 -0.00345301 -0.00119709)
(-0.00383847 -0.00383892 -0.00277217)
(-0.0034153 -0.00421862 -0.00465554)
(-0.000873909 -0.00454244 -0.00591696)
(-0.00416294 -0.00265156 -0.000127111)
(-0.00551879 -0.00304599 -0.0027502)
(-0.00421821 -0.00341589 -0.00465564)
(-0.00374901 -0.00374953 -0.00666378)
(-0.00105269 -0.00405909 -0.00822842)
(-0.00435592 -0.000534715 -0.000776409)
(-0.00585411 -0.000725256 -0.00366305)
(-0.00454197 -0.000874183 -0.00591736)
(-0.00405851 -0.00105298 -0.00822867)
(-0.00118765 -0.00118796 -0.0101998)
(-0.00453473 -0.00453517 0.0067481)
(-0.00589808 -0.00487842 0.00410584)
(-0.00448081 -0.00537025 0.00292025)
(-0.00395357 -0.00562715 0.00107226)
(-0.00100317 -0.00601989 0.000220372)
(-0.00487797 -0.00589898 0.00410557)
(-0.00669807 -0.00669887 0.0011227)
(-0.0051988 -0.00763005 -0.000590921)
(-0.00457635 -0.00831019 -0.00275052)
(-0.0013864 -0.00913593 -0.00411026)
(-0.0053697 -0.00448144 0.00291953)
(-0.00762915 -0.00519935 -0.000591206)
(-0.00609137 -0.00609198 -0.00287827)
(-0.00545896 -0.0067556 -0.00557646)
(-0.00183102 -0.00759819 -0.00747107)
(-0.00562662 -0.00395428 0.00107166)
(-0.00830937 -0.00457704 -0.00275085)
(-0.00675505 -0.00545973 -0.00557658)
(-0.00608257 -0.00608328 -0.00854952)
(-0.00223181 -0.0069756 -0.0110628)
(-0.00601932 -0.0010034 0.000219148)
(-0.0091351 -0.00138671 -0.004111)
(-0.0075976 -0.00183137 -0.00747165)
(-0.00697483 -0.00223219 -0.0110631)
(-0.00272603 -0.00272644 -0.0142121)
(-0.00613367 -0.00613428 0.00716281)
(-0.00789914 -0.00675574 0.00367149)
(-0.00597504 -0.00761781 0.0015583)
(-0.00535073 -0.00816131 -0.00112929)
(-0.00137845 -0.0088806 -0.00278238)
(-0.00675513 -0.00790048 0.00367106)
(-0.00932075 -0.00932189 -0.000265179)
(-0.00732513 -0.0108917 -0.00336641)
(-0.00656463 -0.0121713 -0.00637349)
(-0.00208244 -0.0135499 -0.00905808)
(-0.007617 -0.0059758 0.00155734)
(-0.0108903 -0.00732586 -0.00336674)
(-0.00882308 -0.00882394 -0.00783112)
(-0.00800804 -0.0100171 -0.0119821)
(-0.00276569 -0.0114948 -0.0162988)
(-0.00816067 -0.0053519 -0.00113035)
(-0.0121702 -0.00656562 -0.006374)
(-0.0100164 -0.00800921 -0.0119824)
(-0.00923515 -0.0092361 -0.0165756)
(-0.00356889 -0.0108003 -0.0223401)
(-0.0088796 -0.00137894 -0.00278425)
(-0.0135485 -0.00208286 -0.00905907)
(-0.0114939 -0.00276617 -0.0162997)
(-0.0107992 -0.00356934 -0.0223405)
(-0.00433984 -0.00434037 -0.0307173)
(-0.00817824 -0.00817913 0.0118619)
(-0.0115054 -0.00899631 0.00759334)
(-0.00928087 -0.0105116 0.00504671)
(-0.00829459 -0.011111 0.00170811)
(-0.00264777 -0.0125695 -0.000447214)
(-0.00899542 -0.0115073 0.00759278)
(-0.0137386 -0.0137402 0.00277881)
(-0.0113063 -0.0170238 -0.00138567)
(-0.0102678 -0.0191675 -0.00523259)
(-0.00406569 -0.0226578 -0.00933155)
(-0.0105104 -0.00928212 0.00504534)
(-0.0170219 -0.0113073 -0.00138608)
(-0.0147066 -0.0147078 -0.00756123)
(-0.013927 -0.0169584 -0.013465)
(-0.00613967 -0.0208827 -0.0201618)
(-0.0111099 -0.0082962 0.00170679)
(-0.0191659 -0.0102692 -0.00523314)
(-0.0169573 -0.0139287 -0.0134653)
(-0.0164407 -0.0164421 -0.0199711)
(-0.00799736 -0.0213961 -0.0300223)
(-0.012568 -0.00264838 -0.000449723)
(-0.0226561 -0.00406631 -0.00933271)
(-0.0208815 -0.00614039 -0.0201629)
(-0.0213944 -0.00799808 -0.0300227)
(-0.0110978 -0.0110985 -0.0443139)
(-0.0106142 -0.0106153 0.0137078)
(-0.014719 -0.0118203 0.0085314)
(-0.0118589 -0.0143671 0.00446649)
(-0.0108444 -0.0154553 0.000140321)
(-0.00352366 -0.0181858 -0.00385372)
(-0.0118191 -0.0147217 0.00853031)
(-0.018303 -0.0183051 0.00273142)
(-0.0153353 -0.0235046 -0.00419751)
(-0.0145089 -0.0273484 -0.00945657)
(-0.00618357 -0.0332681 -0.0168907)
(-0.0143653 -0.0118604 0.00446432)
(-0.0235019 -0.0153366 -0.0041978)
(-0.020901 -0.0209025 -0.0153016)
(-0.0206058 -0.0247564 -0.0245165)
(-0.00946693 -0.0321899 -0.0386024)
(-0.0154539 -0.0108467 0.000137891)
(-0.0273464 -0.0145107 -0.00945743)
(-0.0247551 -0.0206081 -0.0245176)
(-0.0257867 -0.0257884 -0.035614)
(-0.013642 -0.0349421 -0.0572807)
(-0.0181834 -0.00352444 -0.00385806)
(-0.0332654 -0.00618422 -0.016892)
(-0.0321882 -0.00946766 -0.0386051)
(-0.0349398 -0.0136425 -0.0572808)
(-0.0186829 -0.0186834 -0.0955362)
(-0.0136034 -0.0136054 0.0226064)
(-0.0207499 -0.0150987 0.0169649)
(-0.0176699 -0.0195905 0.0124294)
(-0.016614 -0.0211836 0.00715725)
(-0.00663152 -0.0262079 0.00192207)
(-0.0150967 -0.0207539 0.0169639)
(-0.0264693 -0.0264722 0.0109922)
(-0.0234955 -0.0367982 0.00230393)
(-0.0229597 -0.043829 -0.00336359)
(-0.0115065 -0.0574158 -0.01519)
(-0.0195874 -0.0176725 0.0124269)
(-0.0367942 -0.0234974 0.00230351)
(-0.0350313 -0.0350339 -0.0129878)
(-0.0372249 -0.04313 -0.0258428)
(-0.020239 -0.0613065 -0.0498257)
(-0.0211809 -0.0166178 0.00715509)
(-0.0438261 -0.022962 -0.00336448)
(-0.0431281 -0.0372294 -0.0258435)
(-0.0491889 -0.0491915 -0.0393057)
(-0.0297573 -0.0783354 -0.0826943)
(-0.0262033 -0.00663279 0.00191747)
(-0.0574124 -0.0115075 -0.0151912)
(-0.0613042 -0.0202404 -0.0498281)
(-0.0783309 -0.0297584 -0.0826947)
(-0.0495291 -0.0495293 -0.15614)
(-0.0165781 -0.0165803 0.0277481)
(-0.0249017 -0.0181724 0.0226668)
(-0.0216637 -0.0250589 0.0174144)
(-0.0213501 -0.0266362 0.0116646)
(-0.00875473 -0.0361986 0.00495844)
(-0.0181702 -0.0249069 0.0226647)
(-0.0329644 -0.032968 0.0169398)
(-0.0296964 -0.048925 0.00607774)
(-0.0319907 -0.0603395 -0.00126707)
(-0.018028 -0.0849826 -0.0179921)
(-0.0250551 -0.0216664 0.0174102)
(-0.0489199 -0.0296986 0.0060782)
(-0.0490539 -0.0490567 -0.014198)
(-0.057394 -0.0607194 -0.0338465)
(-0.0335296 -0.0997299 -0.0733479)
(-0.0266334 -0.0213545 0.0116599)
(-0.060336 -0.0319933 -0.00126836)
(-0.0607172 -0.0573987 -0.0338495)
(-0.0825198 -0.0825227 -0.0621019)
(-0.0573507 -0.140803 -0.144695)
(-0.0361928 -0.00875621 0.00494854)
(-0.0849776 -0.0180288 -0.0179914)
(-0.0997275 -0.0335309 -0.0733579)
(-0.140798 -0.0573513 -0.144694)
(-0.0934887 -0.0934893 -0.34566)
(-0.0190078 -0.019012 0.0425714)
(-0.0310819 -0.0212213 0.038829)
(-0.0286691 -0.031577 0.0348027)
(-0.029061 -0.0349164 0.0297403)
(-0.0133495 -0.0503973 0.0212668)
(-0.0212171 -0.0310901 0.0388274)
(-0.0430546 -0.0430592 0.0360291)
(-0.0417224 -0.0684073 0.025729)
(-0.0469994 -0.0893297 0.0217608)
(-0.0283453 -0.135668 -0.000990146)
(-0.0315692 -0.0286742 0.0347989)
(-0.0683991 -0.0417256 0.0257293)
(-0.074999 -0.0750042 0.00149755)
(-0.0962566 -0.104048 -0.0212355)
(-0.0601906 -0.188148 -0.0927713)
(-0.0349102 -0.0290705 0.0297367)
(-0.0893251 -0.0470015 0.0217597)
(-0.104045 -0.096271 -0.0212376)
(-0.15991 -0.159914 -0.0408385)
(-0.11516 -0.35305 -0.233516)
(-0.050382 -0.0133524 0.021259)
(-0.135664 -0.0283465 -0.000987526)
(-0.188145 -0.0601935 -0.0927797)
(-0.353035 -0.11516 -0.233517)
(-0.266409 -0.266392 -0.646342)
(-0.0206572 -0.0206612 0.0522813)
(-0.032674 -0.0213732 0.0524563)
(-0.0307599 -0.0348875 0.0534661)
(-0.0348716 -0.0355387 0.0512348)
(-0.017266 -0.060141 0.0507324)
(-0.0213693 -0.032683 0.0524534)
(-0.0460619 -0.0460668 0.0543946)
(-0.0439833 -0.0822155 0.0510634)
(-0.0585852 -0.11125 0.0525251)
(-0.0410426 -0.198662 0.0428949)
(-0.0348794 -0.0307645 0.0534601)
(-0.0822065 -0.0439865 0.0510663)
(-0.0960553 -0.0960598 0.0439177)
(-0.151286 -0.122566 0.0251634)
(-0.106946 -0.295845 -0.00817385)
(-0.0355334 -0.0348801 0.0512289)
(-0.111245 -0.0585854 0.0525247)
(-0.122562 -0.151299 0.025159)
(-0.295887 -0.295899 -0.0308669)
(-0.25206 -0.569647 -0.17333)
(-0.0601244 -0.0172692 0.0507142)
(-0.198657 -0.0410425 0.0429109)
(-0.295809 -0.10695 -0.0082186)
(-0.569647 -0.252049 -0.173346)
(-0.689685 -0.689686 -0.863228)
(-0.0190026 -0.0190099 0.070516)
(-0.0299003 -0.0195218 0.0766346)
(-0.0299058 -0.0345251 0.0868178)
(-0.0317758 -0.0343184 0.0951448)
(-0.013953 -0.0596228 0.108916)
(-0.0195146 -0.0299144 0.0766326)
(-0.0444111 -0.0444157 0.0843029)
(-0.0435587 -0.0778721 0.100572)
(-0.0547629 -0.114587 0.108965)
(-0.0382424 -0.187531 0.134282)
(-0.0345082 -0.029914 0.0868138)
(-0.0778579 -0.0435624 0.100575)
(-0.100283 -0.100289 0.135943)
(-0.143178 -0.126497 0.171583)
(-0.0951576 -0.2793 0.248056)
(-0.0343067 -0.0317976 0.0951394)
(-0.11458 -0.0547518 0.108963)
(-0.12649 -0.143235 0.171568)
(-0.288242 -0.288269 0.155234)
(-0.364356 -0.745028 0.158456)
(-0.0595725 -0.0139596 0.108906)
(-0.187554 -0.0382404 0.134287)
(-0.279185 -0.0951759 0.248042)
(-0.745204 -0.364226 0.158361)
(-1.50486 -1.50448 -0.136728)
(-0.0144313 -0.0144372 0.0737614)
(-0.016388 -0.0136186 0.0843162)
(-0.0122523 -0.0212599 0.0988488)
(-0.0128091 -0.0219755 0.111808)
(-0.00352705 -0.0355374 0.132466)
(-0.0136126 -0.0164011 0.0843155)
(-0.0221446 -0.022149 0.0973878)
(-0.0194682 -0.0331715 0.121754)
(-0.0251135 -0.0346162 0.135411)
(-0.0161971 -0.0510639 0.167579)
(-0.0212451 -0.0122604 0.0988487)
(-0.0331584 -0.0194735 0.121754)
(-0.0248788 -0.0248959 0.176108)
(-0.0329027 -0.0317297 0.229317)
(-0.0299257 -0.0801234 0.34833)
(-0.0219667 -0.0128235 0.111807)
(-0.0346203 -0.0251109 0.135409)
(-0.031725 -0.0329211 0.229311)
(0.00314008 0.00319036 0.349441)
(-0.115954 -0.160409 0.473566)
(-0.035505 -0.00353255 0.132473)
(-0.0510584 -0.0161972 0.167568)
(-0.0800618 -0.0299374 0.34836)
(-0.160308 -0.115869 0.473405)
(-0.105606 -0.106038 0.382555)
(-0.00805567 -0.00806373 0.078512)
(-0.0048524 -0.00596504 0.0888974)
(-0.00245261 -0.0108735 0.0983293)
(0.00179532 -0.00992363 0.106448)
(0.00687658 -0.0231134 0.115163)
(-0.005957 -0.00486668 0.0888974)
(-0.00718282 -0.00718829 0.100527)
(-0.00584302 -0.00110777 0.114221)
(-0.00981092 -0.000643033 0.122134)
(-0.00626822 0.0263512 0.135133)
(-0.0108564 -0.00246151 0.0983301)
(-0.00109348 -0.00584813 0.114219)
(0.00400092 0.00398864 0.136746)
(0.0290327 -0.00193573 0.146863)
(0.0288069 -0.0180545 0.162953)
(-0.00991168 0.00178083 0.106449)
(-0.000640761 -0.00981049 0.122134)
(-0.00193125 0.0290098 0.146874)
(0.0627119 0.0627282 0.10712)
(0.117401 0.295127 -0.342213)
(-0.023081 0.00687132 0.115164)
(0.0263557 -0.00626856 0.135128)
(-0.0180109 0.0287966 0.162951)
(0.295117 0.117396 -0.342204)
(0.9748 0.974771 -2.17626)
(-0.00334696 -0.00335299 0.064715)
(0.00346086 -0.00103353 0.0741386)
(0.00540207 -0.00377011 0.080199)
(0.00417467 -0.00444272 0.0872202)
(0.0055497 -0.0124128 0.0897003)
(-0.00102753 0.00344859 0.0741398)
(0.0031767 0.00317068 0.0904496)
(0.00221459 0.00539087 0.102052)
(-0.00395638 0.00398517 0.122168)
(-0.00253839 -0.00369159 0.139239)