/*--------------------------------*- C++ -*----------------------------------*\
| =========                 |                                                 |
| \\      /  F ield         | OpenFOAM: The Open Source CFD Toolbox           |
|  \\    /   O peration     | Version:  5.x                                   |
|   \\  /    A nd           | Web:      www.OpenFOAM.org                      |
|    \\/     M anipulation  |                                                 |
\*---------------------------------------------------------------------------*/
FoamFile
{
    version     2.0;
    format      ascii;
    class       volScalarField;
    location    "0.096";
    object      interFace;
}
// * * * * * * * * * * * * * * * * * * * * * * * * * * * * * * * * * * * * * //

dimensions      [0 0 0 0 0 0 0];

internalField   nonuniform List<scalar> 
1560
(
0
0
0
0
0
0
0
0
0
0
0
0
0
0
0
0
0
0
0
0
0
0
0
0
0
0
0
0
0
0
0
0
0
0
0
0
0
0
0
0
0
0
0
0
0
0
0
0
0
0
0
0
0
0
0
0
0
0
0
0
0
0
0
0
0
0
0
0
0
0
0
0
0
0
0
0
0
0
0
0
0
0
0
0
0
0
0
0
0
0
0
0
0
0
0
0
0
0
0
0
0
0
0
0
0
0
0
0
0
0
0
0
0
0
0
0
0
0
0
0
0
0
0
0
0
0
0
0
0
0
0
0
0
0
0
0
0
0
0
0
0
0
0
0
0
0
0
0
0
0
0
0
0
0
0
0
0
0
0
0
0
0
0
0
0
0
0
0
0
0
0
0
0
0
0
0
0
0
0
0
0
0
0
0
0
0
0
0
0
0
0
0
0
0
0
0
0
0
0
0
0
0
0
0
0
0
0
0
0
0
0
0
0
0
0
0
0
0
0
0
0
0
0
0
0
0
0
0
0
0
0
0
0
0
0
0
0
0
0
0
0
0
0
0
0
0
0
0
0
0
0
0
0
0
0
0
0
0
0
0
0
0
0
0
0
0
0
0
0
0
0
0
0
0
0
0
0
0
0
0
0
0
0
0
0
0
0
0
0
0
0
0
0
0
0
0
0
0
0
0
0
0
0
0
0
0
0
0
0
0
0
0
0
0
0
0
0
0
0
0
0
0
0
0
0
0
0
0
0
0
0
0
0
0
0
0
0
0
0
0
0
0
0
0
0
0
0
0
0
0
0
0
0
0
0
0
0
0
0
0
0
0
0
0
0
0
0
0
0
0
0
0
0
0
0
0
0
0
0
0
0
0
0
0
0
0
0
0
0
0
0
0
0
0
0
0
0
0
0
0
0
0
0
0
0
0
0
0
0
0
0
0
0
0
0
0
0
0
0
0
0
0
0
0
0
0
0
0
0
0
0
0
0
0
0
0
0
0
0
0
0
0
0
0
0
0
0
0
0
0
0
0
0
0
0
0
0
0
0
0
0
0
0
0
0
0
0
0
0
0
0
0
0
0
0
0
0
0
0
0
0
0
0
0
0
0
0
0
0
0
0
0
0
0
0
0
0
0
0
0
0
0
0
0
0
0
0
0
0
0
0
0
0
0
0
0
0
0
0
0
0
0
0
0
0
0
0
0
0
0
0
0
0
0
0
0
0
0
0
0
0
0
0
0
0
0
0
0
0
0
0
0
0
0
0
0
0
0
0
0
0
0
0
0
0
0
0
0
0
0
0
0
0
0
0
0
0
0
0
0
0
0
0
0
0
0
0
0
0
0
0
0
0
0
0
0
0
0
0
0
0
0
0
0
0
0
0
0
0
0
0
0
0
0
0
0
0
0
0
0
0
0
0
0
0
0
0
0
0
0.4126
0
0
0
0
0.845966
0
0
0
0
0
0
0
0
0
0
0
0
0
0
0
0
0
0
0
0.334778
0
0
0
0
0.857785
0
0
0
0
0
0
0
0
0
0
0
0
0
0
0
0
0
0
0
0
0
0
0
0
0
0
0
0
0
0
0
0
0
0
0
0
0
0
0
0
0
0
0
0
0.556169
0
0
0
0
0.96509
0
0
0
0
0
0
0
0
0
0
0
0
0
0
0
0
0
0
0
0.285421
0
0
0
0
0.733757
0
0
0
0
0
0
0
0
0
0
0
0
0
0
0
0
0
0
0
0.731802
0
0
0
0
0
0
0
0
0
0
0
0
0
0
0
0
0
0
0
0
0
0
0
0
0
0
0
0
0
0
0
0
0
0
0
0
0
0
0
0
0
0
0
0
0
0
0
0
0
0
0
0
0
0
0
0
0
0
0
0
0
0
0
0
0
0
0
0
0
0
0
0
0
0
0
0
0
0
0
0
0
0
0
0
0
0
0
0
0
0
0
0
0
0
0
0
0
0
0
0
0
0
0
0
0
0
0
0
0
0
0
0
0
0
0
0
0
0
0
0
0
0
0
0
0
0
0
0
0
0
0
0
0
0
0
0
0
0
0
0
0
0
0
0
0
0
0
0
0
0
0
0
0
0
0
0
0
0
0
0
0
0
0
0
0
0
0
0
0
0
0
0
0
0
0
0
0
0
0
0
0
0
0
0
0
0
0
0
0
0
0
0
0
0
0
0
0
0
0
0
0
0
0
0
0
0
0
0
0
0
0
0
0
0
0
0
0
0
0
0
0
0
0
0
0
0
0
0
0
0
0
0
0
0
0
0
0
0
0
0
0
0
0
0
0
0.462965
0.961375
0.731987
0
0
0
0
0.016584
0.554443
0.285606
0.552976
0.284139
0.821997
0.553161
0.287332
0.82519
0.556353
0.285877
0.0170401
0.554899
0.286062
0.869414
0
0
0.786589
0.46707
0.965937
0.786712
0
0
0
0
0
0
0
0
0
0
0
0
0
0
0.0661567
0.603995
0.335374
0.747027
0.478406
0
0.747623
0.776257
0.507757
0.507818
0.686611
0.55261
0.731403
0.731465
0.865869
0.597369
0.776655
0.955448
0.642222
0
0.821016
0.86593
0.597492
0.776778
0.955633
0.642284
0
0.821139
0.523126
0.523325
0.568044
0.385807
0.296169
0.340889
0.341088
0.51396
0
0.857388
0
0.952743
0
0
0.514754
0
0
0
0.953537
0
0
0.612666
0.791946
0.657585
0.475348
0.56479
0.609709
0.430429
0.613064
0.792343
0.657783
0.475546
0.565386
0.610106
0.430827
0.881685
0.881883
0.747324
0.565087
0.834007
0.699448
0.699646
0.328931
0.328992
0.373784
0.239778
0.150133
0.194925
0.194987
0.464674
0
0.733696
0
0.732229
0
0.96223
0.464921
0
0
0.962353
0.732475
0
0
0.418543
0.597829
0.463396
0.329391
0.41897
0.463824
0.284537
0.418666
0.597952
0.463458
0.329452
0.419155
0.463947
0.284661
0.143978
0.681817
0.413195
0.287003
0.0183814
0.55622
0.287598
0.248391
0.110877
0.111075
0.158753
0.155795
0.203473
0.203671
0.337931
0.200417
0.379696
0.427374
0.245336
0.472292
0.293013
0.687503
0.687565
0.55307
0.419065
0.687992
0.553497
0.553559
0.33813
0.200814
0.380094
0.42797
0.245534
0.47269
0.29341
0.42767
0.469435
0.469634
0.696591
0.335075
0.562031
0.56223
0.150594
0.0613757
0.0614373
0.0609484
0.106229
0.10574
0.105802
0.240206
0.150988
0.330274
0.329785
0.195841
0.374639
0.195352
0.240267
0.151111
0.330397
0.32997
0.195903
0.374762
0.195476
0.956303
0.777082
0
0.598224
0.643077
0.867151
0.822298
0.777267
0.956611
0
0.59847
0.643262
0.867397
0.822605
0.0631013
0.0632998
0.10802
0.105065
0.0154265
0.0601464
0.060345
0.591781
0
0.845569
0
0.466184
0
0.735401
0.592576
0
0
0.7356
0.466978
0
0
0.32988
0.419948
0.42001
0.598807
0.285515
0.464313
0.464374
0.558878
0.606555
0.651474
0.875476
0.737962
0.78288
0.830558
0.559474
0.60735
0.65207
0.87627
0.738954
0.783674
0.83155
0.152642
0.331921
0.19756
0.194605
0.284048
0.328966
0.149687
0.153039
0.332318
0.197759
0.194804
0.284644
0.329363
0.150084
0.42166
0.421859
0.287299
0.284344
0.553265
0.418705
0.418904
0
0
0
0
0
0
0
0.0618319
0.0618935
0.106685
0.151962
0.0623168
0.107109
0.10717
0.785619
0
0.964967
0
0.46513
0
0.734152
0.785865
0
0
0.734214
0.465377
0
0
0.151444
0.33073
0.196298
0.241574
0.331154
0.376007
0.196721
0.151567
0.330854
0.196359
0.241636
0.331338
0.37613
0.196844
0.509528
0.509039
0.553892
0.688748
0.733601
0.777966
0.733113
0.509712
0.509285
0.554077
0.689056
0.733848
0.778212
0.733421
0.833956
0
0
0.544107
0.275485
0.813324
0.544702
0.146931
0.188698
0.188897
0.0572922
0.233617
0.102012
0.102211
0.420404
0.420466
0.285971
0.331248
0.600175
0.465681
0.465742
0.236471
0.278239
0.457518
0.325914
0.323157
0.370832
0.191553
0.23667
0.278636
0.457915
0.326509
0.323356
0.371229
0.19195
0.511103
0.690186
0.735105
0.463229
0.508148
0.73215
0.687231
0.511698
0.691179
0.735899
0.464024
0.508743
0.732944
0.688224
0.32621
0.547257
0.547456
0.595131
0.412896
0.460571
0.46077
0.599325
0.778122
0.643689
0.957893
0.82346
0.867825
0
0.599201
0.77806
0.643566
0.95777
0.823275
0.86764
0
0.242059
0.332123
0.332185
0.152414
0.376977
0.197206
0.197267
0.331671
0.421736
0.601022
0.421251
0.466589
0.466104
0.286818
0.331733
0.421859
0.601145
0.421436
0.466651
0.466227
0.286941
0.509984
0.689204
0.734058
0.510407
0.55526
0.779334
0.734481
0.510168
0.689512
0.734304
0.510653
0.555445
0.779581
0.734789
0
0
0
0
0
0
0
0.600842
0.959403
0.824844
0.732446
0.597887
0.821889
0.956448
0.421345
0.690696
0.690757
0.690272
0.556263
0.555778
0.55584
0.320205
0.320404
0.365124
0.541451
0.451813
0.496533
0.496731
0
0
0
0
0.929104
0
0
0
0
0
0
0.929899
0
0
0.6367
0.505095
0.550014
0.774016
0.815783
0.860702
0.729097
0.637295
0.505889
0.550609
0.77481
0.816776
0.861496
0.73009
0.601239
0.9598
0.825439
0.732645
0.598284
0.822485
0.956845
0.409746
0.589025
0.454664
0.630991
0.720434
0.765352
0.586073
0.410143
0.589422
0.454863
0.63119
0.72103
0.765749
0.58647
0
0
0
0
0
0
0
0.599658
0.958226
0.823731
0.779429
0.644934
0.869008
0
0.599781
0.958349
0.823916
0.77949
0.645057
0.869193
0
0.678764
0.678963
0.544403
0.72073
0.989651
0.855091
0.85529
0.511862
0.511923
0.556715
0.781274
0.691629
0.736421
0.736482
)
;

boundaryField
{
    inlet
    {
        type            calculated;
        value           uniform 0;
    }
    wall
    {
        type            calculated;
        value           uniform 0;
    }
    outlet
    {
        type            calculated;
        value           uniform 0;
    }
    procBoundary2to0
    {
        type            processor;
        value           uniform 0;
    }
    procBoundary2to3
    {
        type            processor;
        value           uniform 0;
    }
}


// ************************************************************************* //
