/*--------------------------------*- C++ -*----------------------------------*\
| =========                 |                                                 |
| \\      /  F ield         | OpenFOAM: The Open Source CFD Toolbox           |
|  \\    /   O peration     | Version:  5.x                                   |
|   \\  /    A nd           | Web:      www.OpenFOAM.org                      |
|    \\/     M anipulation  |                                                 |
\*---------------------------------------------------------------------------*/
FoamFile
{
    version     2.0;
    format      ascii;
    class       volVectorField;
    location    "0.096";
    object      U;
}
// * * * * * * * * * * * * * * * * * * * * * * * * * * * * * * * * * * * * * //

dimensions      [0 1 -1 0 0 0 0];

internalField   nonuniform List<vector> 
1560
(
(-0.000121464 -2.78023e-05 0.060688)
(-0.000137176 -3.4822e-05 0.06059)
(-9.99911e-05 -3.67999e-05 0.06058)
(-9.69295e-05 -4.29197e-05 0.0605533)
(-5.74825e-05 -4.53306e-05 0.0605623)
(-0.000123851 7.89365e-06 0.0606907)
(-0.000140025 1.7892e-06 0.0605916)
(-0.000102413 5.98026e-08 0.0605821)
(-9.9425e-05 -5.52609e-06 0.0605553)
(-5.9821e-05 -7.76281e-06 0.0605654)
(-0.000127673 1.46174e-05 0.0606983)
(-0.00014501 9.48791e-06 0.0605969)
(-0.000107306 7.97936e-06 0.0605873)
(-0.000104752 3.07383e-06 0.0605595)
(-6.53805e-05 1.02576e-06 0.0605694)
(-0.000129061 4.41441e-05 0.0607095)
(-0.000146663 3.9438e-05 0.0606075)
(-0.000108828 3.78933e-05 0.0605982)
(-0.000106379 3.30974e-05 0.0605703)
(-6.69797e-05 3.08569e-05 0.0605808)
(-0.000132442 4.31632e-05 0.0607573)
(-0.00015126 3.97822e-05 0.0606534)
(-0.000113647 3.85041e-05 0.0606433)
(-0.000111788 3.48914e-05 0.0606134)
(-7.27691e-05 3.30098e-05 0.0606229)
(-1.69463e-06 -2.60627e-05 -0.0384895)
(-9.80037e-06 -2.57742e-05 -0.0384707)
(-2.80926e-05 -2.65469e-05 -0.0384701)
(-3.64813e-05 -2.79679e-05 -0.0384661)
(-3.57623e-05 -2.96453e-05 -0.0384692)
(-1.58197e-06 -1.97057e-05 -0.038491)
(-1.00896e-05 -1.99603e-05 -0.0384719)
(-2.91217e-05 -2.08832e-05 -0.0384713)
(-3.79121e-05 -2.25664e-05 -0.0384675)
(-3.75834e-05 -2.42915e-05 -0.0384708)
(-1.93896e-06 -1.62327e-05 -0.0384901)
(-1.09766e-05 -1.6746e-05 -0.0384708)
(-3.06987e-05 -1.75699e-05 -0.0384704)
(-3.98896e-05 -1.91198e-05 -0.0384666)
(-3.98533e-05 -2.05905e-05 -0.0384701)
(-2.09618e-06 -2.06911e-05 -0.0384921)
(-1.1426e-05 -2.12867e-05 -0.0384728)
(-3.14954e-05 -2.19141e-05 -0.0384724)
(-4.09327e-05 -2.32744e-05 -0.0384687)
(-4.11077e-05 -2.44442e-05 -0.0384724)
(-2.54136e-06 -1.28667e-05 -0.0384982)
(-1.21991e-05 -1.33116e-05 -0.0384788)
(-3.26863e-05 -1.36518e-05 -0.0384784)
(-4.24196e-05 -1.4524e-05 -0.0384745)
(-4.28798e-05 -1.51672e-05 -0.0384782)
(-0.000103899 -2.85065e-05 0.0480528)
(-0.000119742 -3.49089e-05 0.0479859)
(-9.74942e-05 -3.69959e-05 0.0479781)
(-9.82139e-05 -4.33893e-05 0.0479394)
(-6.06779e-05 -4.62754e-05 0.0479371)
(-0.000105985 7.5881e-06 0.0480561)
(-0.000122376 2.00646e-06 0.0479882)
(-0.000100142 8.70892e-08 0.0479804)
(-0.000101089 -5.7e-06 0.0479411)
(-6.35181e-05 -8.44605e-06 0.0479389)
(-0.000109575 1.38758e-05 0.0480741)
(-0.000127243 9.09205e-06 0.0480047)
(-0.000105201 7.3965e-06 0.0479966)
(-0.000106747 2.31474e-06 0.0479557)
(-6.95672e-05 -1.58993e-07 0.0479529)
(-0.000110844 3.63533e-05 0.0480803)
(-0.000128856 3.21158e-05 0.0480106)
(-0.00010692 3.0555e-05 0.0480025)
(-0.000108645 2.58037e-05 0.0479612)
(-7.15019e-05 2.34385e-05 0.0479585)
(-0.000113869 3.73812e-05 0.0481183)
(-0.000133041 3.43566e-05 0.0480475)
(-0.000111513 3.31407e-05 0.0480391)
(-0.000113863 2.96945e-05 0.0479963)
(-7.72514e-05 2.78389e-05 0.047993)
(-7.07338e-05 -2.78714e-05 -0.0261111)
(-8.41693e-05 -3.07896e-05 -0.0261409)
(-7.42906e-05 -3.20855e-05 -0.0261468)
(-7.72412e-05 -3.60246e-05 -0.0261704)
(-5.03726e-05 -3.8176e-05 -0.0261758)
(-7.16116e-05 1.65256e-06 -0.0261103)
(-8.54237e-05 -1.23852e-06 -0.0261405)
(-7.59803e-05 -2.5409e-06 -0.0261465)
(-7.92176e-05 -6.41244e-06 -0.0261704)
(-5.26178e-05 -8.57615e-06 -0.0261761)
(-7.36553e-05 8.10211e-06 -0.0260938)
(-8.83618e-05 5.46921e-06 -0.0261249)
(-7.94645e-05 4.29779e-06 -0.0261312)
(-8.32765e-05 8.38471e-07 -0.0261564)
(-5.7301e-05 -1.11725e-06 -0.0261626)
(-7.42699e-05 2.37131e-05 -0.0260908)
(-8.92272e-05 2.13878e-05 -0.026122)
(-8.0611e-05 2.03731e-05 -0.0261284)
(-8.46326e-05 1.71527e-05 -0.0261539)
(-5.88624e-05 1.53376e-05 -0.0261602)
(-7.59978e-05 2.70363e-05 -0.0260655)
(-9.17015e-05 2.53086e-05 -0.0260976)
(-8.36995e-05 2.45409e-05 -0.0261043)
(-8.83118e-05 2.21791e-05 -0.0261306)
(-6.32058e-05 2.08062e-05 -0.0261374)
(-0.00013562 -2.90201e-05 0.0373527)
(-0.000155881 -3.67794e-05 0.0372719)
(-0.000127281 -3.93545e-05 0.0372597)
(-0.000127512 -4.75432e-05 0.0372039)
(-7.26617e-05 -5.1283e-05 0.0371957)
(-0.000138055 2.48278e-05 0.0373565)
(-0.000158989 1.82112e-05 0.037275)
(-0.00013044 1.58709e-05 0.0372626)
(-0.000130996 8.44684e-06 0.0372059)
(-7.63897e-05 4.89011e-06 0.0371974)
(-0.000142335 3.33443e-05 0.0373896)
(-0.000164838 2.77138e-05 0.0373065)
(-0.000137045 2.56594e-05 0.0372937)
(-0.000138492 1.90816e-05 0.0372349)
(-8.46006e-05 1.58899e-05 0.0372255)
(-0.00014376 6.44772e-05 0.0373975)
(-0.000166674 5.9664e-05 0.0373142)
(-0.000139073 5.78398e-05 0.0373014)
(-0.000140766 5.19627e-05 0.0372421)
(-8.71572e-05 4.89924e-05 0.0372327)
(-0.000147192 6.37865e-05 0.0374527)
(-0.000171475 6.03543e-05 0.0373689)
(-0.000144747 5.89421e-05 0.0373559)
(-0.00014734 5.46072e-05 0.037295)
(-9.48732e-05 5.22721e-05 0.0372848)
(-0.000154465 -2.84489e-05 -0.0167862)
(-0.000176704 -3.50518e-05 -0.0168717)
(-0.000141883 -3.72826e-05 -0.0168867)
(-0.000140895 -4.49814e-05 -0.0169477)
(-7.3752e-05 -4.83526e-05 -0.0169589)
(-0.000156088 3.85638e-05 -0.0167824)
(-0.000178831 3.3131e-05 -0.0168686)
(-0.000144708 3.12395e-05 -0.0168839)
(-0.000144031 2.43015e-05 -0.0169455)
(-7.71583e-05 2.1079e-05 -0.0169571)
(-0.000159962 4.91834e-05 -0.0167398)
(-0.000184027 4.44358e-05 -0.0168277)
(-0.000150713 4.27938e-05 -0.0168434)
(-0.000151056 3.6813e-05 -0.0169074)
(-8.54563e-05 3.38802e-05 -0.01692)
(-0.000160877 8.71852e-05 -0.0167302)
(-0.000185219 8.35542e-05 -0.0168184)
(-0.000152331 8.22506e-05 -0.0168342)
(-0.000152944 7.69795e-05 -0.0168986)
(-8.77927e-05 7.43089e-05 -0.0169114)
(-0.000163598 8.52828e-05 -0.0166624)
(-0.000188961 8.25613e-05 -0.0167518)
(-0.000157288 8.15329e-05 -0.0167679)
(-0.000158998 7.75537e-05 -0.016834)
(-9.54209e-05 7.53992e-05 -0.0168476)
(-0.000225603 -2.75337e-05 0.0292117)
(-0.000257073 -3.88207e-05 0.0290754)
(-0.000203734 -4.24315e-05 0.0290516)
(-0.000200168 -5.4531e-05 0.0289565)
(-9.81853e-05 -5.98236e-05 0.02894)
(-0.000228834 7.12537e-05 0.0292193)
(-0.000261258 6.24684e-05 0.029082)
(-0.000207725 5.94372e-05 0.029058)
(-0.000204568 4.89599e-05 0.0289617)
(-0.000103667 4.4046e-05 0.0289449)
(-0.000234484 8.5471e-05 0.0292849)
(-0.000268889 7.82502e-05 0.0291466)
(-0.000217243 7.57606e-05 0.0291225)
(-0.000215559 6.62337e-05 0.0290237)
(-0.000116444 6.19059e-05 0.029006)
(-0.000236106 0.000141542 0.0293006)
(-0.000270967 0.000135961 0.0291627)
(-0.000219741 0.000133908 0.0291387)
(-0.000218423 0.000125903 0.0290397)
(-0.000120036 0.000121958 0.0290218)
(-0.000240051 0.000134642 0.0294045)
(-0.000276523 0.000130697 0.0292674)
(-0.000227302 0.000129101 0.029244)
(-0.000227511 0.00012308 0.0291434)
(-0.000131969 0.000119913 0.0291252)
(-0.000296244 -2.49093e-05 -0.00989359)
(-0.000336176 -3.63461e-05 -0.0100718)
(-0.000260326 -3.98083e-05 -0.0101051)
(-0.000252003 -5.27806e-05 -0.0102282)
(-0.000110267 -5.79507e-05 -0.0102511)
(-0.00029891 0.000111698 -0.00988285)
(-0.000339517 0.000103916 -0.0100619)
(-0.000264488 0.000101747 -0.0100952)
(-0.000256649 9.11799e-05 -0.0102203)
(-0.00011513 8.67022e-05 -0.0102437)
(-0.000304085 0.000130478 -0.00979163)
(-0.000346124 0.000124659 -0.00997241)
(-0.000273061 0.000123069 -0.010006)
(-0.000267048 0.000114351 -0.0101341)
(-0.000128845 0.00011045 -0.0101587)
(-0.000304729 0.000207389 -0.00976887)
(-0.000346924 0.000204049 -0.00994929)
(-0.000274797 0.00020333 -0.00998249)
(-0.000269267 0.00019624 -0.0101109)
(-0.000132402 0.000193065 -0.0101356)
(-0.000307334 0.000194908 -0.00962464)
(-0.000350183 0.000192303 -0.00980538)
(-0.000280873 0.00019174 -0.00983819)
(-0.000277315 0.000186219 -0.00996858)
(-0.000144819 0.000183624 -0.00999389)
(-0.000412851 -1.8981e-05 0.0231667)
(-0.00046959 -3.62887e-05 0.0229076)
(-0.000360715 -4.13304e-05 0.0228553)
(-0.000346779 -6.07511e-05 0.0226772)
(-0.000144123 -6.84402e-05 0.0226425)
(-0.000416927 0.000173386 0.0231846)
(-0.000474652 0.000162292 0.0229261)
(-0.000366726 0.000158979 0.0228741)
(-0.000353584 0.000143492 0.0226958)
(-0.00015239 0.00013687 0.0226609)
(-0.000423961 0.000199521 0.0233176)
(-0.000483993 0.000191349 0.0230597)
(-0.000379516 0.000188978 0.0230093)
(-0.000368888 0.000176071 0.0228287)
(-0.000172884 0.000170397 0.0227938)
(-0.00042502 0.000308149 0.0233528)
(-0.000485188 0.000303651 0.023098)
(-0.000382004 0.000302547 0.0230487)
(-0.000372166 0.000292252 0.0228695)
(-0.000178051 0.000287652 0.0228349)
(-0.000428223 0.000285532 0.0235594)
(-0.000489594 0.000282329 0.0233096)
(-0.00039092 0.000281362 0.0232637)
(-0.000383787 0.000273479 0.0230846)
(-0.000197219 0.000269713 0.0230511)
(-0.000566628 -9.86241e-06 -0.00499522)
(-0.00064691 -2.67025e-05 -0.00535035)
(-0.000490034 -3.14021e-05 -0.00542546)
(-0.000464086 -5.09503e-05 -0.00566659)
(-0.000170689 -5.87687e-05 -0.00571476)
(-0.000568611 0.000262289 -0.00496855)
(-0.000649257 0.000255456 -0.00532308)
(-0.000494038 0.000255216 -0.00539716)
(-0.000469175 0.000242198 -0.00563933)
(-0.000178813 0.000237431 -0.00568777)
(-0.000573362 0.000298584 -0.00478234)
(-0.000653977 0.000295988 -0.0051367)
(-0.000503292 0.000297092 -0.00520932)
(-0.000481871 0.000287441 -0.00545529)
(-0.000198993 0.000283893 -0.005505)
(-0.000570968 0.000450056 -0.00473009)
(-0.000650738 0.000453606 -0.00508067)
(-0.000502583 0.000457174 -0.005151)
(-0.000482375 0.000451479 -0.00539533)
(-0.000204149 0.000449778 -0.00544406)
(-0.000569344 0.000412506 -0.00443815)
(-0.000646858 0.00041413 -0.00478488)
(-0.000505428 0.000416857 -0.00485138)
(-0.000489274 0.000411517 -0.00509646)
(-0.000222597 0.000410047 -0.00514409)
(-0.00078576 7.96021e-06 0.0187054)
(-0.000901392 -1.78051e-05 0.0181907)
(-0.00067783 -2.38716e-05 0.0180645)
(-0.000636876 -5.42322e-05 0.017713)
(-0.000227505 -6.51795e-05 0.0176308)
(-0.000789152 0.000386599 0.018749)
(-0.000904812 0.000376565 0.0182417)
(-0.000683841 0.000375759 0.0181184)
(-0.000644991 0.000355429 0.0177718)
(-0.000238537 0.000347268 0.0176912)
(-0.000795437 0.000438137 0.0190166)
(-0.000912219 0.000434445 0.018517)
(-0.000698966 0.000435862 0.0184021)
(-0.000665367 0.000420797 0.0180575)
(-0.000271034 0.000414843 0.0179819)
(-0.000792257 0.00065189 0.0190985)
(-0.000907069 0.000656499 0.0186119)
(-0.00069749 0.000661825 0.0185022)
(-0.000666009 0.000652472 0.0181655)
(-0.00027726 0.000649962 0.0180926)
(-0.00078987 0.000591175 0.0195089)
(-0.000902283 0.000593562 0.0190406)
(-0.000703012 0.000596919 0.0189445)
(-0.000677244 0.000588595 0.0186153)
(-0.000307846 0.000586011 0.0185494)
(-0.00110433 3.45557e-05 -0.00173447)
(-0.00128686 1.52963e-05 -0.00244023)
(-0.000966654 1.12413e-05 -0.00262264)
(-0.000896864 -1.38353e-05 -0.00309272)
(-0.000289925 -2.32161e-05 -0.00320452)
(-0.00109875 0.000573116 -0.00166888)
(-0.00127904 0.000580985 -0.00236703)
(-0.000962922 0.000592042 -0.0025426)
(-0.000895438 0.000585879 -0.00301036)
(-0.000300179 0.00058775 -0.00311923)
(-0.00109568 0.000647838 -0.00129859)
(-0.00126791 0.000665326 -0.00198886)
(-0.000961759 0.000680067 -0.00215554)
(-0.000901155 0.000680216 -0.00262667)
(-0.000325997 0.000684415 -0.00273465)
(-0.00108013 0.000943733 -0.00117787)
(-0.00124678 0.000976927 -0.00185144)
(-0.000948031 0.000998831 -0.00200762)
(-0.000891088 0.00100851 -0.00246893)
(-0.000330335 0.00101648 -0.00257081)
(-0.00106078 0.000844423 -0.00059975)
(-0.00121281 0.000863777 -0.00125667)
(-0.000930203 0.00088011 -0.00139582)
(-0.000883525 0.000882729 -0.00185115)
(-0.00035117 0.000888432 -0.00194553)
(-0.00152696 8.00612e-05 0.015324)
(-0.00179209 4.65031e-05 0.0142764)
(-0.00133162 4.47307e-05 0.0139481)
(-0.00121996 -1.06583e-06 0.0132216)
(-0.000392839 -1.28601e-05 0.0129935)
(-0.00152232 0.000823008 0.015433)
(-0.00178101 0.000828857 0.0144189)
(-0.00132843 0.000843822 0.0141052)
(-0.00122279 0.000822482 0.0134075)
(-0.000403072 0.000818173 0.0131915)
(-0.00151941 0.000929361 0.0159636)
(-0.00177123 0.000951058 0.01498)
(-0.001338 0.000971925 0.0146978)
(-0.00124561 0.000963355 0.0140246)
(-0.000453464 0.000964424 0.0138377)
(-0.00149832 0.00135029 0.0161577)
(-0.00173838 0.00139029 0.0152208)
(-0.00131614 0.0014237 0.0149603)
(-0.00123029 0.00143031 0.0143159)
(-0.000455529 0.00144145 0.0141452)
(-0.00147625 0.00119692 0.0169604)
(-0.00169781 0.00121899 0.0160797)
(-0.00129805 0.00124065 0.0158674)
(-0.00122791 0.00123931 0.0152535)
(-0.000496668 0.00124464 0.0151155)
(-0.00219965 0.000152093 0.000103994)
(-0.00266177 0.000150372 -0.00130502)
(-0.00201975 0.000158078 -0.0017828)
(-0.00185 0.000144633 -0.00269068)
(-0.000569506 0.000143664 -0.00297627)
(-0.00215956 0.00121212 0.000267615)
(-0.00260583 0.00128343 -0.00110614)
(-0.0019727 0.00134061 -0.00155426)
(-0.00180771 0.00138768 -0.00244921)
(-0.000573768 0.00143067 -0.00271871)
(-0.00212518 0.00137223 0.000989707)
(-0.0025332 0.00146584 -0.000353581)
(-0.00191551 0.00153375 -0.000762421)
(-0.00175994 0.00158707 -0.00167346)
(-0.000590148 0.00163648 -0.00193279)
(-0.00206187 0.00194278 0.00127262)
(-0.00244419 0.00207662 -8.58481e-06)
(-0.00185146 0.00216776 -0.000376857)
(-0.00170497 0.00223649 -0.0012447)
(-0.00058004 0.00229339 -0.00148043)
(-0.00198575 0.00168912 0.00239447)
(-0.00230821 0.00176523 0.00116185)
(-0.00175575 0.00183074 0.000859686)
(-0.00163437 0.00186506 1.45998e-05)
(-0.00058642 0.00190447 -0.000180634)
(-0.00300809 0.000262069 0.0124755)
(-0.0036834 0.000238714 0.0103085)
(-0.00271936 0.000264813 0.00939221)
(-0.00241549 0.000199112 0.00782663)
(-0.000760489 0.000200909 0.00711383)
(-0.00296647 0.00170948 0.0127588)
(-0.00360723 0.00178176 0.0107166)
(-0.00267346 0.00186581 0.00987557)
(-0.00238915 0.00184143 0.00842753)
(-0.000751268 0.00186355 0.00778974)
(-0.00292972 0.00193447 0.0138013)
(-0.00352692 0.00205015 0.0118512)
(-0.00265972 0.00215104 0.011099)
(-0.00241776 0.00216969 0.00976944)
(-0.000824459 0.00220465 0.00924312)
(-0.00284299 0.00275477 0.0142736)
(-0.00339041 0.00290831 0.0124814)
(-0.00255393 0.00304947 0.0118259)
(-0.00233551 0.00312253 0.010573)
(-0.000806304 0.00319794 0.0101331)
(-0.00276651 0.00237371 0.0158061)
(-0.00323222 0.00245017 0.0141676)
(-0.00244575 0.00254161 0.0136721)
(-0.00226944 0.00256599 0.0125163)
(-0.000842373 0.00261357 0.012193)
(-0.00446733 0.00045975 0.000516708)
(-0.00574373 0.000556262 -0.00236443)
(-0.00449819 0.000636024 -0.00380237)
(-0.00412562 0.000709422 -0.00587283)
(-0.00136003 0.000778919 -0.00691494)
(-0.00429855 0.00253712 0.000940022)
(-0.00548787 0.00282424 -0.00176896)
(-0.00425865 0.00304529 -0.00305988)
(-0.00389103 0.00332808 -0.0049859)
(-0.00129439 0.00355732 -0.00591101)
(-0.00416901 0.00288689 0.00234175)
(-0.00523529 0.00322816 -0.000265543)
(-0.00399436 0.00348138 -0.00133955)
(-0.00361359 0.00372954 -0.0032208)
(-0.00124073 0.00397657 -0.00398638)
(-0.00394342 0.00395153 0.00303109)
(-0.00489289 0.00439383 0.000640999)
(-0.00375726 0.00474049 -0.000294424)
(-0.0033958 0.00498228 -0.00194997)
(-0.00113569 0.00524211 -0.00258273)
(-0.00370879 0.0033028 0.00515054)
(-0.00444632 0.00353741 0.00287805)
(-0.00340636 0.00376746 0.00218024)
(-0.00311217 0.0039023 0.000597236)
(-0.00106337 0.00406227 0.000150738)
(-0.0060396 0.000723162 0.00954213)
(-0.00801084 0.000827382 0.00521111)
(-0.00623173 0.00099875 0.00237016)
(-0.00553254 0.00102846 -0.000785637)
(-0.00191902 0.00115168 -0.00319285)
(-0.00581886 0.0035352 0.0103233)
(-0.00761497 0.00388299 0.00636517)
(-0.00589358 0.00433153 0.0039026)
(-0.00524437 0.00449737 0.00107645)
(-0.00179545 0.0047965 -0.000865947)
(-0.00567117 0.00402478 0.0123857)
(-0.00721422 0.00446238 0.0086072)
(-0.00561767 0.00491907 0.00650686)
(-0.00506769 0.00520877 0.00374825)
(-0.00176873 0.00553695 0.00215762)
(-0.00535577 0.00556373 0.0135644)
(-0.00671973 0.00605569 0.0102464)
(-0.00514726 0.0065753 0.00857922)
(-0.00462634 0.00694818 0.00617662)
(-0.00161859 0.00734321 0.0049831)
(-0.00515014 0.0046004 0.0163841)
(-0.00620263 0.00480599 0.0134105)
(-0.00472615 0.0051469 0.0122129)
(-0.00430017 0.00525212 0.0099817)
(-0.00152928 0.00549263 0.00915837)
(-0.0090105 0.0012906 -0.000400179)
(-0.0129132 0.00172107 -0.00613417)
(-0.0104882 0.00218342 -0.0103387)
(-0.00968795 0.00255248 -0.0150853)
(-0.00383182 0.00308864 -0.0188559)
(-0.00845503 0.00538034 0.000690913)
(-0.0119065 0.0062169 -0.00442167)
(-0.00953974 0.00717716 -0.00802856)
(-0.00865494 0.00785775 -0.0120191)
(-0.00330866 0.00890731 -0.0151817)
(-0.008137 0.00612851 0.00332786)
(-0.0111153 0.00710462 -0.00150076)
(-0.00884699 0.00815201 -0.00449711)
(-0.00795775 0.00882233 -0.00821564)
(-0.00296748 0.00981907 -0.0105859)
(-0.00743494 0.00795681 0.00487067)
(-0.00988156 0.00920043 0.000771788)
(-0.00782202 0.0104474 -0.00151262)
(-0.00698837 0.0112136 -0.00465434)
(-0.00248988 0.0122404 -0.00641279)
(-0.00683855 0.00627407 0.00871426)
(-0.00862462 0.00687038 0.00468162)
(-0.00683525 0.00758647 0.00313511)
(-0.00616592 0.00790112 0.000265055)
(-0.00212267 0.00844473 -0.00081152)
(-0.0120728 0.00188325 0.00644065)
(-0.0179644 0.00255175 -0.00224145)
(-0.0151848 0.00333122 -0.0112936)
(-0.0140506 0.00404526 -0.0194022)
(-0.00581095 0.00479135 -0.0294104)
(-0.0112076 0.00726221 0.00855347)
(-0.0163486 0.00852071 0.00114775)
(-0.0134939 0.0101771 -0.00598407)
(-0.0123995 0.0113686 -0.012358)
(-0.00505788 0.013067 -0.0194003)
(-0.0107543 0.00820029 0.0125185)
(-0.0150476 0.00965823 0.00542445)
(-0.0123368 0.0114393 -0.000256714)
(-0.0111607 0.0125764 -0.00622809)
(-0.00436051 0.0143076 -0.0115243)
(-0.00967397 0.0109508 0.0153057)
(-0.0131069 0.0122419 0.00940703)
(-0.0105759 0.0142159 0.00543068)
(-0.00953145 0.0154432 0.000920917)
(-0.00357823 0.0171323 -0.00246905)
(-0.00938386 0.00863957 0.020795)
(-0.0117824 0.0089296 0.0150962)
(-0.00913841 0.0100435 0.0123078)
(-0.00824616 0.0104417 0.00808103)
(-0.00294239 0.0113886 0.00598196)
(-0.0181188 0.00347862 -0.00204952)
(-0.030655 0.00511444 -0.013674)
(-0.0276519 0.00751015 -0.0268122)
(-0.0278053 0.00951319 -0.039105)
(-0.0140445 0.0130476 -0.0548432)
(-0.0162447 0.011461 0.000692451)
(-0.0264483 0.0138792 -0.00859189)
(-0.023047 0.0182153 -0.0189435)
(-0.0220727 0.0210333 -0.0274533)
(-0.0105438 0.0267939 -0.0392154)
(-0.015594 0.0128823 0.00575629)
(-0.0238964 0.0153573 -0.00336386)
(-0.0204944 0.0195621 -0.0110972)
(-0.0192266 0.0221033 -0.0191913)
(-0.00857899 0.0267538 -0.027063)
(-0.013648 0.0162457 0.00916144)
(-0.0197664 0.0188817 0.00208802)
(-0.016301 0.0230175 -0.00337953)
(-0.014884 0.0255261 -0.00888244)
(-0.0061716 0.0297537 -0.013993)
(-0.0128371 0.0120566 0.0155431)
(-0.0171246 0.0128675 0.00890381)
(-0.013852 0.0148197 0.00553735)
(-0.0124941 0.0154377 0.000149188)
(-0.00462856 0.0173155 -0.00247664)
(-0.0242993 0.00474376 0.00513501)
(-0.0427441 0.00765344 -0.0132305)
(-0.0406284 0.0112504 -0.0410013)
(-0.0420791 0.0156375 -0.0653356)
(-0.0217867 0.020447 -0.111425)
(-0.0210136 0.0150635 0.0103084)
(-0.0359972 0.0188309 -0.00356855)
(-0.0323606 0.0258917 -0.0232782)
(-0.0326678 0.0312784 -0.0385065)
(-0.0169371 0.0408449 -0.0654705)
(-0.0203655 0.0166592 0.0172397)
(-0.0319108 0.0203354 0.00412786)
(-0.0281667 0.027006 -0.0102939)
(-0.0271264 0.0311527 -0.0236008)
(-0.012617 0.0395429 -0.041342)
(-0.0171595 0.0207394 0.0226783)
(-0.025649 0.0245105 0.013532)
(-0.0215435 0.0308599 0.00415309)
(-0.0201453 0.0347961 -0.00386169)
(-0.00898267 0.0417352 -0.0135162)
(-0.0164075 0.0153973 0.0310656)
(-0.0217902 0.0161491 0.0223894)
(-0.0178823 0.0194442 0.0169851)
(-0.0162562 0.0199865 0.00967594)
(-0.00615075 0.0235005 0.00452179)
(-0.0374222 0.00877707 -0.00105747)
(-0.0767961 0.014792 -0.0240306)
(-0.0797836 0.0253026 -0.0659795)
(-0.0982142 0.0362828 -0.104181)
(-0.0605904 0.0591848 -0.184546)
(-0.0309022 0.0235713 0.00552359)
(-0.0600409 0.0312306 -0.00946187)
(-0.0579958 0.0489078 -0.0374946)
(-0.06423 0.0627328 -0.055036)
(-0.0378433 0.096862 -0.1043)
(-0.0294362 0.0252548 0.0134663)
(-0.0514471 0.0324583 -0.00132648)
(-0.0482234 0.0469941 -0.0206676)
(-0.0502603 0.0567593 -0.037782)
(-0.0268147 0.0787352 -0.0660931)
(-0.0233718 0.0300981 0.0195346)
(-0.03831 0.037161 0.0102453)
(-0.0336948 0.0503129 -0.00130913)
(-0.0325465 0.058808 -0.00974802)
(-0.0161862 0.0756221 -0.0243053)
(-0.02204 0.0209614 0.0285094)
(-0.0312323 0.0222933 0.0192295)
(-0.0265679 0.0283737 0.0132615)
(-0.0249632 0.0297458 0.0048889)
(-0.0103084 0.036283 -0.00143028)
(-0.0486113 0.0115012 0.0166436)
(-0.107624 0.0222696 -0.0189388)
(-0.120856 0.0398946 -0.0915601)
(-0.160156 0.0651563 -0.183449)
(-0.104065 0.10251 -0.417014)
(-0.0370303 0.0295611 0.0256839)
(-0.0789941 0.0415143 0.00431622)
(-0.0779852 0.0711377 -0.0406558)
(-0.0993229 0.0975306 -0.0788486)
(-0.0666143 0.158811 -0.184238)
(-0.0360814 0.0306339 0.0355094)
(-0.0660373 0.0400377 0.0160785)
(-0.0646324 0.063202 -0.0123949)
(-0.0724879 0.076491 -0.0410926)
(-0.041697 0.119615 -0.0920844)
(-0.0271164 0.0357642 0.0430878)
(-0.0464646 0.0450376 0.0320896)
(-0.0415317 0.0647803 0.0161553)
(-0.0431211 0.0774449 0.00400791)
(-0.0238465 0.106356 -0.0192647)
(-0.0263012 0.0249758 0.0530817)
(-0.0370204 0.0257904 0.0427133)
(-0.0321854 0.0349299 0.0352157)
(-0.0309227 0.0356434 0.0248569)
(-0.0133891 0.0477082 0.0159656)
(-0.0751336 0.0180167 0.0163896)
(-0.184885 0.0381276 -0.0166979)
(-0.24457 0.0767529 -0.136308)
(-0.426929 0.143411 -0.287488)
(-0.311282 0.308692 -0.741705)
(-0.0537727 0.0424473 0.0279634)
(-0.126354 0.0662025 0.0151087)
(-0.141243 0.127854 -0.0441136)
(-0.207534 0.204807 -0.0697602)
(-0.14675 0.425041 -0.28782)
(-0.0501937 0.0426728 0.0370983)
(-0.0993819 0.0602812 0.0216701)
(-0.105452 0.103863 -0.0124883)
(-0.129735 0.139698 -0.0444601)
(-0.079256 0.243998 -0.135905)
(-0.0352666 0.0477121 0.043311)
(-0.0652684 0.0638206 0.0375912)
(-0.0618253 0.0979521 0.0218079)
(-0.0679197 0.12473 0.0149769)
(-0.039948 0.183556 -0.0167335)
(-0.033242 0.0317771 0.051406)
(-0.0491414 0.0338017 0.0429635)
(-0.0444386 0.0487514 0.037014)
(-0.0442258 0.0520827 0.0271987)
(-0.0201734 0.0736293 0.0164975)
(-0.0843251 0.0232886 0.0773271)
(-0.259748 0.0544463 0.0444737)
(-0.373338 0.134479 -0.0411951)
(-0.723074 0.190782 -0.254365)
(-1.16785 0.536024 -1.48109)
(-0.0514674 0.0501635 0.0799866)
(-0.150812 0.0796043 0.068896)
(-0.16233 0.194351 0.0191887)
(-0.365234 0.361957 -0.0636848)
(-0.320635 0.760749 -0.502508)
(-0.0528792 0.0459276 0.087017)
(-0.115443 0.0624715 0.0737198)
(-0.130794 0.129151 0.0559451)
(-0.195314 0.160703 0.0183465)
(-0.137403 0.373061 -0.0410779)
(-0.0336989 0.0500299 0.087418)
(-0.0678229 0.066185 0.0840806)
(-0.0640974 0.1141 0.0739822)
(-0.0813838 0.148852 0.0689281)
(-0.0559487 0.25818 0.0449021)
(-0.0356223 0.033936 0.0920425)
(-0.0513707 0.0320136 0.0870218)
(-0.0478945 0.0514957 0.0867596)
(-0.0513354 0.0494263 0.0790386)
(-0.0257832 0.0835668 0.0767945)
(-0.111558 0.0209957 0.114841)
(-0.296597 0.0633901 0.133092)
(-0.459824 0.140312 0.21159)
(-1.26701 0.293629 0.0266165)
(-3.72821 0.59737 -2.65227)
(-0.0668339 0.0520558 0.101772)
(-0.186316 0.094892 0.119242)
(-0.218666 0.220059 0.164804)
(-0.578632 0.418264 0.222134)
(-0.849757 1.39698 0.0493678)
(-0.0651659 0.0501063 0.0968545)
(-0.130358 0.0755201 0.108051)
(-0.160426 0.158248 0.136681)
(-0.221777 0.216439 0.163993)
(-0.145215 0.458281 0.210314)
(-0.0395485 0.0527207 0.0862117)
(-0.0786715 0.0770895 0.0958555)
(-0.0770293 0.128669 0.108326)
(-0.0964463 0.18458 0.119563)
(-0.0642051 0.294608 0.133638)
(-0.0391632 0.0372878 0.0827859)
(-0.0544089 0.0376777 0.0859652)
(-0.0524244 0.0631866 0.096894)
(-0.0541108 0.0641368 0.101102)
(-0.0240957 0.109078 0.115119)
(-0.0687813 0.0106202 0.204671)
(-0.150888 0.0416703 0.23379)
(-0.242612 0.0873008 0.442428)
(-0.784239 0.0918872 0.517074)
(-0.0873189 -0.0384386 -8.61953)
(-0.0352828 0.0320794 0.177723)
(-0.0873252 0.0542372 0.207805)
(-0.0845022 0.109451 0.312094)
(-0.138815 0.137351 0.447013)
(-0.166997 0.374941 0.626934)
(-0.0428442 0.0303793 0.163527)
(-0.0756816 0.039274 0.187241)
(-0.0747 0.0724822 0.252246)
(-0.111752 0.0812934 0.312055)
(-0.0913857 0.238437 0.442808)
(-0.0245707 0.0359227 0.1447)
(-0.0457116 0.0441026 0.160068)
(-0.0405708 0.0743811 0.187344)
(-0.0557182 0.0854858 0.207785)
(-0.0426132 0.150896 0.233984)
(-0.0330045 0.0310594 0.133994)
(-0.0372199 0.0226315 0.144598)
(-0.0327647 0.0412132 0.163603)
(-0.0330064 0.0322267 0.177528)
(-0.0136729 0.0677256 0.205233)
(-0.0839967 -0.00558795 0.151648)
(-0.0527904 0.0382306 0.197391)
(-0.199739 0.00227285 0.298897)
(0.0925312 -0.0694665 -0.478161)
(0.24744 -0.229713 -7.23531)
(-0.0371609 0.010846 0.130619)
(-0.0541491 0.0487187 0.168353)
(-0.0358595 0.0199131 0.230824)
(-0.0481484 0.0456894 0.263161)
(0.0673217 -0.0923513 -0.472137)
(-0.0418857 0.0170693 0.1185)
(-0.0419733 0.0279202 0.146146)
(-0.037992 0.0357801 0.197101)
(-0.020959 0.033708 0.231189)
(-0.00600093 0.197222 0.300441)
(-0.0241672 0.0232219 0.100842)
(-0.0360942 0.0345079 0.121539)
(-0.0294515 0.0403629 0.146152)
(-0.050198 0.0522847 0.16833)
(-0.039339 0.0507044 0.197033)
(-0.028668 0.0266751 0.0876465)
(-0.0248325 0.0221763 0.101089)
(-0.0194929 0.0398722 0.11864)
(-0.0124193 0.0342605 0.131283)
(0.00285874 0.0818969 0.152168)
(-0.0237522 -0.0103403 0.192336)
(0.0067251 0.0140037 0.259437)
(-0.0269593 -0.00122035 0.292453)
(-0.169651 -0.0298884 -0.376125)
(-0.914902 0.286128 -6.07877)
(0.00356637 -0.00115337 0.181336)
(0.00934141 0.00510534 0.221324)
(0.0447554 -0.00725896 0.271139)
(-0.0540281 -0.0727672 0.283628)
(-0.170174 0.0447546 -0.70236)
(-0.0144045 0.000524904 0.16893)
(0.00263629 -0.00749915 0.200475)
(0.00709407 -0.00902586 0.234877)
(0.00662854 -0.0473555 0.27177)
(-0.00231437 0.0266548 0.293089)
(-0.00300079 0.00510392 0.156017)
(-0.000419728 -0.000937758 0.177103)
(0.00619731 -0.00379002 0.200292)
(-0.00692238 -0.0108223 0.221599)
(-0.0155674 -0.00775571 0.259623)
(-0.0190775 0.0173769 0.141501)
(-0.00625356 0.00130235 0.156422)
(-0.00249108 0.0129221 0.169061)
(0.000616291 -0.00596565 0.182321)
(0.00782369 0.0235798 0.192488)
(-0.0144325 -0.0167733 0.110348)
(0.0709713 0.000302016 0.187077)
(0.060588 -0.0468923 0.29634)
(0.0351601 0.000772878 0.0893787)
(0.0288891 -0.0348956 -8.90971)
(0.00516663 -0.0126418 0.0962019)
(0.0354206 -0.00950768 0.148041)
(0.0680701 -0.0612401 0.227163)
(-0.050003 -0.0782147 0.425199)
(-0.270725 0.0141957 0.209265)
(-0.00863631 -0.00830981 0.0801011)
(0.0242424 -0.0165075 0.119021)
(0.0335964 -0.0352887 0.163136)
(0.0605897 -0.0693457 0.228053)
(0.0454786 -0.0608529 0.296444)
(-0.00173802 -0.00423838 0.0689737)
(0.00818027 -0.00954516 0.0934135)
(0.0152563 -0.0257194 0.118835)
(0.00833004 -0.0369102 0.148262)
(-0.000963768 -0.0733047 0.187343)
(-0.0127534 0.011175 0.0525874)
(0.00275812 0.000159226 0.069485)
(0.00645984 0.00694284 0.0804852)
(0.0110807 -0.00735958 0.0973955)
(0.0150121 0.0123569 0.110631)
(0.0584674 -0.0238224 0.160097)
(0.209997 -0.0241918 0.204236)
(0.314835 -0.0964592 0.227668)
(0.668375 -0.110164 -0.186852)
(1.54725 -0.48614 -5.76251)
(0.0588168 -0.0306388 0.157107)
(0.134681 -0.0609415 0.188497)
(0.229642 -0.157867 0.228837)
(0.354344 -0.355541 0.205322)
(0.522428 -0.718321 -0.277166)
(0.0271672 -0.0262516 0.145586)
(0.0836649 -0.0610821 0.172657)
(0.111445 -0.112639 0.189787)
(0.157247 -0.23015 0.230022)
(0.0948392 -0.314543 0.226478)
(0.0231539 -0.0220295 0.140505)
(0.0485815 -0.0496144 0.158073)
(0.0600057 -0.0844292 0.172308)
(0.0595688 -0.135775 0.189024)
(0.023482 -0.210757 0.204268)
(-0.000992903 -0.00018 0.127838)
(0.0212677 -0.0243299 0.1412)
(0.0249608 -0.0280532 0.145851)
(0.0300106 -0.0601968 0.158706)
(0.0223457 -0.058554 0.160257)
(0.0389588 -0.0196751 -0.00496913)
(0.155649 -0.0161837 0.000137035)
(0.199314 -0.0708412 -0.0542123)
(0.495711 -0.246443 -0.496494)
(0.741269 -0.743583 -3.7708)
(0.0423847 -0.0275157 0.0015168)
(0.106953 -0.0422551 0.00305554)
(0.160908 -0.1163 -0.00536273)
(0.259044 -0.260246 -0.0529565)
(0.244159 -0.494118 -0.494297)
(0.0226754 -0.0252868 -0.00358102)
(0.0691159 -0.0476939 0.00526668)
(0.0907854 -0.0916743 -0.00381861)
(0.11438 -0.161997 -0.00408658)
(0.0692464 -0.200257 -0.054336)
(0.018519 -0.0222881 -0.000806235)
(0.0405152 -0.0415337 0.00477049)
(0.0469716 -0.0703282 0.0050717)
(0.0414288 -0.108016 0.00361951)
(0.0158103 -0.156613 0.000702899)
(0.00238785 -0.00325216 -0.00896767)
(0.0210703 -0.0193853 -0.000117644)
(0.0243454 -0.0237483 -0.00311902)
(0.02584 -0.0434887 0.00307345)
(0.0188596 -0.0409235 -0.00429182)
(0.0699143 -0.0168408 0.109775)
(0.170047 -0.0212427 0.123639)
(0.227226 -0.0610943 0.0824865)
(0.411266 -0.217698 -0.324618)
(0.573708 -0.570842 -2.57838)
(0.0647835 -0.0289033 0.115474)
(0.126421 -0.055517 0.123233)
(0.176289 -0.117039 0.114664)
(0.245537 -0.247521 0.0656307)
(0.214862 -0.411134 -0.322642)
(0.0390394 -0.0282225 0.111785)
(0.082892 -0.0590554 0.121291)
(0.100723 -0.100864 0.113526)
(0.116619 -0.176757 0.116071)
(0.0607795 -0.226735 0.0840609)
(0.0307455 -0.0270987 0.114663)
(0.054135 -0.0546718 0.121488)
(0.0585413 -0.0831977 0.121038)
(0.0548855 -0.127239 0.123552)
(0.0205966 -0.170392 0.123357)
(0.00909989 -0.00956613 0.108221)
(0.0267995 -0.0312131 0.115301)
(0.027796 -0.0392574 0.112464)
(0.028507 -0.0651435 0.117)
(0.0163354 -0.0698899 0.1115)
(0.0594169 -0.0138848 -0.0766562)
(0.141371 -0.0163641 -0.0969493)
(0.186542 -0.0490721 -0.135192)
(0.338242 -0.185153 -0.397484)
(0.453925 -0.452107 -1.81344)
(0.0545906 -0.0256465 -0.0696012)