/*--------------------------------*- C++ -*----------------------------------*\
| =========                 |                                                 |
| \\      /  F ield         | OpenFOAM: The Open Source CFD Toolbox           |
|  \\    /   O peration     | Version:  5.x                                   |
|   \\  /    A nd           | Web:      www.OpenFOAM.org                      |
|    \\/     M anipulation  |                                                 |
\*---------------------------------------------------------------------------*/
FoamFile
{
    version     2.0;
    format      ascii;
    class       surfaceScalarField;
    location    "0.093";
    object      phi;
}
// * * * * * * * * * * * * * * * * * * * * * * * * * * * * * * * * * * * * * //

dimensions      [0 3 -1 0 0 0 0];

internalField   nonuniform List<scalar> 
4273
(
-8.57357e-08
-9.54056e-07
4.58113e-08
8.88622e-08
-9.73402e-07
4.79866e-08
2.3547e-07
-1.00125e-06
8.40675e-08
3.47126e-07
-1.01143e-06
1.21668e-07
-1.03582e-06
2.94503e-07
-1.25064e-07
-8.73586e-07
-2.57971e-07
5.28168e-08
-8.92513e-07
-2.5867e-07
2.05443e-07
-9.24629e-07
-2.29156e-07
3.22296e-07
-9.35164e-07
-1.93037e-07
-9.63836e-07
-2.61667e-08
-1.39012e-07
-7.64067e-07
-2.90276e-07
4.08305e-08
-7.82818e-07
-2.89448e-07
1.94992e-07
-8.18763e-07
-2.59945e-07
3.12801e-07
-8.29972e-07
-2.22929e-07
-8.62338e-07
-5.82488e-08
-1.77292e-07
-5.75734e-07
-3.73607e-07
6.6434e-09
-5.93927e-07
-3.72739e-07
1.64414e-07
-6.30066e-07
-3.46389e-07
2.85757e-07
-6.41524e-07
-3.09724e-07
-6.76755e-07
-1.50793e-07
-1.95331e-07
-3.4654e-07
-8.93894e-09
-3.43188e-07
1.49003e-07
-3.16355e-07
2.71342e-07
-2.78306e-07
-1.22995e-07
-1.96902e-07
-3.55663e-08
2.08662e-08
-1.59396e-07
-3.54254e-08
2.77648e-08
-1.66167e-07
-3.90792e-08
1.09652e-07
-1.49568e-07
-4.10311e-08
1.24744e-07
-4.51232e-08
2.6579e-07
-1.93987e-07
-1.34611e-07
-1.93874e-07
-1.59656e-07
-1.38562e-07
-1.89758e-07
-1.67992e-07
-1.46786e-07
-1.13014e-07
-1.51694e-07
-1.51178e-07
-9.90987e-08
-1.58326e-07
3.8875e-08
-1.99051e-07
-2.38453e-07
-2.19292e-07
-1.64801e-07
-2.46704e-07
-2.15461e-07
-1.72159e-07
-2.58967e-07
-1.4032e-07
-1.5427e-07
-2.65479e-07
-1.26439e-07
-2.75144e-07
1.05294e-08
-2.09063e-07
-2.73395e-07
-3.69118e-07
-1.75335e-07
-2.84666e-07
-3.68421e-07
-1.81272e-07
-2.99916e-07
-2.99426e-07
-1.6114e-07
-3.07992e-07
-2.87276e-07
-3.19606e-07
-1.55011e-07
-2.21012e-07
-3.90134e-07
-1.86539e-07
-3.90233e-07
-1.90404e-07
-3.23707e-07
-1.67131e-07
-3.12033e-07
-1.82113e-07
-7.89414e-08
-7.8665e-07
5.51274e-09
8.57978e-08
-8.02118e-07
1.87934e-08
1.92094e-07
-8.28614e-07
1.66824e-07
2.8049e-07
-8.37546e-07
2.01798e-07
-8.58979e-07
4.6665e-07
-1.17139e-07
-7.63125e-07
-3.89979e-07
5.33072e-08
-7.80446e-07
-3.81819e-07
1.64918e-07
-8.11804e-07
-2.4138e-07
2.58853e-07
-8.22018e-07
-2.08508e-07
-8.48409e-07
5.10778e-08
-1.30239e-07
-7.14085e-07
-4.42479e-07
4.18067e-08
-7.33099e-07
-4.34812e-07
1.54886e-07
-7.68487e-07
-2.96672e-07
2.50269e-07
-7.80063e-07
-2.63736e-07
-8.10797e-07
-6.22874e-09
-1.69899e-07
-5.63486e-07
-6.97826e-07
6.31873e-09
-5.83428e-07
-6.94286e-07
1.24332e-07
-6.20421e-07
-5.65474e-07
2.24923e-07
-6.33134e-07
-5.34765e-07
-6.67535e-07
-2.84874e-07
-1.89562e-07
-7.28622e-07
-1.35858e-08
-7.25358e-07
1.08096e-07
-6.01183e-07
2.11025e-07
-5.70433e-07
-3.24827e-07
-1.1339e-07
-5.4245e-07
-3.89545e-08
2.5707e-08
-5.4907e-07
-2.4503e-08
1.05057e-07
-5.63988e-07
1.87427e-07
1.80173e-07
-5.68306e-07
2.27286e-07
-5.80755e-07
5.74167e-07
-1.30696e-07
-5.55636e-07
-5.15047e-07
8.65455e-09
-5.65003e-07
-5.05225e-07
9.01527e-08
-5.8478e-07
-3.02069e-07
1.68169e-07
-5.90777e-07
-2.64033e-07
-6.07789e-07
7.86553e-08
-1.38405e-07
-5.48575e-07
-5.87528e-07
1.11252e-09
-5.60739e-07
-5.78598e-07
8.36149e-08
-5.85336e-07
-3.78612e-07
1.62911e-07
-5.93e-07
-3.40797e-07
-6.1444e-07
1.87651e-10
-1.63343e-07
-4.56952e-07
-9.27567e-07
-2.28052e-08
-4.71085e-07
-9.24509e-07
6.2685e-08
-4.99719e-07
-7.3659e-07
1.45541e-07
-5.0884e-07
-7.01777e-07
-5.34475e-07
-3.69596e-07
-1.77823e-07
-9.86029e-07
-3.67785e-08
-9.84488e-07
5.05044e-08
-8.03068e-07
1.35529e-07
-7.68969e-07
-4.41692e-07
-2.06153e-08
-1.02369e-06
-1.04187e-07
2.19782e-07
-1.04115e-06
-7.96332e-08
3.57031e-07
-1.07194e-06
2.44206e-07
4.70078e-07
-1.08159e-06
3.10053e-07
-1.1049e-06
8.29377e-07
-6.49025e-08
-9.90383e-07
-8.02402e-07
1.8241e-07
-1.01031e-06
-7.83391e-07
3.26656e-07
-1.04847e-06
-4.69797e-07
4.4668e-07
-1.05992e-06
-4.05727e-07
-1.0903e-06
1.09833e-07
-8.03259e-08
-9.21083e-07
-9.12428e-07
1.69049e-07
-9.4343e-07
-8.94882e-07
3.15338e-07
-9.88992e-07
-5.8439e-07
4.37203e-07
-1.00229e-06
-5.20304e-07
-1.03973e-06
-6.27389e-09
-1.30013e-07
-7.04215e-07
-1.40585e-06
1.2446e-07
-7.28176e-07
-1.39429e-06
2.77603e-07
-7.79254e-07
-1.0995e-06
4.06421e-07
-7.94132e-07
-1.03876e-06
-8.38568e-07
-5.35248e-07
-1.54261e-07
-1.48873e-06
1.01988e-07
-1.47939e-06
2.57968e-07
-1.19172e-06
3.89625e-07
-1.13189e-06
-6.34474e-07
2.10486e-08
-1.17591e-06
-2.16044e-07
3.18301e-07
-1.18715e-06
-1.77823e-07
4.85005e-07
-1.21497e-06
2.84167e-07
6.23737e-07
-1.22107e-06
3.78537e-07
-1.23976e-06
1.11312e-06
-2.07969e-08
-1.12758e-06
-1.16448e-06
2.86072e-07
-1.14307e-06
-1.13435e-06
4.60146e-07
-1.17777e-06
-6.8108e-07
6.05332e-07
-1.18586e-06
-5.8613e-07
-1.21194e-06
1.48964e-07
-3.33359e-08
-1.03358e-06
-1.32203e-06
2.75825e-07
-1.05262e-06
-1.29452e-06
4.51889e-07
-1.09518e-06
-8.43062e-07
5.98838e-07
-1.1057e-06
-7.47416e-07
-1.14031e-06
-1.13552e-08
-7.91416e-08
-7.68582e-07
-1.99252e-06
2.3407e-07
-7.90088e-07
-1.97007e-06
4.16874e-07
-8.39963e-07
-1.53752e-06
5.70241e-07
-8.53002e-07
-1.44482e-06
-8.96639e-07
-7.19549e-07
-1.00922e-07
-2.11259e-06
2.13928e-07
-2.09318e-06
3.99358e-07
-1.66854e-06
5.55214e-07
-1.57688e-06
-8.56933e-07
1.5079e-07
-1.71347e-06
-3.81214e-07
5.85636e-07
-1.73778e-06
-3.14756e-07
8.20118e-07
-1.77588e-06
3.57916e-07
1.00143e-06
-1.78601e-06
5.06766e-07
-1.80989e-06
1.56182e-06
9.21058e-08
-1.63224e-06
-1.72001e-06
5.39213e-07
-1.65927e-06
-1.65996e-06
7.85993e-07
-1.70939e-06
-9.94355e-07
9.77466e-07
-1.72214e-06
-8.41478e-07
-1.75741e-06
2.20852e-07
7.74333e-08
-1.4818e-06
-1.95542e-06
5.23871e-07
-1.50388e-06
-1.89632e-06
7.73687e-07
-1.57078e-06
-1.23147e-06
9.67432e-07
-1.58745e-06
-1.07584e-06
-1.63673e-06
-8.94855e-09
-1.18119e-08
-1.06487e-06
-2.88974e-06
4.58078e-07
-1.0975e-06
-2.8463e-06
7.21665e-07
-1.17334e-06
-2.19851e-06
9.26701e-07
-1.19329e-06
-2.04398e-06
-1.25816e-06
-9.86153e-07
-4.30033e-08
-3.05985e-06
4.2767e-07
-3.02041e-06
6.95433e-07
-2.38134e-06
9.04474e-07
-2.22719e-06
-1.17418e-06
2.92291e-07
-2.26321e-06
-6.36764e-07
8.91537e-07
-2.28274e-06
-5.31891e-07
1.21111e-06
-2.31827e-06
4.28599e-07
1.4542e-06
-2.32083e-06
6.5257e-07
-2.33598e-06
2.15203e-06
2.32051e-07
-2.13075e-06
-2.50881e-06
8.5011e-07
-2.15577e-06
-2.40496e-06
1.18571e-06
-2.20229e-06
-1.44592e-06
1.43894e-06
-2.20785e-06
-1.20769e-06
-2.23417e-06
3.14109e-07
2.16339e-07
-1.891e-06
-2.85913e-06
8.40888e-07
-1.92268e-06
-2.75389e-06
1.18092e-06
-1.98392e-06
-1.78983e-06
1.43678e-06
-1.99427e-06
-1.54525e-06
-2.038e-06
-8.46986e-09
1.46383e-07
-1.31048e-06
-4.155e-06
7.79673e-07
-1.34368e-06
-4.05846e-06
1.133e-06
-1.42182e-06
-3.11387e-06
1.39884e-06
-1.43897e-06
-2.86507e-06
-1.50366e-06
-1.33252e-06
1.17727e-07
-4.40053e-06
7.52375e-07
-4.30882e-06
1.11064e-06
-3.37071e-06
1.38097e-06
-3.12108e-06
-1.58785e-06
5.55526e-07
-3.17608e-06
-1.00188e-06
1.40139e-06
-3.20454e-06
-8.27504e-07
1.84277e-06
-3.24685e-06
5.48873e-07
2.15533e-06
-3.24986e-06
9.00195e-07
-3.25931e-06
3.03243e-06
4.71686e-07
-2.99385e-06
-3.64035e-06
1.35089e-06
-3.0292e-06
-3.45946e-06
1.81858e-06
-3.08945e-06
-2.071e-06
2.14582e-06
-3.09587e-06
-1.6889e-06
-3.12278e-06
4.89771e-07
4.48215e-07
-2.63777e-06
-4.17692e-06
1.3374e-06
-2.68284e-06
-3.98935e-06
1.81295e-06
-2.76823e-06
-2.58656e-06
2.14304e-06
-2.78257e-06
-2.18862e-06
-2.83872e-06
2.12892e-08
3.4045e-07
-1.78718e-06
-5.99528e-06
1.25177e-06
-1.84071e-06
-5.81173e-06
1.75006e-06
-1.95557e-06
-4.42474e-06
2.09511e-06
-1.98043e-06
-4.01223e-06
-2.07423e-06
-1.79578e-06
2.93322e-07
-6.35705e-06
1.21072e-06
-6.17521e-06
1.71786e-06
-4.79355e-06
2.06825e-06
-4.37468e-06
-2.1509e-06
8.90155e-07
-4.3695e-06
-1.54161e-06
2.08056e-06
-4.3817e-06
-1.26611e-06
2.69649e-06
-4.40735e-06
6.86406e-07
3.1181e-06
-4.38402e-06
1.22262e-06
-4.35796e-06
4.23167e-06
8.17338e-07
-4.09668e-06
-5.27093e-06
2.05628e-06
-4.11605e-06
-4.96404e-06
2.70903e-06
-4.15636e-06
-2.97472e-06
3.14344e-06
-4.13745e-06
-2.36987e-06
-4.12543e-06
7.3538e-07
8.06038e-07
-3.55403e-06
-6.10266e-06
2.06572e-06
-3.58446e-06
-5.78055e-06
2.73002e-06
-3.65607e-06
-3.75112e-06
3.16858e-06
-3.6496e-06
-3.11502e-06
-3.67651e-06
6.04633e-08
7.01581e-07
-2.32344e-06
-8.65594e-06
1.99387e-06
-2.36938e-06
-8.31894e-06
2.68648e-06
-2.47559e-06
-6.29778e-06
3.138e-06
-2.49058e-06
-5.62276e-06
-2.57314e-06
-2.41437e-06
6.60368e-07
-9.21207e-06
1.96793e-06
-8.87041e-06
2.67009e-06
-6.83514e-06
3.12731e-06
-6.14603e-06
-2.9077e-06
1.46356e-06
-6.16522e-06
-2.29714e-06
3.14514e-06
-6.18116e-06
-1.84354e-06
4.00808e-06
-6.19805e-06
9.297e-07
4.54583e-06
-6.1572e-06
1.77492e-06
-6.09823e-06
6.03442e-06
1.368e-06
-5.81856e-06
-7.58693e-06
3.13309e-06
-5.84249e-06
-7.06779e-06
4.05401e-06
-5.88397e-06
-4.20971e-06
4.605e-06
-5.84437e-06
-3.23367e-06
-5.8059e-06
1.18956e-06
1.35703e-06
-5.01998e-06
-8.91461e-06
3.15128e-06
-5.06512e-06
-8.35213e-06
4.09364e-06
-5.15908e-06
-5.41836e-06
4.6457e-06
-5.13998e-06
-4.37146e-06
-5.16671e-06
1.842e-07
1.20628e-06
-3.23997e-06
-1.25241e-05
3.05999e-06
-3.30527e-06
-1.19324e-05
4.04825e-06
-3.46834e-06
-8.97677e-06
4.61571e-06
-3.479e-06
-7.8512e-06
-3.60293e-06
-3.21922e-06
1.14457e-06
-1.33844e-05
3.01852e-06
-1.27721e-05
4.02765e-06
-9.79311e-06
4.59988e-06
-8.62197e-06
-3.92742e-06
2.20635e-06
-8.65944e-06
-3.35589e-06
4.58422e-06
-8.60761e-06
-2.63936e-06
5.78866e-06
-8.5486e-06
1.27033e-06
6.48717e-06
-8.41478e-06
2.57896e-06
-8.21788e-06
8.53014e-06
2.18263e-06
-8.19687e-06
-1.09131e-05
4.68519e-06
-8.15117e-06
-1.00268e-05
5.98022e-06
-8.10018e-06
-5.95313e-06
6.68172e-06
-7.96934e-06
-4.38056e-06
-7.77434e-06
1.88534e-06
2.21737e-06
-7.00075e-06
-1.3064e-05
4.78965e-06
-6.97547e-06
-1.21001e-05
6.1176e-06
-6.99312e-06
-7.85336e-06
6.82137e-06
-6.89801e-06
-6.14653e-06
-6.79673e-06
3.90116e-07
2.1202e-06
-4.40318e-06
-1.82256e-05
4.76992e-06
-4.43076e-06
-1.71267e-05
6.16271e-06
-4.52927e-06
-1.28334e-05
6.87613e-06
-4.50205e-06
-1.09605e-05
-4.5294e-06
-4.26808e-06
2.09985e-06
-1.96736e-05
4.80131e-06
-1.8516e-05
6.21044e-06
-1.40886e-05
6.92989e-06
-1.2143e-05
-5.28144e-06
3.47862e-06
-1.23843e-05
-4.80091e-06
6.85691e-06
-1.2303e-05
-3.61536e-06
8.57674e-06
-1.218e-05
1.90131e-06
9.44438e-06
-1.19484e-05
3.97778e-06
-1.16538e-05
1.2371e-05
3.45297e-06
-1.18815e-05
-1.5617e-05
7.0523e-06
-1.18006e-05
-1.41284e-05
8.90264e-06
-1.16929e-05
-8.29058e-06
9.73955e-06
-1.1441e-05
-5.72483e-06
-1.11324e-05
3.14776e-06
3.54002e-06
-1.00925e-05
-1.92224e-05
7.23153e-06
-1.00787e-05
-1.75135e-05
9.15108e-06
-1.00914e-05
-1.13744e-05
9.97186e-06
-9.89761e-06
-8.51067e-06
-9.73634e-06
8.63897e-07
3.36977e-06
-6.28945e-06
-2.66021e-05
7.23359e-06
-6.33078e-06
-2.47383e-05
9.25988e-06
-6.539e-06
-1.8412e-05
1.00706e-05
-6.4385e-06
-1.52303e-05
-6.51303e-06
-5.56756e-06
3.32167e-06
-2.8921e-05
7.2441e-06
-2.69286e-05
9.34795e-06
-2.04716e-05
1.01588e-05
-1.70553e-05
-7.08703e-06
5.17214e-06
-1.78881e-05
-6.60123e-06
9.99698e-06
-1.75299e-05
-4.715e-06
1.23711e-05
-1.71192e-05
3.03916e-06
1.33491e-05
-1.65462e-05
6.31414e-06
-1.57552e-05
1.78785e-05
5.47266e-06
-1.74985e-05
-2.23078e-05
1.06241e-05
-1.71008e-05
-1.9709e-05
1.32335e-05
-1.66216e-05
-1.13975e-05
1.4132e-05
-1.6005e-05
-7.16457e-06
-1.51249e-05
5.33155e-06
5.74463e-06
-1.49102e-05
-2.84602e-05
1.11661e-05
-1.45343e-05
-2.55013e-05
1.38806e-05
-1.42005e-05
-1.65099e-05
1.47279e-05
-1.37022e-05
-1.16607e-05
-1.30569e-05
1.81609e-06
5.89164e-06
-9.23021e-06
-3.94797e-05
1.14861e-05
-9.05864e-06
-3.58082e-05
1.43417e-05
-8.9132e-06
-2.65548e-05
1.51339e-05
-8.67855e-06
-2.1046e-05
-8.37867e-06
-7.01765e-06
6.08712e-06
-4.38955e-05
1.18672e-05
-3.98396e-05
1.4743e-05
-2.9925e-05
1.54989e-05
-2.40574e-05
-9.302e-06
8.09717e-06
-2.61496e-05
-8.70188e-06
1.49956e-05
-2.55556e-05
-5.58937e-06
1.84429e-05
-2.48207e-05
5.26141e-06
1.95421e-05
-2.37561e-05
1.04153e-05
-2.26912e-05
2.66244e-05
8.62236e-06
-2.64931e-05
-3.14594e-05
1.61655e-05
-2.57646e-05
-2.70431e-05
1.98606e-05
-2.47783e-05
-1.51349e-05
2.0606e-05
-2.34526e-05
-8.21342e-06
-2.20819e-05
9.24511e-06
9.62329e-06
-2.32259e-05
-4.23159e-05
1.74332e-05
-2.2333e-05
-3.67428e-05
2.12008e-05
-2.1469e-05
-2.35868e-05
2.16988e-05
-2.01896e-05
-1.54217e-05
-1.91162e-05
3.86386e-06
1.03801e-05
-1.47127e-05
-5.99478e-05
1.87008e-05
-1.38202e-05
-5.26418e-05
2.22908e-05
-1.36816e-05
-3.79321e-05
2.23985e-05
-1.2766e-05
-2.85774e-05
-1.23875e-05
-8.32983e-06
1.07426e-05
-6.87595e-05
1.98248e-05
-6.02295e-05
2.31958e-05
-4.3737e-05
2.3069e-05
-3.33524e-05
-1.18514e-05
1.24104e-05
-3.99777e-05
-1.00321e-05
2.23854e-05
-3.80509e-05
-4.98734e-06
2.69158e-05
-3.61604e-05
1.01376e-05
2.73905e-05
-3.36245e-05
1.81609e-05
-3.07143e-05
3.96428e-05
1.53073e-05
-4.49428e-05
-4.27246e-05
2.59838e-05
-4.06184e-05
-3.51521e-05
3.05511e-05
-3.75304e-05
-1.83321e-05
3.02948e-05
-3.42976e-05
-7.28415e-06
-3.06774e-05
1.67613e-05
1.72506e-05
-4.41231e-05
-6.1501e-05
3.01048e-05
-3.89338e-05
-5.12816e-05
3.41965e-05
-3.31939e-05
-3.20151e-05
3.29294e-05
-2.9712e-05
-1.87401e-05
-2.65236e-05
8.51354e-06
2.10935e-05
-2.89195e-05
-9.83079e-05
3.4397e-05
-2.63201e-05
-7.85589e-05
3.74803e-05
-2.13476e-05
-5.28618e-05
3.48803e-05
-1.87733e-05
-3.69161e-05
-1.66365e-05
-8.22091e-06
2.35958e-05
-0.000120513
3.9181e-05
-9.90715e-05
4.08143e-05
-6.34828e-05
3.67712e-05
-4.47522e-05
-1.37471e-05
1.97491e-05
-6.05148e-05
-9.44417e-06
3.35999e-05
-5.61033e-05
-1.5032e-06
3.933e-05
-5.23509e-05
1.93402e-05
3.92939e-05
-4.77212e-05
3.06521e-05
-4.37353e-05
5.83429e-05
2.35148e-05
-7.26147e-05
-5.51785e-05
4.0611e-05
-6.57242e-05
-4.26274e-05
4.55804e-05
-5.63838e-05
-1.92685e-05
4.33114e-05
-5.05693e-05
-2.16693e-06
-4.43151e-05
2.89117e-05
2.86866e-05
-6.17824e-05
-0.00010231
4.66034e-05
-5.93069e-05
-7.56158e-05
5.28992e-05
-5.31704e-05
-4.15243e-05
4.86244e-05
-4.55629e-05
-1.94718e-05
-3.86927e-05
1.75502e-05
2.98229e-05
-3.83905e-05
-0.000153863
5.24773e-05
-3.65376e-05
-0.000123983
6.06127e-05
-3.56201e-05
-7.85475e-05
5.19488e-05
-2.90901e-05
-4.47249e-05
-2.48853e-05
-5.12206e-06
3.16224e-05
-0.00018938
5.49236e-05
-0.000155033
6.69479e-05
-0.000105923
5.56684e-05
-5.77626e-05
-1.34183e-05
2.87517e-05
-9.13854e-05
-5.50386e-06
4.699e-05
-8.20701e-05
7.45233e-06
5.3698e-05
-7.5043e-05
3.49438e-05
5.03271e-05
-6.54527e-05
5.10534e-05
-5.4952e-05
7.91437e-05
3.79901e-05
-9.87958e-05
-8.66429e-05
6.09134e-05
-9.53042e-05
-5.23167e-05
6.61887e-05
-8.3521e-05
-1.60658e-05
6.08776e-05
-7.15408e-05
9.23225e-06
-5.89195e-05
4.90069e-05
4.26845e-05
-8.35342e-05
-0.000161316
7.00429e-05
-7.86665e-05
-0.000119612
8.01525e-05
-7.56031e-05
-5.95517e-05
7.10806e-05
-6.61172e-05
-1.58234e-05
-5.25978e-05
3.32054e-05
4.6868e-05
-5.56368e-05
-0.000230574
7.4143e-05
-5.09963e-05
-0.000178928
8.98648e-05
-4.7642e-05
-0.00012223
7.85306e-05
-4.38392e-05
-5.56687e-05
-3.40189e-05
3.57682e-06
5.26024e-05
-0.000296993
8.04219e-05
-0.000230792
9.50366e-05
-0.000163896
8.76128e-05
-8.96316e-05
-9.08362e-06
3.64053e-05
-0.00011965
-2.39725e-06
5.96988e-05
-0.00010889
1.78741e-05
7.18416e-05
-9.85796e-05
4.95787e-05
7.2554e-05
-8.42656e-05
7.01099e-05
-7.8381e-05
0.000110753
4.58132e-05
-0.000131574
-0.000121535
7.67405e-05
-0.000118934
-7.32002e-05
8.61765e-05
-0.000110267
-1.38143e-05
7.83584e-05
-9.25853e-05
2.53701e-05
-7.85907e-05
6.81517e-05
5.51322e-05
-0.000116056
-0.000233146
8.79267e-05
-0.000103513
-0.000167827
0.000104477
-9.46517e-05
-9.17175e-05
9.28346e-05
-8.30392e-05
-1.37267e-05
-6.73132e-05
4.78687e-05
6.22161e-05
-7.78046e-05
-0.000333706
9.65219e-05
-6.9267e-05
-0.00024748
0.000112456
-6.20705e-05
-0.000170745
0.000102845
-5.2572e-05
-7.65249e-05
-4.39909e-05
1.31753e-05
7.076e-05
-0.000444166
0.000109362
-0.000333999
0.000125493
-0.000235862
0.000114072
-0.000124552
-6.61769e-06
5.51071e-05
-0.000180687
4.51163e-06
9.09363e-05
-0.000157415
3.24249e-05
0.000107697
-0.000143703
7.47152e-05
0.000103977
-0.000122662
0.000106957
-0.000109953
0.000162875
7.31411e-05
-0.000216427
-0.000159923
0.000112129
-0.000184676
-8.49274e-05
0.000126991
-0.000165408
-6.972e-06
0.000116668
-0.000133327
4.6359e-05
-0.000114129
0.000104759
9.66922e-05
-0.000204515
-0.000342822
0.000141584
-0.000168286
-0.000229109
0.000159224
-0.000148319
-0.000126447
0.00013771
-0.000118718
-6.82071e-06
-9.78806e-05
7.28207e-05
0.000114773
-0.000152465
-0.000503036
0.000161559
-0.000121293
-0.000341258
0.000178428
-0.000103513
-0.000232421
0.000151333
-7.98253e-05
-8.83227e-05
-6.28901e-05
2.79613e-05
0.000145836
-0.000741094
0.000197756
-0.000503345
0.000210177
-0.000345835
0.000174432
-0.000162792
-4.58527e-07
7.90247e-05
-0.00025187
1.52226e-05
0.000127748
-0.000215746
5.61513e-05
0.000147406
-0.00019823
0.000116303
0.000138526
-0.000164459
0.000163562
-0.000146356
0.000234728
0.000104482
-0.000318222
-0.00019914
0.00015513
-0.000265163
-8.61581e-05
0.000175303
-0.000231655
6.28046e-06
0.000156387
-0.000184117
8.49325e-05
-0.000155937
0.000161078
0.000143066
-0.000314789
-0.000490636
0.00020655
-0.000254452
-0.000303304
0.000223198
-0.000216032
-0.000158718
0.00019067
-0.000164799
6.38885e-06
-0.000136957
0.000114219
0.000178204
-0.000235052
-0.000764652
0.000244452
-0.000188893
-0.000473066
0.000256262
-0.00015322
-0.000307042
0.000207391
-0.000114511
-8.97392e-05
-8.82832e-05
5.06966e-05
0.000225077
-0.0011991
0.000305961
-0.000766103
0.000310666
-0.000494778
0.000245383
-0.000202958
1.07582e-05
0.000132993
-0.00042574
6.106e-05
0.000196618
-0.000340136
0.000127011
0.000217669
-0.000304788
0.000204642
0.000193092
-0.000234157
0.000266029
-0.000200969
0.000344571
0.000181865
-0.000591538
-0.000216083
0.000249815
-0.000449406
-4.48378e-05
0.000272613
-0.000379667
5.83608e-05
0.000226321
-0.000280544
0.000177611
-0.000226012
0.000263608
0.000284498
-0.000678173
-0.000689368
0.000369969
-0.000468471
-0.000369709
0.000371391
-0.000379175
-0.000160633
0.000296879
-0.000258635
5.89933e-05
-0.000206108
0.000203314
0.000376796
-0.000610791
-0.00121201
0.000459622
-0.000385802
-0.000638561
0.000441114
-0.000294189
-0.000373519
0.000331419
-0.000190613
-4.80658e-05
-0.000142749
0.000121365
0.000602223
-0.0024095
0.000669365
-0.00121474
0.000583332
-0.000694517
0.000416458
-0.000219513
5.59516e-05
0.000182427
-0.00060452
0.000150996
0.000259239
-0.000462838
0.000249341
0.000275832
-0.000402176
0.000341734
0.000238051
-0.000295267
0.000407992
-0.000247932
0.000482175
0.000262432
-0.000898371
-0.000185655
0.00034547
-0.000648308
5.75949e-05
0.000357738
-0.000526804
0.00017072
0.00028495
-0.000368571
0.000323703
-0.00028587
0.000404905
0.000437059
-0.00107648
-0.000949815
0.000539372
-0.000735089
-0.000385241
0.000516537
-0.000551371
-0.00011323
0.000393166
-0.00035804
0.000171833
-0.000269177
0.000339927
0.000646531
-0.000981225
-0.00195917
0.000722531
-0.000661219
-0.000788431
0.000637367
-0.000450113
-0.000389613
0.000452428
-0.000275926
5.47596e-05
-0.000191381
0.000242095
0.000967284
-0.00435564
0.00106982
-0.00196523
0.000891054
-0.000953308
0.000596389
-0.000188105
0.00014776
0.00026804
-0.00104415
0.000424899
0.000361141
-0.000713218
0.000503846
0.000374012
-0.000594363
0.000582788
0.000313528
-0.000397899
0.000623557
-0.000323735
0.000680005
0.000453634
-0.00171521
3.12675e-05
0.000530625
-0.00108139
0.000348773
0.00051083
-0.000841033
0.000437185
0.000387811
-0.00052046
0.000569282
-0.000384548
0.000620918
0.000871037
-0.00267432
-0.000862218
0.00096487
-0.00137452
-0.000185935
0.000831096
-0.000976311
0.000155821
0.000584323
-0.00054057
0.000438716
-0.000372812
0.000582498
0.00141259
-0.00306348
-0.00298668
0.00136396
-0.00142625
-0.000688081
0.00107201
-0.00088469
-0.000189279
0.000702018
-0.000462528
0.000346706
-0.000280149
0.000497886
0.00305139
-0.00252896
-0.00203429
-0.00337233
-0.00252926
0.00266763
-0.00300175
0.00170721
-0.00086426
0.00103296
3.1062e-05
0.000423523
0.000316619
-0.00135033
0.000841288
0.000412906
-0.000834618
0.000844141
0.000407986
-0.000678586
0.000883279
0.000339765
-0.000426251
0.000863715
-0.000351568
0.000881772
0.000570418
-0.00259458
0.000704561
0.000631571
-0.00139136
0.000844357
0.000567107
-0.00100964
0.000832704
0.000413451
-0.000580003
0.00087669
-0.000420164
0.000860882
0.00127322
-0.0049673
0.000236148
0.00129851
-0.00217264
0.000570059
0.000997688
-0.0013129
0.000759906
0.000668417
-0.000647373
0.000835357
-0.000424758
0.000882929
0.00277329
-0.00132598
-0.000467218
-0.00035654
-0.00135554
-0.000837241
-0.00120585
-0.00303198
-0.00215541
0.00215663
-0.00280638
0.000171411
0.000116848
0.000100133
0.000173924
0.00138178
-0.00129311
0.000565777
0.00082167
-0.000586386
0.000845827
-0.00032698
0.000837566
0.000889669
-0.0011519
-0.00360048
0.00497102
-0.000864839
-0.000360727
-0.00136776
-0.000462983
-0.00119703
-0.00131731
-0.00214544
-0.00302226
0.00259131
0.000238951
0.00134375
0.000708264
0.000841354
0.000375444
-0.00183174
0.00149322
0.000474759
-0.00110244
0.00135084
0.000457035
-0.000839168
0.00127736
0.000372448
-0.000498426
0.00115622
-0.000384785
0.00110555
0.000745879
-0.00357667
0.00170394
0.000788737
-0.00187276
0.00157182
0.000680254
-0.00130512
0.00140714
0.000486408
-0.000690808
0.00126292
-0.000469729
0.00115475
0.00172307
-0.00216128
0.00271096
-0.00180243
-0.00208382
-0.00172702
0.00179057
-0.000930459
0.00216375
-0.000906444
-0.000867791
-0.00082925
0.00129376
-0.00180148
0.00175307
0.000827091
-0.000798428
0.00140964
-0.000487491
0.00127844
0.000770642
-0.00368292
0.000280643
-0.000974358
0.00102263
-0.00124205
0.000434733
0.00186225
-0.0017425
0.00216076
-0.000902589
-0.000928529
-0.000824779
-0.000860312
0.00108758
-0.000752696
0.00157476
-0.000386396
0.00134434
0.00150754
0.00114042
0.00050003
-0.00174179
-0.00140754
-0.000805316
0.00262955
-0.00142935
0.000226816
-0.000944397
-0.000867481
-0.00113852
0.00146385
0.003569
0.00271874
-0.00180053
-0.0021669
-0.00171913
-0.00208378
0.00181614
0.0017092
0.00149982
0.000267295
-0.00119925
0.00188561
0.00034787
-0.000673826
0.00164803
0.000339641
-0.000586421
0.00151744
0.000297481
-0.000335877
0.00133219
-0.000309907
0.00122275
0.000539193
-0.00226164
0.00222824
0.000517382
-0.00105234
0.00197214
0.000444489
-0.000870793
0.00176441
0.000322289
-0.000454754
0.001504
-0.00035288
0.00133218
0.00117105
-0.00178646
0.00385365
-0.00133589
-0.000855022
-0.000597536
0.00116864
-0.000687256
0.00286473
-0.000539441
-0.000239698
-0.00028451
0.000861077
-0.00117157
0.00236141
0.00057604
-0.000526108
0.00176603
-0.000360195
0.0015191
0.000602025
0.00150396
-0.0011329
-0.000562464
-0.00083637
-0.000798467
-0.000563456
-0.000776148
0.000655007
-0.000844279
0.00107517
-0.000797002
0.00103787
-0.00118556
0.00286344
-0.00053427
-0.000681546
-0.00028028
-0.000230456
0.000655635
-0.000543342
0.00197423
-0.000284487
0.00164879
0.000542299
0.00457213
1.10293e-06
-7.3293e-05
-0.00504359
-0.000700457
0.00176141
0.00137272
-0.000500846
-0.000359808
-0.000118389
0.000930365
-0.00157964
-0.000209021
-0.000136976
-0.000181495
-0.000277858
0.00224998
0.00385272
-0.00132323
-0.00179257
-0.000592227
-0.000864297
0.00119691
0.00223034
0.00188957
0.000100951
-0.000678234
0.00187937
0.000171371
-0.000404334
0.00169495
0.000204509
-0.000389439
0.00156617
0.00021785
-0.000263835
0.0013951
-0.000231374
0.00126385
0.000416951
-0.00121903
0.00235205
0.000362312
-0.000429449
0.00205189
0.000297414
-0.00040783
0.0018477
0.000250854
-0.000307024
0.00159374
-0.000218646
0.00139719
0.000384472
-0.000675633
0.00336353
-0.000281123
-8.70906e-05
-6.7719e-05
0.00038605
-0.000270308
0.00270401
0.000393769
-0.000397886
0.00234375
0.000375788
-0.000370956
0.00184795
-0.000183909
0.00156788
8.13073e-05
7.33248e-05
0.000144302
-0.000978027
0.000253908
0.000261693
0.00267596
-0.000174183
0.000262152
-0.000195928
0.000517119
-0.000177887
0.000503791
-0.000195732
-0.0009149
-0.000897338
-0.00127435
-0.000914619
0.00041245
-0.000400806
0.00270782
0.000385749
-0.000421314
0.00205129
-0.000121481
0.00170701
-0.000242391
0.00463037
-0.000184053
9.86556e-05
-0.00430671
0.00096954
-0.000149515
0.000421938
-0.000384504
-0.000595765
0.00120417
0.00337296
-0.000274283
-0.00069077
-6.3796e-05
-9.31248e-05
0.000663452
0.00235286
0.00188234
-5.17164e-05
-7.93003e-05
0.00172217
1.41879e-06
1.8308e-05
0.00158788
3.64982e-05
-6.29898e-05
0.00145046
9.79797e-05
-3.81045e-05
0.0013246
-0.000108661
0.00117762
0.000174795
-0.000330206
0.00243021
5.72515e-05
0.000162061
0.00202568
6.98896e-06
4.78327e-05
0.00178714
2.65488e-05
-1.68785e-05
0.00155296
-4.76406e-05
0.00132831
-0.000193392
0.000317288
0.00305783
0.000263608
-0.000297152
-0.00011286
-0.000156314
0.000222136
0.00260686
-6.46228e-05
0.000143142
0.00215675
5.4583e-05
-7.06155e-05
0.00178248
-1.05125e-05
0.00145182
0.000602909
7.63425e-06
0.000354877
-0.000649718
-0.000243633
0.000180514
0.00089371
0.000751083
0.000792102
0.000893372
-4.70174e-05
0.000191994
0.000200987
-0.000426656
-5.07107e-05
-0.000431283
0.000193638
-0.00018003
0.000175035
0.00261232
-4.3271e-05
-0.000183169
0.00202708
3.74375e-05
0.00159388
0.00381086
1.70416e-05
-1.98442e-05
-9.81118e-05
-0.00370983
0.000184873
0.00127264
-0.000412263
0.000145497
-0.00137565
0.000147669
0.000167124
5.06297e-05
0.000321156
0.00306173
0.000267136
0.000312549
-0.000112286
-0.000292944
7.304e-05
0.00242717
0.00172215
-8.36961e-05
7.81233e-05
0.00156373
-6.27348e-05
8.65715e-05
0.00146024
-2.55492e-05
3.72266e-06
0.00131449
4.74047e-05
-5.23935e-06
0.00122152
-5.98998e-05
0.00107923
3.16806e-05
0.000204862
0.00227338
-4.62453e-05
0.000278785
0.00191139
-6.60763e-05
0.000148267
0.00166242
-8.27753e-06
5.32859e-05
0.00143663
8.65556e-06
0.00122782
-0.000315552
-0.000129222
0.00287566
1.17327e-05
0.000395844
0.000424928
-0.000247298
-0.000150864
0.00254563
1.51582e-05
0.000151436
0.000256027
-0.00016337
0.000234031
0.00198706
-2.02251e-05
3.47855e-05
0.00165783
4.47305e-05
0.00131372
3.19368e-05
0.000168324
0.000258565
-0.000228193
-0.000218054
-6.78763e-05
-7.49964e-05
3.56018e-05
-2.35287e-05
-0.00018148
0.000912253
-0.000288719
0.000293778
0.00255809
1.7184e-05
-0.000146882
0.000258012
0.00015489
-0.000102623
-3.73152e-05
0.00191309
6.67331e-05
0.00147055
0.00424113
0.00045619
0.000225245
-0.000117903
-0.00480742
-0.000192941
0.000173484
0.00011268
-0.000211314
1.46942e-05
0.000103397
-0.000216354
0.00287417
2.48063e-05
-0.000126682
0.000426693
0.000402889
-9.57731e-05
0.00226989
0.0015656
-0.000224456
0.00116064
0.00112461
-0.000238469
0.000845596
0.00111218
-0.00020879
0.000485841
0.00101218
-9.90778e-05
0.000318266
0.000981929
9.12774e-05
0.000859397
-0.0003783
0.00234908
0.00146611
-0.000538089
0.00157722
0.00133956
-0.000479786
0.000851478
0.00123848
-0.000324004
0.000474299
0.00112482
0.000204689
0.000989084
-0.00109683
0.00104054
0.00151733
0.00109122
0.00144276
0.00123266
-0.0011755
0.0025968
0.00160473
-0.00085683
0.00117357
0.00134629
-0.000489262
0.000529816
0.00123475
0.000233517
0.00101512
-0.000392483
0.00170924
-9.24496e-05
-0.000182205
-0.00260149
0.000857715
0.0014497
0.000667485
0.00086539
0.000646667
0.00119633
0.000681617
0.00118237
0.000642863
-0.000693051
-0.000616658
-0.000990841
-0.000691296
-0.00158047
0.00109174
0.0016189
-0.000854656
0.000372948
0.00134414
0.00021717
0.00112817
0.00429874
-0.000626734
-0.000357708
0.000421019
-0.00373775
0.000410359
-0.0014768
0.000623469
-0.000351764
0.000666374
0.000453359
0.00070566
-0.000172941
-0.00234425
0.00151196
0.00108954
0.00103624
0.00125013
0.00144318
-0.00116348
0.00146654
0.00112766
-0.000239103
0.00100614
0.000744497
-0.000263844
0.000719858
0.000793562
-0.000231942
0.000444033
0.00073312
-0.000114936
0.000269776
0.000752834
0.000107941
0.000661495
-0.000307708
0.0018995
0.000885797
-0.000439735
0.00130461
0.000886835
-0.000421573
0.000808669
0.000855686
-0.00027833
0.00041483
0.000836523
0.000224785
0.000759956
-0.00100535
0.00395988
0.000471081
-0.00108684
0.00214315
0.000847676
-0.000812911
0.00107827
0.000802757
-0.000452909
0.000435201
0.000854375
0.000254103
0.000739843
-0.00263774
0.00706558
-0.00349619
0.00037069
0.00043997
0.00153295
0.000684566
-0.00215655
0.00261596
0.0004957
-0.00131241
0.000993807
0.000859226
-0.000729871
0.000304884
0.000891915
0.000228567
0.000810059
-0.00703804
-0.0329144
0.0119808
0.00730803
0.0157942
0.0119152
-0.00394984
-0.00347326
0.000682825
0.000444808
0.00153
0.000373185
-0.00189944
0.000477793
-0.0010152
0.00088836
0.000758091
-0.000223032
0.0011785
0.000467935
-0.000265154
0.000893831
0.000538591
-0.000251549
0.00056728
0.000512404
-0.000164453
0.000387897
0.000556734
0.000163695
0.000499552
-0.000391811
0.00203342
0.000426911
-0.000540887
0.00143349
0.000496255
-0.000523008
0.000868146
0.000536941
-0.000391463
0.00051944
0.000573435
0.000251245
0.000563358
-0.000916845
0.0034972
-6.70427e-05
-0.00105959
0.00209112
0.000332795
-0.000868078
0.00106269
0.000416694
-0.000568041
0.000538266
0.000535512
0.000264603
0.000519145
-0.00242704
0.00546169
-0.00304028
-0.00209677
0.00241041
-0.000153855
-0.00143796
0.000918775
0.000344334
-0.000898596
0.000390703
0.000500112
0.000221487
0.000553719
-0.00545333
-0.0219625
-0.00349546
-0.00302763
-0.00203358
-5.13126e-05
-0.00117639
0.000427118
0.000485304
-0.000215291
0.00102995
0.000239292
-0.000271823
0.000800163
0.000318692
-0.000267431
0.00052499
0.000317296
-0.000184757
0.000359905
0.000374373
0.000180663
0.000349524
-0.000327795
0.00175988
3.14849e-05
-0.000480021
0.00130008
0.000148561
-0.000483809
0.000807687
0.000258033
-0.000364627
0.00047823
0.000335927
0.000263797
0.000378458
-0.000820955
0.00278505