/*--------------------------------*- C++ -*----------------------------------*\
| =========                 |                                                 |
| \\      /  F ield         | OpenFOAM: The Open Source CFD Toolbox           |
|  \\    /   O peration     | Version:  5.x                                   |
|   \\  /    A nd           | Web:      www.OpenFOAM.org                      |
|    \\/     M anipulation  |                                                 |
\*---------------------------------------------------------------------------*/
FoamFile
{
    version     2.0;
    format      ascii;
    class       volScalarField;
    location    "0.093";
    object      phiIB;
}
// * * * * * * * * * * * * * * * * * * * * * * * * * * * * * * * * * * * * * //

dimensions      [0 2 -1 0 0 0 0];

internalField   nonuniform List<scalar> 
1546
(
-0.000409046
-0.00040907
-0.000409085
-0.000409122
-0.000409222
-0.000408688
-0.000408707
-0.000408706
-0.000408738
-0.000408824
-0.000408657
-0.000408677
-0.000408674
-0.000408706
-0.000408787
-0.000408506
-0.000408522
-0.000408511
-0.00040854
-0.000408608
-0.000408529
-0.000408547
-0.000408533
-0.000408563
-0.000408626
-0.0007917
-0.000791688
-0.000791677
-0.000791682
-0.000791658
-0.000791585
-0.00079157
-0.000791556
-0.000791559
-0.000791533
-0.000791501
-0.000791483
-0.000791465
-0.000791467
-0.000791439
-0.000791438
-0.000791417
-0.000791394
-0.000791393
-0.000791362
-0.000791403
-0.000791377
-0.000791349
-0.000791346
-0.000791313
-0.00191324
-0.00191324
-0.00191324
-0.00191329
-0.00191341
-0.0019128
-0.00191278
-0.00191277
-0.00191281
-0.00191291
-0.00191262
-0.00191259
-0.00191258
-0.00191261
-0.0019127
-0.00191237
-0.00191234
-0.0019123
-0.00191233
-0.0019124
-0.00191229
-0.00191225
-0.00191221
-0.00191223
-0.0019123
-0.00245415
-0.00245413
-0.00245414
-0.0024542
-0.0024543
-0.00245377
-0.00245374
-0.00245374
-0.00245379
-0.00245388
-0.00245353
-0.00245349
-0.00245348
-0.00245352
-0.0024536
-0.00245328
-0.00245323
-0.0024532
-0.00245324
-0.00245331
-0.00245315
-0.00245309
-0.00245306
-0.00245309
-0.00245315
-0.00350438
-0.00350436
-0.00350441
-0.00350452
-0.00350476
-0.00350374
-0.0035037
-0.00350373
-0.00350382
-0.00350405
-0.0035034
-0.00350335
-0.00350336
-0.00350345
-0.00350366
-0.003503
-0.00350294
-0.00350293
-0.00350301
-0.00350319
-0.00350283
-0.00350275
-0.00350274
-0.0035028
-0.00350297
-0.00411896
-0.00411895
-0.00411904
-0.0041192
-0.00411954
-0.0041182
-0.00411817
-0.00411825
-0.0041184
-0.00411872
-0.00411776
-0.00411772
-0.00411778
-0.00411792
-0.00411822
-0.0041173
-0.00411723
-0.00411727
-0.00411739
-0.00411768
-0.00411708
-0.004117
-0.00411702
-0.00411714
-0.0041174
-0.00510443
-0.00510444
-0.00510462
-0.00510488
-0.00510544
-0.00510335
-0.00510334
-0.00510348
-0.00510373
-0.00510426
-0.00510276
-0.00510273
-0.00510286
-0.00510309
-0.0051036
-0.00510212
-0.00510206
-0.00510215
-0.00510236
-0.00510284
-0.00510185
-0.00510176
-0.00510183
-0.00510202
-0.00510248
-0.00577188
-0.00577192
-0.00577221
-0.0057726
-0.0057734
-0.00577048
-0.0057705
-0.00577075
-0.00577113
-0.00577191
-0.0057697
-0.0057697
-0.00576993
-0.00577029
-0.00577106
-0.00576888
-0.00576887
-0.00576906
-0.0057694
-0.00577013
-0.00576853
-0.0057685
-0.00576867
-0.00576898
-0.00576969
-0.00670606
-0.00670614
-0.0067066
-0.00670718
-0.00670839
-0.00670412
-0.00670417
-0.00670458
-0.00670514
-0.00670632
-0.00670308
-0.00670311
-0.00670349
-0.00670403
-0.00670519
-0.00670198
-0.00670199
-0.00670231
-0.00670282
-0.00670393
-0.00670151
-0.00670151
-0.00670181
-0.0067023
-0.00670337
-0.00741086
-0.007411
-0.00741168
-0.00741253
-0.00741426
-0.00740826
-0.00740838
-0.00740902
-0.00740986
-0.00741158
-0.00740686
-0.00740695
-0.00740757
-0.00740838
-0.0074101
-0.00740544
-0.00740551
-0.00740607
-0.00740685
-0.00740853
-0.00740485
-0.0074049
-0.00740543
-0.00740619
-0.00740785
-0.00830154
-0.00830174
-0.00830273
-0.00830388
-0.00830638
-0.00829798
-0.00829815
-0.00829907
-0.00830022
-0.0083027
-0.00829616
-0.00829629
-0.00829718
-0.00829831
-0.00830078
-0.00829429
-0.00829439
-0.00829519
-0.00829629
-0.00829869
-0.00829357
-0.00829364
-0.0082944
-0.00829546
-0.00829784
-0.00902932
-0.00902963
-0.00903099
-0.0090326
-0.00903608
-0.00902449
-0.00902477
-0.00902611
-0.00902775
-0.00903129
-0.00902205
-0.0090223
-0.00902363
-0.00902524
-0.00902882
-0.00901962
-0.00901985
-0.00902111
-0.00902271
-0.00902625
-0.0090187
-0.0090189
-0.00902013
-0.00902168
-0.0090252
-0.00987794
-0.00987822
-0.00987994
-0.00988187
-0.00988666
-0.00987155
-0.0098718
-0.00987346
-0.00987541
-0.00988024
-0.00986876
-0.00986896
-0.00987056
-0.00987247
-0.00987732
-0.00986585
-0.00986602
-0.00986749
-0.00986934
-0.0098741
-0.0098649
-0.00986504
-0.00986645
-0.00986824
-0.00987294
-0.0106107
-0.0106109
-0.010613
-0.0106153
-0.0106216
-0.0106023
-0.0106026
-0.0106047
-0.010607
-0.0106136
-0.0105994
-0.0105995
-0.0106015
-0.0106036
-0.0106102
-0.010596
-0.0105962
-0.0105981
-0.0106001
-0.0106066
-0.010595
-0.0105951
-0.010597
-0.0105989
-0.0106054
-0.0114072
-0.011407
-0.0114089
-0.0114106
-0.0114185
-0.0113982
-0.0113978
-0.0113992
-0.0114006
-0.0114084
-0.0113981
-0.0113971
-0.0113977
-0.0113982
-0.0114056
-0.0113982
-0.0113963
-0.0113955
-0.011395
-0.0114019
-0.0113999
-0.0113973
-0.0113957
-0.0113946
-0.0114011
-0.0121072
-0.0121066
-0.0121085
-0.0121096
-0.0121194
-0.0120982
-0.0120969
-0.0120978
-0.0120979
-0.0121074
-0.0121032
-0.0121003
-0.0120988
-0.0120967
-0.0121051
-0.0121157
-0.0121054
-0.0120981
-0.0120941
-0.0121016
-0.0121284
-0.0121141
-0.0120993
-0.0120944
-0.0121013
-0.0127998
-0.0127984
-0.0128002
-0.0128009
-0.0128159
-0.0127941
-0.0127903
-0.0127888
-0.0127868
-0.0127982
-0.012807
-0.0127975
-0.0127925
-0.0127885
-0.0127963
-0.0128154
-0.0128073
-0.0127954
-0.012787
-0.0127924
-0.0128216
-0.0128135
-0.012803
-0.0127888
-0.0127932
-0.0133562
-0.0133565
-0.0133612
-0.0133703
-0.0134042
-0.0133452
-0.0133417
-0.0133416
-0.0133436
-0.0133671
-0.0133414
-0.0133411
-0.0133422
-0.0133407
-0.0133562
-0.0133346
-0.0133352
-0.0133384
-0.0133384
-0.0133489
-0.0133297
-0.0133324
-0.0133364
-0.0133396
-0.013348
-0.0138036
-0.0138079
-0.0138267
-0.0138497
-0.0138906
-0.0137709
-0.0137739
-0.013782
-0.0137982
-0.0138445
-0.0137522
-0.0137558
-0.0137688
-0.0137782
-0.0138182
-0.0137309
-0.0137367
-0.0137505
-0.0137653
-0.013795
-0.0137196
-0.0137265
-0.013743
-0.0137583
-0.0137873
-0.0140841
-0.0140981
-0.0141252
-0.0141558
-0.0142069
-0.0140078
-0.0140229
-0.0140477
-0.01409
-0.0141498
-0.0139436
-0.0139673
-0.0139998
-0.0140426
-0.014114
-0.0138962
-0.0139267
-0.0139599
-0.0140104
-0.0140794
-0.0138368
-0.0138895
-0.0139302
-0.0139899
-0.0140606
-0.014267
-0.0142734
-0.0142944
-0.0143191
-0.0143779
-0.0141533
-0.0141709
-0.014202
-0.0142449
-0.0143124
-0.0140792
-0.014103
-0.0141433
-0.0141962
-0.0142823
-0.0140196
-0.0140598
-0.0140959
-0.0141576
-0.0142541
-0.0139683
-0.0140108
-0.0140654
-0.0141336
-0.0142409
-0.0143176
-0.0143248
-0.0143438
-0.0143744
-0.0144522
-0.014157
-0.0141901
-0.0142252
-0.014278
-0.0143661
-0.0140033
-0.0140768
-0.014128
-0.014219
-0.0143293
-0.0139399
-0.0140279
-0.0140685
-0.0141755
-0.0143027
-0.0137466
-0.0139271
-0.0139862
-0.0141358
-0.0142909
-0.0143266
-0.0143254
-0.0143382
-0.0143539
-0.0144367
-0.0141796
-0.0142167
-0.0142244
-0.0142622
-0.0143456
-0.0140866
-0.0141324
-0.0141639
-0.014218
-0.014324
-0.0140268
-0.0141547
-0.0141269
-0.0142034
-0.0143037
-0.0138786
-0.0140063
-0.0140737
-0.0141596
-0.0143043
-0.0142922
-0.0142958
-0.0143226
-0.0143608
-0.0144612
-0.0141187
-0.0141415
-0.0141585
-0.0142334
-0.0143504
-0.0139095
-0.0140084
-0.0140557
-0.0141508
-0.0143039
-0.0139412
-0.0139746
-0.0140033
-0.0141239
-0.0142669
-0.013534
-0.0139009
-0.0138894
-0.0140894
-0.0142533
-0.0142134
-0.0142207
-0.0142416
-0.0142713
-0.0143733
-0.0139756
-0.0141077
-0.0140825
-0.0141659
-0.0142616
-0.0137831
-0.0139118
-0.013949
-0.0140741
-0.0142239
-0.0135729
-0.0142151
-0.013912
-0.0140891
-0.0141887
-0.0124645
-0.0135164
-0.0137628
-0.0139323
-0.0141726
-0.0142027
-0.0141734
-0.0142335
-0.0142662
-0.0143895
-0.0139574
-0.0140097
-0.014012
-0.0141264
-0.0142536
-0.0136976
-0.0137198
-0.0138936
-0.0139993
-0.0142075
-0.0132812
-0.0135873
-0.0137043
-0.0139799
-0.01413
-0.0117237
-0.0121307
-0.0135963
-0.0138878
-0.0141341
-0.014086
-0.0140534
-0.0140558
-0.0140755
-0.0141745
-0.0140499
-0.0139952
-0.0139756
-0.0139977
-0.0140641
-0.0140472
-0.0139821
-0.0139138
-0.0139627
-0.0140345
-0.0140612
-0.0138755
-0.0139605
-0.0139667
-0.0140172
-0.0171994
-0.014782
-0.0140033
-0.0139993
-0.0140355
-0.0141064
-0.0140317
-0.014066
-0.0140851
-0.0141843
-0.0138708
-0.0138999
-0.0139082
-0.0139806
-0.0140719
-0.013788
-0.0137256
-0.0138389
-0.0138928
-0.0140365
-0.0134775
-0.0137156
-0.0137066
-0.0138666
-0.0139858
-0.0139165
-0.0136135
-0.0137429
-0.0138103
-0.0140329
-0.0136744
-0.0136089
-0.0136385
-0.0136635
-0.0137519
-0.0134825
-0.0134974
-0.013535
-0.0135879
-0.0136539
-0.0133749
-0.0133899
-0.0134599
-0.0135232
-0.0136141
-0.0135607
-0.0132165
-0.013375
-0.0134746
-0.0135642
-0.013065
-0.0130037
-0.0133429
-0.0134402
-0.0136217
-0.0137957
-0.0137096
-0.013722
-0.0137234
-0.0137689
-0.0136918
-0.0136655
-0.0136743
-0.0136816
-0.013715
-0.0138553
-0.0136974
-0.0137214
-0.0136675
-0.0136993
-0.013599
-0.0135127
-0.0136812
-0.0136454
-0.0136739
-0.0122923
-0.0132993
-0.0138198
-0.0136527
-0.0137455
-0.0131116
-0.0130616
-0.0130483
-0.0130319
-0.0130346
-0.0130905
-0.0130815
-0.013063
-0.0130365
-0.0130261
-0.0132569
-0.0131243
-0.0131109
-0.0130598
-0.0130384
-0.0133961
-0.0132541
-0.0131109
-0.0130672
-0.0130425
-0.0147335
-0.0139216
-0.0132265
-0.0130716
-0.0130793
-0.0130819
-0.0130672
-0.0130377
-0.0130442
-0.0130197
-0.0130102
-0.0130781
-0.0130686
-0.0130668
-0.0130423
-0.0132103
-0.013085
-0.0130889
-0.0130638
-0.0130318
-0.0130237
-0.0132628
-0.0130734
-0.0130674
-0.0130535
-0.012855
-0.0130711
-0.0131929
-0.012993
-0.0130605
-0.0120631
-0.0120354
-0.0120113
-0.0119841
-0.0119668
-0.0120366
-0.0120616
-0.0120411
-0.0120099
-0.0119801
-0.0121213
-0.0121113
-0.0120982
-0.0120355
-0.012002
-0.01217
-0.0121905
-0.0121034
-0.012048
-0.0120193
-0.0120575
-0.0121693
-0.0121097
-0.0120223
-0.0120442
-0.0116292
-0.0116478
-0.0116355
-0.0116472
-0.0116346
-0.0116249
-0.0116597
-0.01166
-0.0116622
-0.0116453
-0.0115977
-0.0116382
-0.0116265
-0.0116488
-0.011626
-0.0116454
-0.0116662
-0.0116233
-0.0116439
-0.0116379
-0.0116323
-0.0116453
-0.0115872
-0.011611
-0.011619
-0.00980564
-0.00982901
-0.0098459
-0.00986744
-0.00987325
-0.00979094
-0.00982599
-0.00983919
-0.00986126
-0.0098635
-0.0098202
-0.00982768
-0.00980276
-0.00982598
-0.0098348
-0.00988646
-0.00987974
-0.00979972
-0.00980302
-0.0098162
-0.00986165
-0.00988085
-0.0098062
-0.00978108
-0.00979976
-0.00883135
-0.00883882
-0.00882821
-0.00882849
-0.00882555
-0.00886089
-0.00886371
-0.00884644
-0.00883921
-0.00882776
-0.00890647
-0.00888513
-0.00884251
-0.00883714
-0.00882108
-0.00908628
-0.00898996
-0.00887906
-0.00884755
-0.00883035
-0.00920045
-0.00908233
-0.00890176
-0.00885504
-0.00882807
-0.00636051
-0.00634236
-0.00631729
-0.00630125
-0.00629512
-0.00638855
-0.00636692
-0.0063321
-0.00631098
-0.00630072
-0.00644911
-0.00643704
-0.00637583
-0.00633037
-0.00631729
-0.00652713
-0.00649573
-0.00642223
-0.00636744
-0.00634582
-0.00657935
-0.00652599
-0.0064485
-0.00638818
-0.00636049
-0.00520043
-0.00518898
-0.00517375
-0.00516679
-0.00516612
-0.0052346
-0.00521687
-0.00519375
-0.00518146
-0.00517028
-0.00531185
-0.00527425
-0.00522343
-0.00520182
-0.00518163
-0.00545207
-0.00539392
-0.00528941
-0.0052333
-0.00520084
-0.00553476
-0.00545534
-0.00531925
-0.00524257
-0.00520859
-0.0021688
-0.0021496
-0.00213016
-0.00212649
-0.0021296
-0.00217386
-0.00215567
-0.00214323
-0.00212723
-0.002129
-0.00219497
-0.00218266
-0.00217675
-0.00215565
-0.0021385
-0.0021823
-0.00221265
-0.00221489
-0.00217535
-0.00215822
-0.00214858
-0.00219054
-0.00220769
-0.00218471
-0.00217686
-0.00115623
-0.00115266
-0.00114818
-0.00114771
-0.00114932
-0.00118492
-0.00117605
-0.0011625
-0.00115833
-0.0011497
-0.00121203
-0.00118963
-0.00117258
-0.00116658
-0.00115208
-0.00133874
-0.00124836
-0.0011987
-0.00118389
-0.00115835
-0.00144879
-0.00134184
-0.00121827
-0.00118961
-0.00116042
-0.0136619
-0.0155312
-0.0147013
-0.0131829
-0.0117241
-0.0137069
-0.0131488
-0.0136232
-0.0131811
-0.0122824
-0.0155443
-0.0147037
-0.0155264
-0.0155186
-0.0141988
-0.0115764
-0.0130824
-0.0107759
-0.0131273
-0.0116801
-0.0107334
-0.0138667
-0.0142355
-0.0139469
-0.0127564
-0.0133785
-0.0125152
-0.0127236
-0.0135215
-0.013782
-0.013625
-0.0135721
-0.0136561
-0.0134203
-0.0134817
-0.0135489
-0.0137849
-0.0134799
-0.0134715
-0.013645
-0.0134087
-0.0135474
-0.0131549
-0.0141948
-0.0139216
-0.0131028
-0.0126039
-0.0134966
-0.0134018
-0.0131709
-0.0141647
-0.0133947
-0.0134145
-0.0126116
-0.0134778
-0.013099
-0.0143384
-0.0149084
-0.0172536
-0.0144719
-0.0128413
-0.0149766
-0.0145422
-0.013087
-0.0141247
-0.0141457
-0.01429
-0.0139436
-0.0137687
-0.0137791
-0.0142016
-0.0136927
-0.0141151
-0.0134312
-0.0140806
-0.0128895
-0.0145655
-0.0142254
-0.0137081
-0.0141452
-0.0134535
-0.0140983
-0.0129127
-0.0145876
-0.0139624
-0.0149822
-0.0149645
-0.0158012
-0.0146062
-0.0148962
-0.0148737
-0.0148308
-0.0143929
-0.0151356
-0.0135444
-0.0149516
-0.0130325
-0.0156347
-0.0148238
-0.0143654
-0.0151167
-0.0135225
-0.0149451
-0.013027
-0.0156056
-0.0147842
-0.0148115
-0.0144052
-0.015238
-0.0151787
-0.0152496
-0.0152842
-0.0138419
-0.0147696
-0.0142096
-0.0139845
-0.0136039
-0.0147165
-0.0143086
-0.0139858
-0.0148921
-0.0140909
-0.0142178
-0.0136109
-0.0147868
-0.0140005
-0.0140519
-0.0151651
-0.0147845
-0.0153735
-0.0150475
-0.01483
-0.0156477
-0.0141044
-0.0152236
-0.0148213
-0.0154359
-0.0151558
-0.0149465
-0.0157263
-0.0152437
-0.0141876
-0.0141796
-0.0125962
-0.0150064
-0.0138288
-0.0138273
-0.0144662
-0.0144846
-0.0164473
-0.0159501
-0.0142107
-0.0147414
-0.0148115
-0.0155303
-0.0155184
-0.0153982
-0.0153415
-0.0150446
-0.0151805
-0.0151714
-0.0134139
-0.0138595
-0.0133123
-0.0137572
-0.0139607
-0.0149593
-0.0142257
-0.0134029
-0.0138421
-0.0135714
-0.0142099
-0.0139521
-0.0149371
-0.0137264
-0.0152933
-0.0156291
-0.0154129
-0.0155529
-0.0165577
-0.0163385
-0.0154057
-0.0152847
-0.0156105
-0.0154067
-0.015549
-0.0165392
-0.0163285
-0.0153879
-0.0129759
-0.00286821
-0.0116794
-0.0144539
-0.0137052
-0.0134466
-0.0144737
-0.0158881
-0.0154166
-0.0154367
-0.0153356
-0.0159448
-0.0156102
-0.0156461
-0.0160745
-0.0162756
-0.0163616
-0.0159629
-0.0167353
-0.0157419
-0.0160711
-0.0151329
-0.0151384
-0.016019
-0.0165035
-0.0145947
-0.0150486
-0.0150344
-0.0161769
-0.0165208
-0.0164113
-0.016101
-0.0168331
-0.0160135
-0.0161611
-0.0145872
-0.0136607
-0.0134307
-0.0143918
-0.0144447
-0.0140565
-0.0141163
-0.0146488
-0.0137175
-0.0134745
-0.0145189
-0.0145893
-0.0141192
-0.0142075
-0.016835
-0.0152598
-0.0153127
-0.0146738
-0.0177472
-0.0150185
-0.0153947
-0.0147355
-0.0133758
-0.0133666
-0.0143049
-0.0135978
-0.0145034
-0.0144943
-0.0136834
-0.0143638
-0.0138726
-0.0138653
-0.0135643
-0.0136875
-0.0138636
-0.0151862
-0.0128104
-0.0138031
-0.0156898
-0.0142205
-0.0150207
-0.0149199
-0.0151812
-0.0128073
-0.0138084
-0.0156494
-0.0142833
-0.0150154
-0.0149046
-0.0137979
-0.0148003
-0.0136734
-0.0143667
-0.0142853
-0.0141161
-0.0142918
-0.0148048
-0.0137741
-0.0136728
-0.0143387
-0.0142505
-0.0140969
-0.0142656
-0.0142752
-0.0142634
-0.0151347
-0.0125393
-0.0103415
-0.0116286
-0.0115158
-0.0134112
-0.0121057
-0.0129513
-0.0139626
-0.0134297
-0.0151342
-0.0140801
-0.0134045
-0.0118852
-0.0132349
-0.0128262
-0.0139402
-0.0150589
-0.0139476
-0.0161029
-0.0139252
-0.0139339
-0.0139317
-0.0130432
-0.0145884
-0.01457
-0.0147136
-0.0147669
-0.0145004
-0.0140303
-0.014381
-0.0140856
-0.0141789
-0.0149879
-0.014979
-0.0150521
-0.014236
-0.0144306
-0.0139708
-0.0143192
-0.014099
-0.0157598
-0.0168318
-0.0141809
-0.012287
-0.0133596
-0.0144185
-0.0143034
-0.015779
-0.0168661
-0.0141125
-0.0123297
-0.0135211
-0.0144002
-0.0148634
-0.0152671
-0.0162125
-0.0132893
-0.0135926
-0.0143046
-0.0147154
-0.0134454
-0.0133256
-0.0135091
-0.0136833
-0.0136275
-0.0137305
-0.0136781
-0.0117836
-0.0117718
-0.0116248
-0.0113017
-0.0100006
-0.0104597
-0.0104358
-0.0146753
-0.0141505
-0.0147541
-0.0141361
-0.0139128
-0.0142843
-0.0137999
-0.0133638
-0.0125481
-0.0130098
-0.0129588
-0.0135612
-0.0126301
-0.0125977
-0.0133435
-0.0124975
-0.0135273
-0.0125803
-0.013539
-0.0125935
-0.0129222
-0.0121019
-0.0119873
-0.0112548
-0.0099527
-0.0121224
-0.0127964
-0.00930761
-0.012133
-0.0120017
-0.0115828
-0.00974248
-0.0121468
-0.0127978
-0.00930896
-0.013649
-0.0140185
-0.0139734
-0.013246
-0.0133292
-0.0136346
-0.0137915
-0.0136199
-0.0139865
-0.0139788
-0.013206
-0.0133028
-0.0136271
-0.013754
-0.0136484
-0.00956154
-0.0124687
-0.0131176
-0.0131054
-0.00501821
-0.012951
-0.00937274
-0.00568316
-0.00599835
-0.00477668
-0.0062413
-0.00676163
-0.00621955
-0.0130065
-0.0129103
-0.0105894
-0.00957578
-0.0139169
-0.0123727
-0.0124397
-0.0112145
-0.0122004
-0.0076499
-0.0123222
-0.00898664
-0.0129975
-0.0105057
-0.0111501
-0.0121491
-0.00772346
-0.0122333
-0.00892376
-0.012928
-0.0103756
-0.0150599
-0.0135685
-0.0134886
-0.014652
-0.0141823
-0.0136197
-0.0135316
-0.0149776
-0.0133926
-0.0130338
-0.0144844
-0.013952
-0.0130953
-0.0133073
-0.0115825
-0.0124231
-0.0123881
-0.012859
-0.0110559
-0.0127818
-0.0127496
-0.0131236
-0.0134509
-0.013784
-0.013394
-0.0133243
-0.0132473
-0.0131338
-0.0131308
-0.0134596
-0.0138013
-0.0134078
-0.0133428
-0.0132724
-0.0131476
-0.0107847
-0.0121026
-0.0120371
-0.0103488
-0.0126111
-0.0105858
-0.0106704
-0.0104265
-0.0139121
-0.0118941
-0.0121548
-0.0123682
-0.0126937
-0.00979977
-0.0103958
-0.0139836
-0.0119153
-0.0122395
-0.0126302
-0.0127845
-0.00980744
-0.0124106
-0.0129917
-0.0132472
-0.0122893
-0.012164
-0.0133285
-0.013249
-0.0124433
-0.0129513
-0.0132534
-0.0122703
-0.012138
-0.0132753
-0.0132172
-0.0133784
-0.0128715
-0.0136765
-0.0139789
-0.0134228
-0.0138418
-0.0141322
-0.014299
-0.0135757
-0.0140099
-0.0136884
-0.0135288
-0.0140353
-0.0137276
-0.00913385
-0.0135676
-0.0136212
-0.01471
-0.0124402
-0.0124617
-0.0125224
-0.0053235
-0.00571958
-0.00624507
-0.0125654
-0.0148934
-0.0144714
-0.0138524
)
;

boundaryField
{
    inlet
    {
        type            fixedValue;
        value           uniform 0;
    }
    wall
    {
        type            zeroGradient;
    }
    outlet
    {
        type            fixedValue;
        value           uniform 0;
    }
    procBoundary1to0
    {
        type            processor;
        value           nonuniform List<scalar> 
320
(
-0.000409092
-0.000408747
-0.000408717
-0.000408577
-0.000408601
-0.000791729
-0.000791619
-0.000791536
-0.000791476
-0.000791441
-0.00191333
-0.0019129
-0.00191272
-0.00191249
-0.00191242
-0.00245424
-0.00245387
-0.00245363
-0.0024534
-0.00245328
-0.0035045
-0.00350388
-0.00350355
-0.00350318
-0.00350301
-0.00411908
-0.00411835
-0.00411793
-0.00411749
-0.00411728
-0.00510458
-0.00510354
-0.00510297
-0.00510236
-0.0051021
-0.00577203
-0.00577068
-0.00576993
-0.00576916
-0.00576882
-0.00670623
-0.00670436
-0.00670335
-0.00670232
-0.00670188
-0.00741103
-0.00740851
-0.00740716
-0.00740582
-0.00740527
-0.00830171
-0.00829827
-0.00829651
-0.00829475
-0.00829408
-0.0090295
-0.00902479
-0.00902243
-0.00902012
-0.00901926
-0.0098781
-0.00987191
-0.00986921
-0.00986648
-0.0098656
-0.0106108
-0.0106027
-0.0105999
-0.0105967
-0.0105958
-0.0114074
-0.0113988
-0.0113989
-0.0113993
-0.0114009
-0.0121075
-0.0120989
-0.0121037
-0.012116
-0.0121288
-0.0128003
-0.0127949
-0.0128076
-0.0128165
-0.0128227
-0.0133572
-0.0133469
-0.0133433
-0.0133374
-0.0133331
-0.0138042
-0.0137727
-0.0137547
-0.0137345
-0.0137238
-0.0140846
-0.0140096
-0.0139464
-0.0139005
-0.0138423
-0.014267
-0.0141552
-0.0140824
-0.0140246
-0.0139746
-0.014318
-0.0141598
-0.0140075
-0.0139468
-0.0137556
-0.0143268
-0.0141829
-0.0140913
-0.0140341
-0.0138908
-0.0142934
-0.0141239
-0.013916
-0.0139533
-0.0135649
-0.0142137
-0.0139814
-0.0137933
-0.0135862
-0.0124606
-0.0142025
-0.0139638
-0.0137091
-0.013294
-0.011743
-0.0140849
-0.0140543
-0.0140529
-0.0140685
-0.0171835
-0.0141063
-0.0138739
-0.0137921
-0.0134796
-0.0139165
-0.0136737
-0.0134838
-0.0133758
-0.0135537
-0.0130674
-0.0137944
-0.0136898
-0.0138544
-0.0136023
-0.0122963
-0.0131086
-0.0130909
-0.0132477
-0.013392
-0.0147227
-0.0130807
-0.0130162
-0.0132314
-0.0130706
-0.0129345
-0.012058
-0.0120353
-0.0121182
-0.0121692
-0.0120283
-0.0116208
-0.0116126
-0.0115857
-0.0116429
-0.0116481
-0.00979456
-0.00977619
-0.00979874
-0.00987818
-0.00985784
-0.00881868
-0.0088452
-0.00889199
-0.00907339
-0.00919643
-0.00635957
-0.00638686
-0.00643832
-0.00651611
-0.00657359
-0.00520188
-0.00523942
-0.00530751
-0.00543758
-0.00552842
-0.00217071
-0.00217735
-0.00220471
-0.00218084
-0.00214691
-0.00115279
-0.00118386
-0.00121964
-0.00135105
-0.00145161
-0.0155411
-0.0137488
-0.0131852
-0.0131889
-0.0155295
-0.0155293
-0.0115728
-0.01169
-0.0107547
-0.0142243
-0.012489
-0.0127517
-0.0137777
-0.0134182
-0.0135654
-0.0141883
-0.0135189
-0.0130861
-0.0148976
-0.0149797
-0.0144618
-0.0143072
-0.0137812
-0.0141218
-0.0141044
-0.0145691
-0.0134501
-0.0158141
-0.0149026
-0.0149828
-0.0151288
-0.0156328
-0.0135436
-0.0147822
-0.0152379
-0.0151687
-0.0147545
-0.0147061
-0.013986
-0.0150285
-0.0156233
-0.01515
-0.0155227
-0.0151762
-0.0150466
-0.0138668
-0.0149559
-0.0137578
-0.0165531
-0.0153956
-0.0156092
-0.00300004
-0.0134502
-0.0144396
-0.0153192
-0.0155885
-0.0153995
-0.0163429
-0.0160455
-0.0159387
-0.0136541
-0.0141083
-0.0143774
-0.0143088
-0.0145038
-0.0133862
-0.013817
-0.0149147
-0.0156735
-0.0137965
-0.0142893
-0.0143587
-0.0142648
-0.0116308
-0.0103806
-0.0121217
-0.0151254
-0.0139817
-0.01475
-0.0141665
-0.0143725
-0.0122709
-0.0143867
-0.0157366
-0.0118073
-0.0104587
-0.00999216
-0.0125319
-0.0126209
-0.01296
-0.0121248
-0.00933285
-0.0120138
-0.014006
-0.0137844
-0.0132471
-0.00950275
-0.00497379
-0.0131108
-0.00488874
-0.00678567
-0.00572013
-0.00766737
-0.0105042
-0.0123314
-0.013562
-0.0135345
-0.0146537
-0.0103892
-0.0107096
-0.012102
-0.0119253
-0.00985769
-0.0122053
-0.01298
-0.0132518
-0.0122965
-0.00533768
-0.0144722
-0.0149392
)
;
    }
    procBoundary1to3
    {
        type            processor;
        value           nonuniform List<scalar> 
320
(
-0.000408451
-0.00040847
-0.00040844
-0.00040847
-0.000408521
-0.000791361
-0.000791334
-0.000791302
-0.000791297
-0.00079126
-0.00191215
-0.00191211
-0.00191205
-0.00191206
-0.00191211
-0.00245301
-0.00245295
-0.0024529
-0.00245292
-0.00245296
-0.00350261
-0.00350253
-0.00350249
-0.00350254
-0.00350269
-0.00411684
-0.00411675
-0.00411675
-0.00411685
-0.00411709
-0.00510154
-0.00510143
-0.00510146
-0.00510164
-0.00510205
-0.00576821
-0.00576813
-0.00576826
-0.00576855
-0.0057692
-0.00670108
-0.00670105
-0.00670129
-0.00670175
-0.00670274
-0.00740437
-0.00740439
-0.00740483
-0.00740555
-0.00740716
-0.00829297
-0.00829301
-0.00829364
-0.00829464
-0.00829693
-0.00901805
-0.00901821
-0.00901931
-0.00902078
-0.00902413
-0.00986402
-0.00986414
-0.00986538
-0.00986708
-0.00987153
-0.010594
-0.010594
-0.0105957
-0.0105975
-0.0106037
-0.0113984
-0.0113955
-0.0113937
-0.0113925
-0.0113987
-0.0121281
-0.0121134
-0.0120971
-0.0120917
-0.012098
-0.0128202
-0.012812
-0.0128013
-0.0127855
-0.012789
-0.0133244
-0.0133271
-0.0133313
-0.0133347
-0.0133423
-0.0137136
-0.0137202
-0.0137357
-0.0137504
-0.0137792
-0.0138293
-0.0138814
-0.0139217
-0.013981
-0.0140515
-0.0139595
-0.014002
-0.0140559
-0.0141243
-0.0142294
-0.0137339
-0.013913
-0.0139745
-0.014123
-0.0142759
-0.0138618
-0.0139923
-0.0140624
-0.0141482
-0.0142834
-0.013501
-0.0138803
-0.0138829
-0.0140724
-0.0142305
-0.00961421
-0.01351
-0.0137587
-0.0139067
-0.0141345
-0.00273021
-0.0118556
-0.0135878
-0.0138455
-0.0140953
-0.014917
-0.0148626
-0.0139997
-0.0139509
-0.0139933
-0.0142451
-0.0137544
-0.013703
-0.0137727
-0.0140056
-0.0115634
-0.0124833
-0.0133083
-0.0134073
-0.0135904
-0.0131703
-0.013796
-0.0138044
-0.0136321
-0.0137237
-0.0155178
-0.0141609
-0.0132136
-0.0130523
-0.0130598
-0.0128187
-0.0130649
-0.0131669
-0.01298
-0.0130444
-0.012083
-0.0121628
-0.0121013
-0.0120103
-0.0120306
-0.0116187
-0.0116404
-0.0115842
-0.0116096
-0.0116206
-0.00985748
-0.00987754
-0.00980205
-0.00978072
-0.00979929
-0.00919892
-0.00907647
-0.00890005
-0.00885502
-0.00883109
-0.006575
-0.00651945
-0.00644333
-0.0063882
-0.00636105
-0.00553154
-0.0054419
-0.00531313
-0.00524383
-0.00520882
-0.00214832
-0.0021841
-0.00220468
-0.00217994
-0.00217457
-0.00145259
-0.00135147
-0.00122139
-0.00118635
-0.00115719
-0.0136971
-0.0131578
-0.0146901
-0.0155172
-0.0155171
-0.0121686
-0.0116696
-0.0108682
-0.0132332
-0.0125223
-0.0126904
-0.0139476
-0.0133787
-0.0135164
-0.0134849
-0.0134787
-0.0130994
-0.013403
-0.0149876
-0.0145632
-0.0172619
-0.0142844
-0.0137634
-0.0141464
-0.0141528
-0.0145822
-0.0134343
-0.0157932
-0.0148697
-0.0149519
-0.015105
-0.015599
-0.0135185
-0.0148259
-0.0152998
-0.0151925
-0.0148116
-0.0140388
-0.0141576
-0.0151863
-0.0157597
-0.0152524
-0.0155061
-0.0151608
-0.0150375
-0.0149394
-0.0137209
-0.0135605
-0.0165276
-0.0153713
-0.015597
-0.0134411
-0.0144968
-0.0116564
-0.0153511
-0.0156625
-0.0154464
-0.0164166
-0.0161813
-0.0161304
-0.0137409
-0.0142358
-0.0145343
-0.0142972
-0.0144828
-0.0133465
-0.0137611
-0.014891
-0.0156566
-0.0137903
-0.0142755
-0.0143267
-0.0142677
-0.0115077
-0.0103006
-0.0150449
-0.0138723
-0.0131867
-0.0149843
-0.0143316
-0.0144342
-0.0123149
-0.0144275
-0.0157929
-0.0117525
-0.010417
-0.00999868
-0.0126056
-0.0129001
-0.0135003
-0.0139842
-0.0137625
-0.0131732
-0.0121434
-0.00929366
-0.0119621
-0.00505784
-0.012961
-0.0124723
-0.00466386
-0.00619252
-0.00595067
-0.00768824
-0.0103562
-0.0122165
-0.0133662
-0.0132721
-0.0144657
-0.0102978
-0.0105992
-0.0120461
-0.0119101
-0.00974081
-0.0121463
-0.0129883
-0.0131447
-0.0122801
-0.00569676
-0.0138505
-0.0148442
)
;
    }
}


// ************************************************************************* //
