/*--------------------------------*- C++ -*----------------------------------*\
| =========                 |                                                 |
| \\      /  F ield         | OpenFOAM: The Open Source CFD Toolbox           |
|  \\    /   O peration     | Version:  5.x                                   |
|   \\  /    A nd           | Web:      www.OpenFOAM.org                      |
|    \\/     M anipulation  |                                                 |
\*---------------------------------------------------------------------------*/
FoamFile
{
    version     2.0;
    format      ascii;
    class       volVectorField;
    location    "0.093";
    object      U;
}
// * * * * * * * * * * * * * * * * * * * * * * * * * * * * * * * * * * * * * //

dimensions      [0 1 -1 0 0 0 0];

internalField   nonuniform List<vector> 
1546
(
(-2.4388e-05 -0.000101363 0.0570091)
(7.27346e-06 -0.000103265 0.0570107)
(1.34841e-05 -0.000106026 0.0570176)
(3.97336e-05 -0.000107072 0.0570271)
(3.982e-05 -0.00010945 0.0570704)
(-2.98132e-05 -0.000114494 0.0569258)
(2.68361e-06 -0.000116782 0.0569264)
(9.73165e-06 -0.000120461 0.0569317)
(3.63492e-05 -0.000121718 0.0569408)
(3.74421e-05 -0.000125023 0.0569829)
(-3.13753e-05 -8.29208e-05 0.056917)
(1.30655e-06 -8.48102e-05 0.0569179)
(8.54869e-06 -8.84903e-05 0.0569232)
(3.51714e-05 -8.96283e-05 0.0569325)
(3.64768e-05 -9.31525e-05 0.056974)
(-3.60005e-05 -8.04485e-05 0.0568943)
(-2.88582e-06 -8.24029e-05 0.0568952)
(4.91353e-06 -8.64505e-05 0.0568997)
(3.16868e-05 -8.76653e-05 0.0569089)
(3.38709e-05 -9.1677e-05 0.0569491)
(-3.79182e-05 -4.59013e-05 0.0569012)
(-4.69539e-06 -4.77753e-05 0.0569028)
(3.28622e-06 -5.18483e-05 0.0569074)
(2.99447e-05 -5.31225e-05 0.0569171)
(3.24082e-05 -5.74373e-05 0.0569564)
(-2.41683e-05 -2.31599e-06 -0.0347911)
(-1.81449e-05 -2.17981e-06 -0.0347924)
(-1.49365e-05 -2.47914e-06 -0.034792)
(-1.88522e-05 -2.62706e-06 -0.0347937)
(-1.15606e-05 -3.02169e-06 -0.0347998)
(-2.37831e-05 -9.19079e-06 -0.0347757)
(-1.83202e-05 -9.3606e-06 -0.0347767)
(-1.53863e-05 -1.00797e-05 -0.0347762)
(-1.93917e-05 -1.04696e-05 -0.0347779)
(-1.1955e-05 -1.11571e-05 -0.0347841)
(-2.43307e-05 -2.41524e-05 -0.0347753)
(-1.90348e-05 -2.49498e-05 -0.0347763)
(-1.60462e-05 -2.61878e-05 -0.0347759)
(-1.993e-05 -2.68437e-05 -0.0347777)
(-1.22552e-05 -2.78427e-05 -0.0347838)
(-2.53774e-05 -3.10615e-05 -0.0347723)
(-2.03557e-05 -3.2188e-05 -0.0347734)
(-1.72802e-05 -3.37918e-05 -0.0347731)
(-2.10466e-05 -3.46315e-05 -0.034775)
(-1.29684e-05 -3.58595e-05 -0.034781)
(-2.66523e-05 -2.99262e-05 -0.0347749)
(-2.17651e-05 -3.13217e-05 -0.0347762)
(-1.84897e-05 -3.32143e-05 -0.034776)
(-2.19978e-05 -3.42e-05 -0.034778)
(-1.35029e-05 -3.56566e-05 -0.034784)
(-2.52506e-05 -8.7108e-05 0.0445383)
(6.73693e-06 -8.87386e-05 0.0445406)
(1.25334e-05 -9.13633e-05 0.0445566)
(3.23124e-05 -9.23278e-05 0.0445616)
(3.40772e-05 -9.4464e-05 0.0445954)
(-3.01625e-05 -0.000100377 0.0444813)
(2.54763e-06 -0.000102479 0.0444827)
(8.99518e-06 -0.000106085 0.0444977)
(2.9246e-05 -0.000107344 0.0445024)
(3.19409e-05 -0.000110373 0.0445355)
(-3.18332e-05 -8.1221e-05 0.0444745)
(1.02802e-06 -8.3304e-05 0.0444758)
(7.66837e-06 -8.71502e-05 0.0444905)
(2.80242e-05 -8.84602e-05 0.0444952)
(3.10138e-05 -9.18487e-05 0.0445281)
(-3.66955e-05 -8.17883e-05 0.0444415)
(-3.38164e-06 -8.4091e-05 0.0444423)
(3.83898e-06 -8.83979e-05 0.0444558)
(2.45474e-05 -8.98722e-05 0.0444603)
(2.85069e-05 -9.37606e-05 0.0444921)
(-3.90054e-05 -4.87684e-05 0.0444391)
(-5.58162e-06 -5.10323e-05 0.04444)
(1.88714e-06 -5.55784e-05 0.044453)
(2.26613e-05 -5.7126e-05 0.0444575)
(2.70688e-05 -6.14622e-05 0.0444888)
(-2.63764e-05 -6.11835e-05 -0.0227602)
(1.3972e-07 -6.1901e-05 -0.0227599)
(6.16878e-06 -6.34034e-05 -0.0227459)
(2.01182e-05 -6.39076e-05 -0.0227434)
(2.39249e-05 -6.51728e-05 -0.0227218)
(-2.85615e-05 -7.28269e-05 -0.0227868)
(-2.06523e-06 -7.38758e-05 -0.0227867)
(4.17354e-06 -7.60819e-05 -0.0227734)
(1.83535e-05 -7.68132e-05 -0.0227711)
(2.26599e-05 -7.86879e-05 -0.02275)
(-2.96045e-05 -6.37822e-05 -0.0227921)
(-3.11617e-06 -6.51589e-05 -0.0227922)
(3.23055e-06 -6.78437e-05 -0.0227791)
(1.75118e-05 -6.8779e-05 -0.0227768)
(2.20423e-05 -7.11622e-05 -0.0227559)
(-3.26121e-05 -6.62543e-05 -0.022813)
(-6.12671e-06 -6.7874e-05 -0.0228134)
(5.53449e-07 -7.10525e-05 -0.0228011)
(1.50351e-05 -7.21485e-05 -0.0227991)
(2.02522e-05 -7.49959e-05 -0.0227789)
(-3.43283e-05 -4.21194e-05 -0.0228179)
(-7.91438e-06 -4.39121e-05 -0.0228185)
(-1.04392e-06 -4.75777e-05 -0.0228068)
(1.35685e-05 -4.88601e-05 -0.0228049)
(1.91591e-05 -5.22741e-05 -0.022785)
(-2.67224e-05 -0.000115354 0.0343493)
(2.10316e-05 -0.00011725 0.0343518)
(2.89592e-05 -0.000120333 0.0343808)
(5.62652e-05 -0.000121424 0.0343871)
(5.67647e-05 -0.000123763 0.0344356)
(-3.26676e-05 -0.000132661 0.0342795)
(1.61169e-05 -0.000135129 0.0342813)
(2.48304e-05 -0.000139449 0.0343091)
(5.28538e-05 -0.000140888 0.0343153)
(5.44253e-05 -0.000144291 0.0343635)
(-3.47486e-05 -0.000107672 0.0342688)
(1.42425e-05 -0.00011024 0.0342704)
(2.31997e-05 -0.000115184 0.0342979)
(5.14232e-05 -0.000116794 0.034304)
(5.33432e-05 -0.000120941 0.0343521)
(-4.10577e-05 -0.000107792 0.0342207)
(8.60467e-06 -0.000110631 0.0342215)
(1.82765e-05 -0.000116338 0.0342474)
(4.70976e-05 -0.000118153 0.0342531)
(5.02345e-05 -0.00012304 0.0343)
(-4.40322e-05 -5.92742e-05 0.0342132)
(5.69645e-06 -6.22288e-05 0.0342139)
(1.56781e-05 -6.85798e-05 0.034239)
(4.47211e-05 -7.06123e-05 0.0342446)
(4.83943e-05 -7.65255e-05 0.0342909)
(-2.81652e-05 -0.0001336 -0.0140312)
(3.1628e-05 -0.000135029 -0.0140285)
(4.15273e-05 -0.00013785 -0.0139917)
(7.52419e-05 -0.000138611 -0.0139836)
(7.51239e-05 -0.000140547 -0.0139247)
(-3.3328e-05 -0.000152994 -0.0141063)
(2.74131e-05 -0.000154873 -0.0141043)
(3.79612e-05 -0.000158783 -0.0140685)
(7.25309e-05 -0.000159793 -0.0140606)
(7.31877e-05 -0.000162576 -0.0140023)
(-3.51839e-05 -0.000122325 -0.0141199)
(2.58385e-05 -0.000124665 -0.0141181)
(3.66056e-05 -0.000129309 -0.0140826)
(7.14481e-05 -0.000130648 -0.0140748)
(7.23526e-05 -0.000134441 -0.0140167)
(-4.11839e-05 -0.000121539 -0.0141734)
(2.04285e-05 -0.000124185 -0.0141721)
(3.19783e-05 -0.000129671 -0.0141384)
(6.73997e-05 -0.000131243 -0.014131)
(6.93702e-05 -0.000135913 -0.0140739)
(-4.39748e-05 -6.1804e-05 -0.0141837)
(1.77066e-05 -6.46194e-05 -0.0141828)
(2.95479e-05 -7.11159e-05 -0.0141499)
(6.52062e-05 -7.30948e-05 -0.0141426)
(6.76344e-05 -7.90912e-05 -0.0140862)
(-2.70969e-05 -0.00019443 0.0268322)
(6.06068e-05 -0.000196969 0.0268375)
(7.38141e-05 -0.000200878 0.0268947)
(0.000123026 -0.0002021 0.0269074)
(0.000118502 -0.000204486 0.0269984)
(-3.57796e-05 -0.000221925 0.0267133)
(5.421e-05 -0.000225303 0.0267179)
(6.86979e-05 -0.000230781 0.0267742)
(0.000119375 -0.000232387 0.0267872)
(0.000116116 -0.000236026 0.0268789)
(-3.87712e-05 -0.000175078 0.0266925)
(5.17496e-05 -0.000178438 0.0266969)
(6.67283e-05 -0.000185471 0.0267531)
(0.00011778 -0.000187468 0.0267662)
(0.000114904 -0.00019283 0.0268584)
(-4.8166e-05 -0.000171877 0.0266098)
(4.38164e-05 -0.00017562 0.0266131)
(5.96685e-05 -0.000183926 0.0266674)
(0.000112018 -0.000186259 0.0266803)
(0.000110736 -0.00019289 0.0267713)
(-5.25389e-05 -8.13206e-05 0.0265951)
(3.97002e-05 -8.58026e-05 0.0265981)
(5.60893e-05 -9.576e-05 0.0266516)
(0.000108817 -9.87374e-05 0.0266644)
(0.00010822 -0.000108007 0.026755)
(-2.75523e-05 -0.000257432 -0.00772257)
(9.40012e-05 -0.000259659 -0.00771407)
(0.000111396 -0.000263472 -0.00763428)
(0.000179414 -0.000264003 -0.00761462)
(0.000171123 -0.000265722 -0.00748827)
(-3.65657e-05 -0.000292206 -0.00787982)
(8.7979e-05 -0.000295054 -0.00787199)
(0.000107021 -0.000300108 -0.00779295)
(0.000177055 -0.000300795 -0.00777286)
(0.000169404 -0.000303124 -0.00764595)
(-3.95147e-05 -0.000225512 -0.00791011)
(8.6097e-05 -0.000229035 -0.00790232)
(0.000105652 -0.000235704 -0.00782341)
(0.000176398 -0.000237155 -0.00780298)
(0.000168903 -0.000241762 -0.00767566)
(-4.9762e-05 -0.000218615 -0.00801892)
(7.77866e-05 -0.000222577 -0.00801266)
(9.89007e-05 -0.000230796 -0.00793577)
(0.000171 -0.000232694 -0.00791553)
(0.000164822 -0.00023894 -0.00778916)
(-5.41652e-05 -9.28654e-05 -0.00804008)
(7.39166e-05 -9.71001e-05 -0.00803428)
(9.55352e-05 -0.00010785 -0.00795842)
(0.000168256 -0.000110872 -0.00793825)
(0.000162631 -0.000120666 -0.00781251)
(-2.20613e-05 -0.000359546 0.0213395)
(0.000149055 -0.000362752 0.0213529)
(0.000173348 -0.00036716 0.0214685)
(0.000268765 -0.000367791 0.0214975)
(0.000250839 -0.000368757 0.0216781)
(-3.54325e-05 -0.000410251 0.021113)
(0.0001414 -0.000414333 0.0211269)
(0.000168191 -0.000420533 0.021243)
(0.000266911 -0.000421245 0.0212745)
(0.000249873 -0.000423088 0.0214593)
(-3.96649e-05 -0.000314637 0.021068)
(0.000138768 -0.00031957 0.0210821)
(0.00016643 -0.000328761 0.0211994)
(0.000266209 -0.000330598 0.0212318)
(0.000249252 -0.000336361 0.0214193)
(-5.48092e-05 -0.000302272 0.0209127)
(0.000127276 -0.000308015 0.0209265)
(0.000157162 -0.000319369 0.021042)
(0.000259316 -0.000321963 0.0210754)
(0.00024422 -0.000330169 0.021263)
(-6.14021e-05 -0.00012139 0.0208826)
(0.000121672 -0.000128293 0.0208962)
(0.000152483 -0.000144563 0.0210114)
(0.000255412 -0.000148886 0.0210451)
(0.000241076 -0.000163839 0.0212335)
(-1.87708e-05 -0.000493987 -0.00329171)
(0.000222812 -0.000495739 -0.00326922)
(0.0002559 -0.000499092 -0.00310492)
(0.000389716 -0.000497156 -0.00305872)
(0.000361457 -0.000495261 -0.00280119)
(-3.21688e-05 -0.000563224 -0.00360747)
(0.000217574 -0.000565381 -0.00358431)
(0.000254231 -0.000568929 -0.00341841)
(0.000393097 -0.000566342 -0.00336859)
(0.000363353 -0.000562775 -0.00310614)
(-3.62592e-05 -0.000425295 -0.00367653)
(0.0002171 -0.000428831 -0.00365244)
(0.00025493 -0.000436184 -0.00348504)
(0.000395869 -0.0004357 -0.00343303)
(0.000365474 -0.00043764 -0.00316705)
(-5.19039e-05 -0.000403472 -0.00389196)
(0.000206685 -0.000407972 -0.00386868)
(0.000247362 -0.000418269 -0.003703)
(0.00039165 -0.000418929 -0.00364927)
(0.000361658 -0.000424227 -0.00338247)
(-5.86785e-05 -0.000144705 -0.0039368)
(0.000202302 -0.000151694 -0.00391376)
(0.000243972 -0.000167619 -0.00374921)
(0.000389919 -0.000171984 -0.0036945)
(0.000360303 -0.000186802 -0.00342691)
(-1.71299e-06 -0.00069086 0.017336)
(0.000336119 -0.000693314 0.0173705)
(0.000384009 -0.000695656 0.017603)
(0.000572209 -0.0006923 0.0176713)
(0.000520629 -0.000686925 0.01803)
(-2.1533e-05 -0.000796267 0.0168869)
(0.000330917 -0.000798736 0.0169272)
(0.000384427 -0.000801644 0.0171658)
(0.000580014 -0.000796362 0.0172446)
(0.000526004 -0.000788608 0.0176187)
(-2.66362e-05 -0.000599769 0.0167799)
(0.000330729 -0.000604578 0.0168222)
(0.000386366 -0.000613981 0.0170676)
(0.000585245 -0.000611894 0.0171506)
(0.00052931 -0.000613076 0.0175356)
(-5.04554e-05 -0.000563134 0.0164755)
(0.000316706 -0.00056993 0.0165217)
(0.000377111 -0.000584129 0.0167673)
(0.000580935 -0.000584005 0.0168565)
(0.000525397 -0.000590584 0.0172476)
(-5.99934e-05 -0.000195843 0.0164057)
(0.000309734 -0.000205323 0.0164532)
(0.000372291 -0.000231265 0.0167028)
(0.000578803 -0.000236227 0.0167937)
(0.000523112 -0.000260388 0.0171902)
(1.25023e-05 -0.000963613 -0.000387654)
(0.00048943 -0.00095939 -0.000330506)
(0.000556491 -0.000956421 -1.34611e-06)
(0.000817841 -0.000943802 0.000106681)
(0.000739262 -0.000926978 0.000620542)
(-2.88263e-06 -0.00111878 -0.00102178)
(0.000495892 -0.00111306 -0.00095751)
(0.00057105 -0.00110395 -0.000617882)
(0.000845751 -0.0010869 -0.000494112)
(0.000756085 -0.00105843 3.71672e-05)
(-6.89054e-06 -0.000836004 -0.00118975)
(0.000504242 -0.00083352 -0.00111909)
(0.000582624 -0.000833963 -0.000771454)
(0.000863358 -0.000823121 -0.000637832)
(0.00076927 -0.000808277 -9.09223e-05)
(-2.70116e-05 -0.000776931 -0.00161717)
(0.000497934 -0.000776321 -0.00154494)
(0.000581449 -0.000782382 -0.00119387)
(0.000871467 -0.000775103 -0.00105107)
(0.000771955 -0.000768931 -0.000495568)
(-3.54824e-05 -0.000245689 -0.00172181)
(0.000498791 -0.000254693 -0.00164687)
(0.00058384 -0.000274939 -0.00129564)
(0.000876829 -0.000279595 -0.00114578)
(0.000776159 -0.000295751 -0.000583783)
(5.76192e-05 -0.00135609 0.0143689)
(0.000722849 -0.00135106 0.014457)
(0.00082139 -0.00134181 0.0149193)
(0.00119386 -0.00132173 0.0150831)
(0.00105914 -0.00129638 0.0157858)
(3.26084e-05 -0.00160031 0.0134566)
(0.000735492 -0.00158923 0.0135725)
(0.000848571 -0.00157339 0.014058)
(0.00123637 -0.00154215 0.0142601)
(0.00108449 -0.00149977 0.0150107)
(3.15621e-05 -0.00119609 0.0131803)
(0.000749729 -0.00119292 0.0133054)
(0.00086841 -0.00119085 0.0138184)
(0.00126748 -0.0011697 0.0140375)
(0.00110444 -0.00114624 0.0148278)
(-4.48317e-06 -0.00109606 0.0125596)
(0.000740729 -0.00109856 0.0127114)
(0.000871796 -0.00110914 0.0132318)
(0.00128104 -0.00109275 0.0134755)
(0.00111004 -0.00108416 0.0142894)
(-1.53279e-05 -0.000345447 0.0123689)
(0.000736654 -0.000354566 0.0125303)
(0.000874215 -0.000396389 0.0130786)
(0.00129249 -0.000396184 0.0133298)
(0.00111461 -0.000428615 0.0141715)
(0.000101941 -0.00191819 0.00118131)
(0.00103935 -0.00188548 0.00132609)
(0.00118234 -0.00185836 0.00197032)
(0.0016862 -0.0018066 0.00222279)
(0.00147916 -0.00174111 0.00322862)
(0.000101511 -0.00230673 -0.00010046)
(0.00109642 -0.00226407 7.61074e-05)
(0.00125765 -0.00220456 0.000759105)
(0.00179858 -0.00213269 0.00106941)
(0.00154465 -0.00201836 0.00212252)
(0.000103808 -0.00173183 -0.000536674)
(0.00114145 -0.00169346 -0.000327327)
(0.00131361 -0.00165899 0.000384733)
(0.0018724 -0.00160655 0.0007335)
(0.00159838 -0.00152909 0.00184573)
(9.58775e-05 -0.00158732 -0.00138399)
(0.00116927 -0.00155049 -0.00117243)
(0.00134455 -0.00152121 -0.000438196)
(0.00192858 -0.00148183 -5.42637e-05)
(0.00162568 -0.00142445 0.00108932)
(9.34848e-05 -0.000480442 -0.00164746)
(0.00120755 -0.000485247 -0.0014215)
(0.00138227 -0.000491223 -0.000691143)
(0.00196922 -0.00049159 -0.000270191)
(0.0016585 -0.000493828 0.000905273)
(0.000213858 -0.00270129 0.0119653)
(0.00151245 -0.002663 0.0121955)
(0.00171821 -0.00261203 0.0131079)
(0.00245215 -0.00253119 0.0135106)
(0.00211389 -0.00245353 0.0148529)
(0.000199614 -0.00332177 0.0100722)
(0.00159611 -0.003246 0.0104127)
(0.00184298 -0.0031618 0.0113948)
(0.0026019 -0.00303355 0.0119278)
(0.00219155 -0.00288258 0.0134109)
(0.000229835 -0.00248108 0.00931209)
(0.00167229 -0.00244285 0.00968553)
(0.00193046 -0.00238946 0.0107625)
(0.00273136 -0.00229458 0.011368)
(0.00227363 -0.00217979 0.012984)
(0.000172123 -0.00220831 0.00797993)
(0.00168775 -0.00219408 0.00848133)
(0.00199126 -0.0021863 0.00958792)
(0.00281178 -0.00209763 0.0102768)
(0.00231324 -0.00202553 0.011968)
(0.000169235 -0.000677457 0.00738947)
(0.00169431 -0.000670095 0.00794404)
(0.0020269 -0.000747638 0.00917958)
(0.00289225 -0.000710086 0.00989523)
(0.00235116 -0.000742374 0.011697)
(0.000344022 -0.00390019 0.00143069)
(0.00218131 -0.00375421 0.0018045)
(0.00249719 -0.00365436 0.00304695)
(0.00343436 -0.0034685 0.00364873)
(0.00289355 -0.00325791 0.00558016)
(0.000433146 -0.00495937 -0.00119153)
(0.00241765 -0.00477359 -0.000684609)
(0.00277108 -0.00455005 0.000679448)
(0.0038155 -0.00427624 0.00148035)
(0.00310412 -0.00389046 0.00350548)
(0.000464553 -0.00382172 -0.00247475)
(0.0025904 -0.00362253 -0.00179335)
(0.00299415 -0.0034638 -0.000299556)
(0.00409395 -0.00325574 0.000648645)
(0.00329476 -0.00297146 0.00288429)
(0.000558159 -0.00350801 -0.0043438)
(0.00277557 -0.0032902 -0.00358248)
(0.00313787 -0.00310259 -0.0019523)
(0.00430823 -0.00295317 -0.000859511)
(0.00340029 -0.00271053 0.00147271)
(0.000605605 -0.00113255 -0.00525669)
(0.00299582 -0.00109288 -0.0043769)
(0.00333117 -0.000990603 -0.00266336)
(0.0044862 -0.000970208 -0.00140164)
(0.00354687 -0.000889178 0.00106097)
(0.000615203 -0.00545598 0.00953366)
(0.0031293 -0.00527867 0.0101732)
(0.00356196 -0.00509813 0.0119765)
(0.00498587 -0.00480857 0.0129983)
(0.00414092 -0.00462688 0.015469)
(0.000693947 -0.00723359 0.00561575)
(0.00346875 -0.00684994 0.00660573)
(0.00400953 -0.00651314 0.00859857)
(0.00543119 -0.0060369 0.0100076)
(0.00432258 -0.00557893 0.0128564)
(0.00089383 -0.00563592 0.0032565)
(0.00384945 -0.00534269 0.00453116)
(0.00437422 -0.00502306 0.00683626)
(0.00592007 -0.00463609 0.00856369)
(0.00462503 -0.00421233 0.0118072)
(0.000869199 -0.00499338 0.000428472)
(0.00408181 -0.00478033 0.00197788)
(0.00471616 -0.0045522 0.00438281)
(0.00624269 -0.0041497 0.0064206)
(0.00476851 -0.00384982 0.00984989)
(0.000987511 -0.00170848 -0.00153646)
(0.00429068 -0.00158092 0.000364713)
(0.00500474 -0.00163128 0.00305055)
(0.00662278 -0.00140704 0.00539309)
(0.00494241 -0.00136492 0.00915478)
(0.00101438 -0.00800581 0.000401168)
(0.00462373 -0.00749766 0.00134967)
(0.00532253 -0.00720004 0.00373812)
(0.00693244 -0.0066134 0.0050958)
(0.00549945 -0.00600952 0.00856824)
(0.00142073 -0.0112357 -0.00484146)
(0.00539802 -0.010415 -0.00335717)
(0.0061694 -0.00969173 -0.000705839)
(0.00807627 -0.00871386 0.00132372)
(0.00610327 -0.00755803 0.00490087)
(0.00173531 -0.0090037 -0.00849888)
(0.00616684 -0.0082451 -0.00653487)
(0.00702242 -0.00767506 -0.00336234)
(0.00906611 -0.00683901 -0.000723668)
(0.00670252 -0.00597788 0.0035286)
(0.0020767 -0.00829967 -0.0126744)
(0.00672633 -0.00745279 -0.0100846)
(0.0075755 -0.00688482 -0.00672704)
(0.00977466 -0.00612126 -0.00359709)
(0.00700172 -0.00536218 0.000910571)
(0.00247326 -0.00315922 -0.0158586)
(0.00758169 -0.00277249 -0.012777)
(0.00835443 -0.00245958 -0.00876028)
(0.0105896 -0.00214822 -0.00514486)
(0.00749211 -0.00179385 -4.67275e-05)
(0.0016157 -0.0109632 0.00686742)
(0.00646566 -0.0102303 0.00865026)
(0.00730499 -0.00976884 0.0121201)
(0.00981708 -0.00877726 0.0144753)
(0.00778791 -0.00847319 0.0193954)
(0.00218122 -0.0161459 -0.000991202)
(0.00760771 -0.0147461 0.00189329)
(0.00869188 -0.0136206 0.00574046)
(0.0110415 -0.01186 0.00915413)
(0.00809193 -0.0106196 0.0142713)
(0.00286804 -0.0134706 -0.00852361)
(0.00898937 -0.0120724 -0.00408836)
(0.0101889 -0.0110477 0.000931156)
(0.012818 -0.00955847 0.00574917)
(0.00909947 -0.00819952 0.0119115)
(0.00340405 -0.0123546 -0.0156372)
(0.0100309 -0.0110245 -0.00975114)
(0.0112059 -0.00995382 -0.0043183)
(0.013892 -0.00857468 0.00169222)
(0.0095161 -0.00742486 0.00820246)
(0.00402224 -0.00500717 -0.0239489)
(0.0113902 -0.00438075 -0.0156271)
(0.0126384 -0.00385471 -0.00875002)
(0.0153486 -0.00314712 -0.00119089)
(0.0103013 -0.00261675 0.00642269)
(0.00284106 -0.01624 -0.00120454)
(0.00987821 -0.014596 0.00117416)
(0.0111483 -0.0139007 0.00573229)
(0.0142179 -0.0122134 0.00882902)
(0.0106793 -0.0113988 0.0147057)
(0.0042927 -0.0266334 -0.0119245)
(0.0121266 -0.0231577 -0.0076163)
(0.0134251 -0.0208859 -0.0027008)
(0.0166151 -0.0174483 0.002106)
(0.0114938 -0.0150523 0.00856072)
(0.00616904 -0.0236515 -0.0230386)
(0.0156223 -0.0198896 -0.0165207)
(0.0168553 -0.0177288 -0.00945845)
(0.0200514 -0.0142953 -0.00272114)
(0.0131801 -0.0120474 0.00548526)
(0.00788295 -0.0237257 -0.0339059)
(0.018047 -0.0189934 -0.0244817)
(0.0190193 -0.0165665 -0.0168004)
(0.0222988 -0.0130579 -0.0079335)
(0.0138472 -0.0108525 0.000597167)
(0.0107372 -0.0116374 -0.0460353)
(0.0227813 -0.00879883 -0.0340491)
(0.0227929 -0.00714278 -0.0233646)
(0.0257685 -0.0052485 -0.0122901)
(0.0154756 -0.00390621 -0.00171618)
(0.0040838 -0.022215 0.0052786)
(0.0133996 -0.0194853 0.00981314)
(0.0149525 -0.0186396 0.0160657)
(0.0187931 -0.0158704 0.0208368)
(0.0140028 -0.0149633 0.0285407)
(0.00648609 -0.0379964 -0.0114728)
(0.0168319 -0.0324534 -0.00291861)
(0.0184123 -0.028821 0.00398663)
(0.0223052 -0.0234125 0.0122905)
(0.0149099 -0.019843 0.0205528)
(0.00940329 -0.0354622 -0.0353993)
(0.0225701 -0.0289424 -0.0199411)
(0.0239912 -0.0251498 -0.00851351)
(0.0277711 -0.019596 0.00402724)
(0.0177375 -0.0161552 0.0158116)
(0.0127297 -0.0353532 -0.0557389)
(0.027135 -0.0285517 -0.0328727)
(0.0277588 -0.0238609 -0.0202765)
(0.0313019 -0.0181446 -0.00318347)
(0.0185041 -0.0146238 0.00919249)
(0.0159563 -0.0173809 -0.0963908)
(0.0340626 -0.0141214 -0.0557246)
(0.0344077 -0.0107764 -0.0356969)
(0.0370129 -0.00781668 -0.0116733)
(0.0214013 -0.00543627 0.00470028)
(0.00745445 -0.033812 -0.000111815)
(0.0206696 -0.0280176 0.0052979)
(0.0221729 -0.0266262 0.0125554)
(0.0267147 -0.0212787 0.0179293)
(0.0188459 -0.0198574 0.026382)
(0.0128454 -0.0673148 -0.0221693)
(0.0275796 -0.0529181 -0.00998124)
(0.0286327 -0.0454799 -0.00169545)
(0.0331964 -0.0342735 0.00851779)
(0.0202671 -0.0278036 0.0176169)
(0.0216639 -0.0679327 -0.0553758)
(0.042496 -0.0498483 -0.0334325)
(0.0408217 -0.0419896 -0.0179522)
(0.0443908 -0.0297675 -0.00169876)
(0.0256031 -0.0234085 0.0123048)
(0.0306908 -0.0846977 -0.0902296)
(0.0534835 -0.0547513 -0.0513964)
(0.0487136 -0.0437381 -0.0337531)
(0.0517733 -0.0287521 -0.0103276)
(0.0269042 -0.0219681 0.00463593)
(0.0515177 -0.0526371 -0.143212)
(0.0834556 -0.031918 -0.0906548)
(0.0668597 -0.022967 -0.0557664)
(0.0661689 -0.0140542 -0.0226118)
(0.0326622 -0.0088592 -0.000663034)
(0.00963981 -0.0454632 0.0128922)
(0.0260486 -0.0356964 0.0218401)
(0.0275589 -0.033727 0.0308418)
(0.032611 -0.0258973 0.0383481)
(0.0230059 -0.0242871 0.0479058)
(0.0186885 -0.0932462 -0.0199567)
(0.0372938 -0.0711775 0.00158102)
(0.0369089 -0.0593298 0.012382)
(0.0416017 -0.0430253 0.0274774)
(0.0246157 -0.0339117 0.0379861)
(0.0314553 -0.103595 -0.08845)
(0.0599561 -0.0704036 -0.0397738)
(0.0557371 -0.0572194 -0.0149762)
(0.0580284 -0.0384387 0.0124877)
(0.0325709 -0.0291103 0.0305703)
(0.0516571 -0.122922 -0.157723)
(0.0835256 -0.0856874 -0.0702173)
(0.0688737 -0.0616391 -0.0402037)
(0.069684 -0.0390461 0.0012952)
(0.0343902 -0.0275742 0.0210716)
(0.0694166 -0.0718116 -0.37878)
(0.121242 -0.0538814 -0.158033)
(0.102524 -0.0333993 -0.0888501)
(0.092102 -0.0204338 -0.0200874)
(0.0445354 -0.0114576 0.0122754)
(0.0165328 -0.0685178 0.0150142)
(0.0386257 -0.0496205 0.0242992)
(0.0386884 -0.0462791 0.0334486)
(0.0438131 -0.0329669 0.0390156)
(0.0291477 -0.0305319 0.0474968)
(0.0344488 -0.168556 -0.0212666)
(0.0598772 -0.114497 0.00815385)
(0.0545582 -0.0913152 0.0167651)
(0.0588157 -0.06015 0.0315339)
(0.0315828 -0.0451744 0.0386668)
(0.0707147 -0.205833 -0.114762)
(0.115807 -0.121674 -0.0421482)
(0.0931115 -0.094603 -0.0120973)
(0.0899531 -0.0559781 0.0168407)
(0.0448694 -0.0403305 0.0333034)
(0.119585 -0.376428 -0.25721)
(0.170624 -0.172639 -0.0735061)
(0.120254 -0.117451 -0.042538)
(0.113011 -0.0612851 0.00788126)
(0.0480115 -0.0402714 0.02352)
(0.279541 -0.280982 -0.531735)
(0.374787 -0.121656 -0.258797)
(0.204949 -0.0725967 -0.115075)
(0.16719 -0.0359355 -0.0216796)
(0.0668673 -0.018412 0.0148158)
(0.0191429 -0.0841734 0.0613533)
(0.0444004 -0.0533593 0.0672709)
(0.0422292 -0.0517143 0.0747367)
(0.0466228 -0.0341969 0.0776607)
(0.0322895 -0.0339307 0.0828562)
(0.0483492 -0.222622 0.0243517)
(0.0751553 -0.13747 0.0522869)
(0.0602776 -0.104762 0.0599931)
(0.0634027 -0.065101 0.0724047)
(0.0325567 -0.0480693 0.0773017)
(0.105626 -0.341561 -0.0745095)
(0.162063 -0.151888 -0.0054866)
(0.114793 -0.116593 0.0355836)
(0.103314 -0.0620803 0.0601624)
(0.0503302 -0.0442096 0.0745229)
(0.252641 -0.72383 -0.367185)
(0.300193 -0.304304 -0.0815303)
(0.15008 -0.164073 -0.00583644)
(0.135592 -0.0773961 0.0521026)
(0.05153 -0.0459818 0.0665015)
(0.338793 -0.537097 -1.35649)
(0.721995 -0.257672 -0.37156)
(0.34166 -0.108564 -0.075127)
(0.221588 -0.0504374 0.0244892)
(0.0834602 -0.0215258 0.0608476)
(0.02271 -0.108899 0.0931754)
(0.0519532 -0.0664892 0.0856812)
(0.0490895 -0.0626195 0.0852288)
(0.0519287 -0.0391412 0.0780642)
(0.0351978 -0.0369535 0.0771492)
(0.0631429 -0.301522 0.108042)
(0.0951154 -0.186911 0.101582)
(0.0747419 -0.130416 0.0910842)
(0.07611 -0.0776342 0.0860311)
(0.0373892 -0.0535048 0.0778157)
(0.144234 -0.464319 0.117334)
(0.22418 -0.217493 0.110519)
(0.158779 -0.160453 0.10322)
(0.128838 -0.0763432 0.0913088)
(0.0608104 -0.0511417 0.0852894)
(0.253116 -1.21544 -0.0975219)
(0.411082 -0.522068 0.15092)
(0.215555 -0.226447 0.11009)
(0.185007 -0.0965579 0.101825)
(0.0642715 -0.0538925 0.0850465)
(0.580185 -3.11289 -1.9711)
(1.26547 -0.742391 -0.319294)
(0.462589 -0.148003 0.11801)
(0.300261 -0.0644276 0.108562)
(0.106586 -0.0252805 0.0936072)
(0.0120196 -0.0719373 0.186456)
(0.0363628 -0.0386939 0.163315)
(0.0346165 -0.0470264 0.150568)
(0.0384872 -0.026779 0.133829)
(0.0319467 -0.0338463 0.124885)
(0.0430172 -0.186092 0.218088)
(0.0575955 -0.111274 0.192526)
(0.0447759 -0.0866816 0.172567)
(0.0500633 -0.0517843 0.148058)
(0.0248842 -0.0398696 0.133658)
(0.0999368 -0.254076 0.401589)
(0.13828 -0.108738 0.29201)
(0.0945788 -0.0966079 0.229561)
(0.0852981 -0.0463293 0.172734)
(0.0454703 -0.0369776 0.150503)
(0.148458 -0.939425 0.647837)
(0.274587 -0.334201 0.448618)
(0.106275 -0.139662 0.291457)
(0.109166 -0.0595158 0.192753)
(0.0359711 -0.0375702 0.162859)
(-0.0407361 -0.0109264 -8.32969)
(0.734899 -0.380948 0.725554)
(0.250709 -0.103702 0.401847)
(0.184821 -0.0438348 0.218445)
(0.0711163 -0.0149933 0.186463)
(-7.39246e-05 -0.0791609 0.157202)
(0.0160097 -0.0380403 0.132978)
(0.0196037 -0.0412619 0.119542)
(0.0262971 -0.025047 0.100828)
(0.026446 -0.0283826 0.0880368)
(0.0383644 -0.0801123 0.190673)
(0.0497689 -0.0598524 0.166914)
(0.0304806 -0.0517241 0.14709)
(0.0372939 -0.0388261 0.120841)
(0.0231118 -0.0279375 0.101037)
(0.0305251 -0.190001 0.351393)
(0.0434663 -0.037925 0.252694)
(0.0411985 -0.0433589 0.206906)
(0.0500811 -0.0318562 0.147136)
(0.0392181 -0.0219548 0.119813)
(-0.0227572 -0.2685 0.203714)
(0.030079 -0.0319591 0.308487)
(0.0354117 -0.0454273 0.252922)
(0.058057 -0.0510348 0.166931)
(0.0351155 -0.0178817 0.133608)
(-0.369233 0.512093 -7.36777)
(-0.189778 0.201632 0.0389498)
(0.187473 -0.0338753 0.35184)
(0.0785689 -0.0393413 0.190947)
(0.0765134 -0.00259591 0.157697)
(-0.0120937 -0.0394519 0.185991)
(-0.00148496 -0.00390705 0.172796)
(0.00232978 -0.0188284 0.162517)
(0.00696063 -0.00599781 0.148769)
(0.0187352 -0.0204268 0.136045)
(0.0206873 0.0153476 0.240387)
(0.0161374 0.00456513 0.207093)
(-0.00122852 0.000395559 0.189964)
(0.00396223 -0.00542705 0.168277)
(0.00430753 -0.00806288 0.149105)
(-0.0159513 -0.0954232 0.284841)
(-0.018335 0.01987 0.249734)
(-0.00734532 0.00552255 0.226252)
(-0.00149976 -0.000292155 0.189729)
(0.0175116 -0.00426401 0.162599)
(-0.0394605 0.18673 -0.382232)
(-0.0155265 0.0133258 0.202492)
(-0.02169 0.0175524 0.25013)
(-0.00617331 -0.0178329 0.207195)
(0.00177806 0.000512584 0.173562)
(0.0974165 -0.161705 -6.05686)
(-0.141348 0.068963 -0.700922)
(0.0944949 0.0128367 0.285348)
(-0.0166309 -0.0218323 0.240245)
(0.0388864 0.00949677 0.185872)
(-0.0132665 -0.0225404 0.110155)
(-0.00749965 -0.00163372 0.0994814)
(-0.00443237 -0.0123152 0.0833232)
(-0.000154145 -0.00436332 0.0732113)
(0.0128503 -0.0144414 0.0568414)
(0.00512779 0.0388468 0.197904)
(9.23699e-06 0.0167086 0.153058)
(-0.00851404 0.0122635 0.123684)
(-0.00351417 0.00208039 0.0983671)
(0.00277199 -0.00140579 0.0737969)
(-0.0294853 0.00338485 0.271742)
(-0.0356432 0.0347753 0.224471)
(-0.0187676 0.0168312 0.161608)
(-0.0138217 0.00723565 0.123493)
(0.0106 0.00250416 0.0837254)
(0.0383312 -0.0820071 -0.022151)
(-0.0198649 -0.124226 0.417217)
(-0.0362002 0.0340188 0.225289)
(-0.0180952 -0.00124613 0.153474)
(-0.000617738 0.00543139 0.100651)
(0.135068 -0.204836 -8.18351)
(0.190206 -0.455107 -0.00642696)
(-0.00425659 0.0257036 0.272275)
(-0.0407874 -0.00572293 0.198117)
(0.020003 0.0109089 0.110831)
(-0.0221566 0.0531417 0.164963)
(-0.0276002 0.0527399 0.158557)
(-0.0235332 0.0239744 0.146048)
(-0.0191963 0.0207575 0.138522)
(0.00125744 -0.00235 0.125268)
(-0.023518 0.193865 0.218603)
(-0.0562857 0.124547 0.195088)
(-0.0550222 0.0768811 0.176194)
(-0.0451928 0.0441215 0.157629)
(-0.0218528 0.0184993 0.139222)
(-0.0881575 0.296046 0.272558)
(-0.145589 0.204298 0.249974)
(-0.104207 0.103018 0.201901)
(-0.0775809 0.0539264 0.175792)
(-0.0246752 0.0221725 0.146294)
(-0.0859259 0.52802 -0.0616752)
(-0.333031 0.331983 0.253755)
(-0.204866 0.145323 0.251634)
(-0.125754 0.0549802 0.195559)
(-0.0540869 0.0269048 0.160218)
(-0.40255 1.2223 -6.78094)
(-0.669 0.40251 -0.0550582)
(-0.295809 0.0866416 0.271951)
(-0.194963 0.0229836 0.218392)
(-0.0531783 0.0205491 0.165347)
(-0.0194615 0.0397442 0.00763659)
(-0.0267424 0.0402904 0.0127545)
(-0.0247997 0.0217703 0.00677098)
(-0.0211902 0.0172472 0.00870285)
(-0.00205408 0.00117665 -0.000235865)
(-0.0188928 0.162709 0.0176356)
(-0.0434565 0.107688 0.0186921)
(-0.0466097 0.0686392 0.0180769)
(-0.0409098 0.0397718 0.0157513)
(-0.0181261 0.0198743 0.00937968)
(-0.0760908 0.206967 -0.022199)
(-0.123003 0.157812 0.0153474)
(-0.0926591 0.0919462 0.0124116)
(-0.0699493 0.0458025 0.0179267)
(-0.0228327 0.023837 0.00719697)
(-0.26394 0.575129 -0.467778)
(-0.269481 0.267511 -0.0114754)
(-0.15898 0.120708 0.0164742)
(-0.109067 0.0423863 0.0192695)
(-0.0413405 0.0248031 0.0143276)
(-0.852756 0.850789 -3.99674)
(-0.573788 0.261114 -0.465351)
(-0.207268 0.0745463 -0.0225771)
(-0.163652 0.0182571 0.018199)
(-0.0417135 0.0183798 0.00831783)
(-0.0165281 0.0696005 0.108921)
(-0.0281295 0.063133 0.113423)
(-0.027255 0.0383091 0.109253)
(-0.0259154 0.0298141 0.111253)
(-0.0088913 0.00849126 0.103989)
(-0.0223675 0.172482 0.123192)
(-0.0555166 0.125727 0.123522)
(-0.0576607 0.0819921 0.119618)
(-0.0535974 0.0530557 0.119179)
(-0.0302153 0.0256457 0.111844)
(-0.0635533 0.231254 0.0826759)
(-0.119523 0.174211 0.1157)
(-0.100268 0.100036 0.113888)
(-0.0822686 0.0571441 0.119443)
(-0.0384268 0.0267901 0.109946)
(-0.228363 0.439551 -0.330441)
(-0.252767 0.251343 0.0740329)
(-0.174682 0.119198 0.116785)
(-0.126499 0.0549062 0.123818)
(-0.0634626 0.0277027 0.114819)
(-0.618359 0.619954 -2.77904)
(-0.439266 0.225818 -0.327786)
(-0.231386 0.0630327 0.0844413)
(-0.172924 0.0217515 0.123061)
(-0.0695279 0.0159197 0.110745)
(-0.0148935 0.0605957 -0.0648104)
(-0.0265561 0.0547834 -0.0583875)
(-0.0271658 0.0353224 -0.0579985)
(-0.0266853 0.0273882 -0.0531227)
(-0.0108968 0.0106386 -0.0543229)
(-0.018464 0.149168 -0.084386)