/*--------------------------------*- C++ -*----------------------------------*\
| =========                 |                                                 |
| \\      /  F ield         | OpenFOAM: The Open Source CFD Toolbox           |
|  \\    /   O peration     | Version:  5.x                                   |
|   \\  /    A nd           | Web:      www.OpenFOAM.org                      |
|    \\/     M anipulation  |                                                 |
\*---------------------------------------------------------------------------*/
FoamFile
{
    version     2.0;
    format      ascii;
    class       volScalarField;
    location    "0.057";
    object      interFace;
}
// * * * * * * * * * * * * * * * * * * * * * * * * * * * * * * * * * * * * * //

dimensions      [0 0 0 0 0 0 0];

internalField   nonuniform List<scalar> 
1574
(
0
0
0
0
0
0
0
0
0
0
0
0
0
0
0
0
0
0
0
0
0
0
0
0
0
0
0
0
0
0
0
0
0
0
0
0
0
0
0
0
0
0
0
0
0
0
0
0
0
0
0
0
0
0
0
0
0
0
0
0
0
0
0
0
0
0
0
0
0
0
0
0
0
0
0
0
0
0
0
0
0
0
0
0
0
0
0
0
0
0
0
0
0
0
0
0
0
0
0
0
0
0
0
0
0
0
0
0
0
0
0
0
0
0
0
0
0
0
0
0
0
0
0
0
0
0
0
0
0
0
0
0
0
0
0
0
0
0
0
0
0
0
0
0
0
0
0
0
0
0
0
0
0
0
0
0
0
0
0
0
0
0
0
0
0
0
0
0
0
0
0
0
0
0
0
0
0
0
0
0
0
0
0
0
0
0
0
0
0
0
0
0
0
0
0
0
0
0
0
0
0
0
0
0
0
0
0
0
0
0
0
0
0
0
0
0
0
0
0
0
0
0
0
0
0
0
0
0
0
0
0
0
0
0
0
0
0
0
0
0
0
0
0
0
0
0
0
0
0
0
0
0
0
0
0
0
0
0
0
0
0
0
0
0
0
0
0
0
0
0
0
0
0
0
0
0
0
0
0
0
0
0
0
0
0
0
0
0
0
0
0
0
0
0
0
0
0
0
0
0
0
0
0
0
0
0
0
0
0
0
0
0
0
0
0
0
0
0
0
0
0
0
0
0
0
0
0
0
0
0
0
0
0
0
0
0
0
0
0
0
0
0
0
0
0
0
0
0
0
0
0
0
0
0
0
0
0
0
0
0
0
0
0
0
0
0
0
0
0
0
0
0
0
0
0
0
0
0
0
0
0
0
0
0
0
0
0
0
0
0
0
0
0
0
0
0
0
0
0
0
0
0
0
0
0
0
0
0
0
0
0
0
0
0
0
0
0
0
0
0
0
0
0
0
0
0
0
0
0
0
0
0
0
0
0
0
0
0
0
0
0
0
0
0
0
0
0
0
0
0
0
0
0
0
0
0
0
0
0
0
0
0
0
0
0
0
0
0
0
0
0
0
0
0
0
0
0
0
0
0
0
0
0
0
0
0
0
0
0
0
0
0
0
0
0
0
0
0
0
0
0
0
0
0
0
0
0
0
0
0
0
0
0
0
0
0
0
0
0
0
0
0
0
0
0
0
0
0
0
0
0
0
0
0
0
0
0
0
0
0
0
0
0
0
0
0
0
0
0
0
0
0
0
0
0
0
0
0
0
0
0
0
0
0
0
0
0
0
0
0
0
0
0
0
0
0
0
0
0
0
0
0
0
0
0
0
0
0
0
0
0
0
0
0
0
0
0
0
0
0
0
0
0
0
0
0
0
0
0
0
0
0
0
0
0
0
0
0
0
0
0
0
0
0
0
0
0
0
0
0
0
0
0
0
0
0
0
0
0
0
0
0
0
0
0
0
0
0
0
0
0
0
0
0
0
0
0
0
0
0
0
0
0
0
0
0
0
0
0
0
0
0
0
0
0
0
0
0
0
0
0
0
0
0
0
0
0
0
0
0
0
0
0
0
0
0
0
0
0
0
0
0
0
0
0
0
0
0
0
0
0
0
0
0
0
0
0
0
0
0
0
0
0
0
0.777044
0
0
0
0
0
0
0
0
0
0
0
0
0
0
0
0
0
0
0
0
0
0
0
0
0.563441
0
0
0
0
0
0
0
0
0
0
0
0
0
0
0
0
0
0
0
0
0
0
0
0
0
0
0
0
0
0
0
0
0
0
0
0
0
0
0
0
0
0
0
0
0
0
0
0
0
0
0
0
0
0
0
0
0
0
0
0
0
0
0
0
0
0
0
0
0
0
0
0
0
0
0.562496
0
0
0
0
0
0
0
0
0
0
0
0
0
0
0
0
0
0
0
0
0
0
0
0
0.780857
0
0
0
0
0
0
0
0
0
0
0
0
0
0
0
0
0
0
0
0
0
0
0
0
0
0
0
0
0
0
0
0
0
0
0
0
0
0
0
0
0
0
0
0
0
0
0
0
0
0
0
0
0
0
0
0
0
0
0
0
0
0
0
0
0
0
0
0
0
0
0
0
0
0
0
0
0
0
0
0
0
0
0
0
0
0
0
0
0
0
0
0
0
0
0
0
0
0
0
0
0
0
0
0
0
0
0
0
0
0
0
0
0
0
0
0
0
0
0
0
0
0
0
0
0
0
0
0
0
0
0
0
0
0
0
0
0
0
0
0
0
0
0
0
0
0
0
0
0
0
0.855492
0.855496
0.529345
0
0
0
0.92914
0.79245
0.792452
0.52364
0.619957
0.351144
0.351146
0.082334
0.293683
0.293685
0.024873
0.659036
0.390224
0.390226
0.121413
0
0
0.892227
0
0
0
0
0
0
0.892229
0
0
0
0
0.512045
0.512047
0.243235
0
0.956663
0.956664
0.777456
0.294627
0.294633
0.025819
0.873854
0.60504
0.605046
0.336232
0.856844
0.574127
0.574129
0.767277
0.618911
0.812059
0.812061
0.499443
0.288018
0.288018
0.409876
0.332801
0.454659
0.45466
0.589046
0.556829
0.377621
0.678687
0.422405
0.72347
0.544263
0.589047
0.55683
0.377622
0.678689
0.422405
0.723472
0.544264
0.381014
0.381016
0.425799
0.277507
0.187941
0.232723
0.232725
0
0.742685
0.473871
0
0
0
0.827755
0.742687
0
0.473879
0
0
0
0.827763
0.649824
0.470617
0.515401
0.36711
0.456749
0.501533
0.322325
0.649828
0.470621
0.515403
0.367112
0.456755
0.501537
0.322329
0.67865
0.646433
0.646433
0.947499
0.512009
0.813074
0.813075
0.739429
0.739431
0.605006
0.456714
0.725563
0.591137
0.591139
0.133979
0.0444128
0.166196
0.166197
0.21098
0.0891957
0.0891963
0
0.74174
0.472928
0
0
0.838281
0.569468
0.741741
0
0.47293
0
0.838281
0
0.569471
0.223583
0.313223
0.435007
0.2558
0.358007
0.300583
0.178799
0.223583
0.313225
0.435009
0.255801
0.358008
0.300584
0.1788
0.50823
0.508236
0.239422
0.549611
0.280797
0.280803
0.011989
0.174036
0.0706011
0.0706031
0.0844696
0.115385
0.129252
0.129254
0.263638
0.339411
0.160204
0.353278
0.204988
0.398062
0.218854
0.26364
0.339415
0.160208
0.353284
0.20499
0.398066
0.218858
0.313187
0.582035
0.524611
0.524612
0.447611
0.447611
0.390187
0.353243
0.429016
0.429018
0.622091
0.294593
0.487666
0.487668
0.101799
0.069656
0.0696565
0.0122327
0.114439
0.0570156
0.0570162
0
0
0
0
0
0
0
0.492468
0.793534
0.614252
0.537251
0.838317
0.761316
0.716533
0.49247
0.614254
0.793536
0.537253
0.838319
0.761319
0.716536
0.191403
0.338467
0.159259
0.281043
0.204043
0.325827
0.146619
0.191403
0.338468
0.159261
0.281045
0.204044
0.325828
0.14662
0.0567711
0.0567731
0.101555
0.132546
0.0429795
0.0877616
0.0877636
0
0.923984
0.687474
0
0
0.728855
0.460041
0.923988
0
0.687482
0
0.728857
0
0.460049
0.518655
0.532521
0.577305
0.80137
0.697935
0.742719
0.756585
0.518661
0.532529
0.577311
0.801378
0.697945
0.742727
0.756596
0.281007
0.428071
0.428072
0.549855
0.293647
0.415431
0.415431
0.325581
0.146374
0.191158
0.222148
0.311787
0.356572
0.177364
0.325585
0.146378
0.19116
0.22215
0.311793
0.356576
0.177368
0.415186
0.415188
0.280762
0.311753
0.580601
0.446176
0.446178
0
0
0
0
0
0
0
0.76128
0
0.703856
0.626855
0.927921
0.85092
0.985345
0.76128
0
0.703857
0.626856
0.927923
0.850922
0.985346
0.274182
0.184615
0.127117
0.127117
0.1719
0.229398
0.229399
0.608259
0.801335
0.66691
0.890974
0.966749
0.832324
0
0.608263
0.801337
0.666914
0.89098
0.966753
0.83233
0
0
0
0.99335
0
0
0.878354
0.530389
0
0
0.993353
0
0.878355
0
0.530391
0.363785
0.453426
0.395928
0.21672
0.498209
0.261504
0.319002
0.363786
0.453428
0.395929
0.216722
0.49821
0.261504
0.319003
0.696993
0.517712
0.460288
0.741777
0.505071
0.729136
0.684353
0.517713
0.696996
0.46029
0.741779
0.505073
0.729138
0.684356
0
0
0
0.896401
0.673682
0.673688
0.404874
0.208357
0.284204
0.284206
0.118791
0.328988
0.163573
0.163575
0.297959
0.553014
0.373807
0.387598
0.418591
0.432383
0.253175
0.297961
0.553018
0.373811
0.387604
0.418593
0.432387
0.253179
0.504825
0.684105
0.728889
0.491031
0.535815
0.759879
0.715095
0.504831
0.684115
0.728897
0.491039
0.535821
0.759888
0.715105
0.453389
0.722238
0.485532
0.485532
0.587813
0.587814
0.351108
0.387564
0.642619
0.642621
0.656412
0.508196
0.521987
0.521989
0.965805
0.607316
0.7291
0.831381
0.594675
0.81874
0.953165
0.965806
0.607317
0.7291
0.831382
0.594676
0.818742
0.953166
0.421284
0.568423
0.568423
0.331717
0.613206
0.3765
0.376501
0
0
0
0
0
0
0
0.594429
0.952919
0.818494
0.759845
0.62542
0.849484
0.983909
0.594433
0.952923
0.8185
0.759847
0.625424
0.84949
0.983913
0.510887
0.837234
0.658026
0.600528
0.70281
0.645311
0.466104
0.510888
0.837235
0.658028
0.60053
0.70281
0.645312
0.466105
0.63267
0.754454
0.575172
0.677454
0.799238
0.901519
0.856735
0.632673
0.575174
0.754457
0.677456
0.79924
0.901521
0.856738
0.449656
0.449658
0.49444
0.704713
0.615147
0.659929
0.659931
0
0
0
0
0
0
0
0
0
0
0
0
0
0
0.732258
0.566842
0.611626
0.835691
0.911538
0.956322
0.790906
0.732264
0.56685
0.611632
0.835699
0.911548
0.95633
0.790916
0.718466
0.539259
0.584043
0.794316
0.883955
0.928739
0.749532
0.71847
0.539263
0.584045
0.794318
0.883961
0.928743
0.749536
0.600491
0.926838
0.926838
0.86934
0.792414
0.734915
0.734916
)
;

boundaryField
{
    inlet
    {
        type            calculated;
        value           uniform 0;
    }
    wall
    {
        type            calculated;
        value           uniform 0;
    }
    outlet
    {
        type            calculated;
        value           uniform 0;
    }
    procBoundary0to1
    {
        type            processor;
        value           uniform 0;
    }
    procBoundary0to2
    {
        type            processor;
        value           uniform 0;
    }
}


// ************************************************************************* //
