/*--------------------------------*- C++ -*----------------------------------*\
| =========                 |                                                 |
| \\      /  F ield         | OpenFOAM: The Open Source CFD Toolbox           |
|  \\    /   O peration     | Version:  5.x                                   |
|   \\  /    A nd           | Web:      www.OpenFOAM.org                      |
|    \\/     M anipulation  |                                                 |
\*---------------------------------------------------------------------------*/
FoamFile
{
    version     2.0;
    format      ascii;
    class       volScalarField;
    location    "0.057";
    object      phiIB;
}
// * * * * * * * * * * * * * * * * * * * * * * * * * * * * * * * * * * * * * //

dimensions      [0 2 -1 0 0 0 0];

internalField   nonuniform List<scalar> 
1574
(
-0.000103985
-0.000103947
-0.000103939
-0.000103926
-0.000103933
-0.000103946
-0.000103911
-0.000103907
-0.00010389
-0.000103894
-0.000103939
-0.000103907
-0.000103906
-0.00010389
-0.000103894
-0.000103926
-0.00010389
-0.00010389
-0.000103875
-0.000103878
-0.000103933
-0.000103894
-0.000103894
-0.000103878
-0.000103881
-0.000203287
-0.000203267
-0.000203251
-0.00020324
-0.000203235
-0.000203267
-0.000203252
-0.000203239
-0.000203229
-0.000203225
-0.000203251
-0.000203239
-0.000203229
-0.000203221
-0.000203218
-0.00020324
-0.000203229
-0.000203221
-0.000203214
-0.000203212
-0.000203235
-0.000203225
-0.000203218
-0.000203212
-0.00020321
-0.000482766
-0.000482726
-0.000482712
-0.000482691
-0.000482689
-0.000482726
-0.00048268
-0.000482664
-0.000482641
-0.000482638
-0.000482712
-0.000482664
-0.000482649
-0.000482626
-0.000482623
-0.000482691
-0.000482641
-0.000482626
-0.000482603
-0.000482601
-0.000482688
-0.000482638
-0.000482623
-0.000482601
-0.000482598
-0.000630189
-0.00063014
-0.000630118
-0.000630092
-0.000630086
-0.00063014
-0.000630092
-0.000630069
-0.000630044
-0.000630037
-0.000630118
-0.000630069
-0.000630047
-0.000630022
-0.000630016
-0.000630092
-0.000630044
-0.000630022
-0.000629998
-0.000629992
-0.000630085
-0.000630037
-0.000630016
-0.000629992
-0.000629986
-0.000883813
-0.000883738
-0.000883708
-0.000883672
-0.000883664
-0.000883738
-0.00088366
-0.000883629
-0.000883592
-0.000883584
-0.000883708
-0.000883629
-0.000883598
-0.00088356
-0.000883552
-0.000883672
-0.000883592
-0.00088356
-0.000883522
-0.000883513
-0.000883664
-0.000883583
-0.000883552
-0.000883513
-0.000883504
-0.00105612
-0.00105601
-0.00105597
-0.00105592
-0.00105591
-0.00105601
-0.00105591
-0.00105587
-0.00105582
-0.00105581
-0.00105597
-0.00105587
-0.00105583
-0.00105578
-0.00105576
-0.00105592
-0.00105582
-0.00105578
-0.00105572
-0.00105571
-0.00105591
-0.00105581
-0.00105576
-0.00105571
-0.0010557
-0.00128929
-0.00128914
-0.00128909
-0.00128902
-0.001289
-0.00128914
-0.001289
-0.00128894
-0.00128887
-0.00128885
-0.00128909
-0.00128894
-0.00128888
-0.00128881
-0.00128879
-0.00128902
-0.00128887
-0.00128881
-0.00128874
-0.00128872
-0.001289
-0.00128885
-0.00128879
-0.00128872
-0.0012887
-0.00147713
-0.00147693
-0.00147685
-0.00147676
-0.00147673
-0.00147693
-0.00147672
-0.00147664
-0.00147655
-0.00147653
-0.00147685
-0.00147664
-0.00147656
-0.00147647
-0.00147644
-0.00147675
-0.00147655
-0.00147647
-0.00147637
-0.00147634
-0.00147673
-0.00147653
-0.00147644
-0.00147634
-0.00147632
-0.00169725
-0.00169698
-0.00169687
-0.00169675
-0.00169672
-0.00169698
-0.0016967
-0.00169659
-0.00169646
-0.00169643
-0.00169687
-0.00169659
-0.00169648
-0.00169635
-0.00169631
-0.00169675
-0.00169646
-0.00169635
-0.00169621
-0.00169618
-0.00169672
-0.00169643
-0.00169631
-0.00169618
-0.00169615
-0.0018934
-0.00189302
-0.00189288
-0.0018927
-0.00189267
-0.00189302
-0.00189262
-0.00189248
-0.0018923
-0.00189226
-0.00189288
-0.00189248
-0.00189233
-0.00189215
-0.00189211
-0.0018927
-0.0018923
-0.00189215
-0.00189196
-0.00189193
-0.00189267
-0.00189226
-0.00189211
-0.00189193
-0.00189189
-0.00210527
-0.00210475
-0.00210456
-0.00210434
-0.00210429
-0.00210475
-0.00210421
-0.00210401
-0.00210378
-0.00210373
-0.00210456
-0.00210401
-0.00210381
-0.00210357
-0.00210352
-0.00210434
-0.00210378
-0.00210357
-0.00210332
-0.00210327
-0.00210429
-0.00210373
-0.00210352
-0.00210327
-0.00210323
-0.00230441
-0.00230368
-0.00230345
-0.00230315
-0.0023031
-0.00230368
-0.00230293
-0.00230269
-0.00230237
-0.00230232
-0.00230345
-0.00230268
-0.00230244
-0.00230212
-0.00230207
-0.00230315
-0.00230237
-0.00230212
-0.0023018
-0.00230175
-0.0023031
-0.00230232
-0.00230207
-0.00230175
-0.00230171
-0.00250973
-0.00250878
-0.00250848
-0.00250812
-0.00250807
-0.00250878
-0.00250776
-0.00250745
-0.00250705
-0.002507
-0.00250848
-0.00250745
-0.00250715
-0.00250676
-0.00250672
-0.00250812
-0.00250705
-0.00250676
-0.00250637
-0.00250635
-0.00250807
-0.002507
-0.00250672
-0.00250635
-0.00250633
-0.00270719
-0.00270591
-0.00270563
-0.00270519
-0.0027052
-0.00270591
-0.00270457
-0.00270429
-0.00270385
-0.00270384
-0.00270563
-0.00270428
-0.00270406
-0.00270368
-0.00270372
-0.00270519
-0.00270385
-0.00270368
-0.00270334
-0.0027034
-0.0027052
-0.00270384
-0.00270372
-0.0027034
-0.0027035
-0.00290361
-0.00290202
-0.00290178
-0.00290136
-0.00290146
-0.00290202
-0.00290031
-0.00290013
-0.00289972
-0.00289985
-0.00290178
-0.00290013
-0.00290018
-0.00290001
-0.0029003
-0.00290136
-0.00289972
-0.00290001
-0.00290031
-0.00290086
-0.00290146
-0.00289984
-0.0029003
-0.00290086
-0.00290148
-0.00309178
-0.00308975
-0.00308983
-0.00308944
-0.00308989
-0.00308975
-0.00308778
-0.00308812
-0.00308801
-0.00308873
-0.00308983
-0.00308812
-0.00308908
-0.00308949
-0.00309033
-0.00308944
-0.00308801
-0.00308949
-0.00309071
-0.00309239
-0.00308989
-0.00308873
-0.00309033
-0.00309239
-0.00309459
-0.0032676
-0.00326453
-0.00326452
-0.00326404
-0.00326469
-0.00326453
-0.00326204
-0.00326258
-0.00326298
-0.0032643
-0.00326452
-0.00326258
-0.00326387
-0.00326547
-0.0032672
-0.00326404
-0.00326298
-0.00326547
-0.00326807
-0.00326929
-0.0032647
-0.0032643
-0.0032672
-0.00326929
-0.00327039
-0.00342569
-0.00342049
-0.00341996
-0.00341907
-0.00341936
-0.0034205
-0.00341679
-0.00341737
-0.00341732
-0.00341742
-0.00341996
-0.00341737
-0.003418
-0.00341729
-0.00341729
-0.00341907
-0.00341732
-0.00341729
-0.00341533
-0.00341524
-0.00341936
-0.00341742
-0.00341729
-0.00341524
-0.00341503
-0.00354796
-0.00353879
-0.00353556
-0.00353155
-0.00353063
-0.00353879
-0.00353123
-0.00352964
-0.00352587
-0.00352424
-0.00353556
-0.00352964
-0.00352685
-0.00352212
-0.00352024
-0.00353155
-0.00352587
-0.00352212
-0.00351742
-0.00351531
-0.00353063
-0.00352424
-0.00352024
-0.00351531
-0.00351277
-0.00364159
-0.00363091
-0.00362549
-0.00361985
-0.00361951
-0.00363091
-0.00361842
-0.00361338
-0.00360683
-0.00360473
-0.00362549
-0.00361338
-0.00360611
-0.00359852
-0.00359541
-0.00361985
-0.00360683
-0.00359852
-0.0035898
-0.00358556
-0.0036195
-0.00360473
-0.00359541
-0.00358556
-0.00358022
-0.00369242
-0.00367712
-0.00366891
-0.0036605
-0.00365741
-0.00367711
-0.00365875
-0.0036472
-0.00363642
-0.00363111
-0.0036689
-0.00364719
-0.00363161
-0.00361809
-0.0036098
-0.00366049
-0.00363641
-0.00361808
-0.00360317
-0.0035922
-0.0036574
-0.0036311
-0.00360979
-0.00359219
-0.00357631
-0.00373428
-0.00371589
-0.00370716
-0.00369865
-0.00369675
-0.00371589
-0.00369395
-0.0036818
-0.00367157
-0.0036664
-0.00370715
-0.00368179
-0.00366649
-0.00365289
-0.00364537
-0.00369864
-0.00367156
-0.00365289
-0.00363781
-0.00362681
-0.00369674
-0.00366639
-0.00364536
-0.00362681
-0.00361498
-0.00372913
-0.00370481
-0.00369464
-0.00368644
-0.00367941
-0.0037048
-0.00367743
-0.00365729
-0.00364425
-0.00363265
-0.00369463
-0.00365729
-0.0036279
-0.00361036
-0.00359196
-0.00368643
-0.00364424
-0.00361035
-0.00359458
-0.00357496
-0.00367939
-0.00363264
-0.00359195
-0.00357496
-0.0035467
-0.00375518
-0.00373249
-0.00372874
-0.00372343
-0.00372193
-0.00373249
-0.00370678
-0.00369445
-0.00368848
-0.00367721
-0.00372872
-0.00369445
-0.00367384
-0.00366111
-0.00364371
-0.00372342
-0.00368847
-0.0036611
-0.00365614
-0.00362678
-0.00372191
-0.0036772
-0.0036437
-0.00362678
-0.00358408
-0.00370818
-0.00367774
-0.0036651
-0.00365763
-0.00365185
-0.00367772
-0.00364646
-0.00362676
-0.00362022
-0.00360621
-0.00366507
-0.00362675
-0.00358644
-0.00357451
-0.00353632
-0.0036576
-0.00362021
-0.00357449
-0.00356871
-0.00352672
-0.00365181
-0.0036062
-0.00353629
-0.00352673
-0.00346
-0.00373621
-0.00370345
-0.00369222
-0.00368172
-0.00366863
-0.00370343
-0.00367285
-0.00364469
-0.00366054
-0.00363206
-0.00369219
-0.00364468
-0.00360831
-0.0036154
-0.00353811
-0.00368168
-0.00366053
-0.00361538
-0.00371592
-0.00363901
-0.00366858
-0.00363205
-0.00353808
-0.003639
-0.0033161
-0.00365112
-0.00360503
-0.00357878
-0.00355672
-0.00353441
-0.003605
-0.00356516
-0.00352282
-0.0035254
-0.00351162
-0.00357871
-0.00352282
-0.00345893
-0.00346487
-0.00344803
-0.00355664
-0.00352537
-0.00346482
-0.0034618
-0.00333819
-0.00353428
-0.00351163
-0.00344789
-0.00333822
-0.00361502
-0.0036805
-0.00363799
-0.00360648
-0.00358536
-0.00353213
-0.00363796
-0.00361641
-0.0035458
-0.00360431
-0.00360067
-0.00360642
-0.00354579
-0.00335851
-0.00336349
-0.00300142
-0.00358529
-0.00360429
-0.00336349
-0.00364363
-0.00246507
-0.00353205
-0.00360066
-0.00300139
-0.00246533
-0.00286357
-0.00356787
-0.00351656
-0.00349761
-0.0034523
-0.00346161
-0.0035165
-0.00349589
-0.00343555
-0.00346638
-0.0034848
-0.0034975
-0.00343558
-0.00336885
-0.00332689
-0.0034005
-0.00345217
-0.00346635
-0.00332691
-0.00325466
-0.0031216
-0.00346132
-0.00348495
-0.00340015
-0.00312271
-0.00313406
-0.00361412
-0.00360032
-0.00359301
-0.00358867
-0.00363001
-0.00360027
-0.00359168
-0.0035918
-0.00354731
-0.00360092
-0.00359294
-0.00359179
-0.00361171
-0.00363532
-0.00376018
-0.00358859
-0.00354728
-0.00363531
-0.00334174
-0.00329586
-0.00362986
-0.00360088
-0.00376013
-0.00329628
-0.00457244
-0.00344783
-0.00341757
-0.00340844
-0.0033599
-0.00341294
-0.00341751
-0.00340931
-0.00337512
-0.00329836
-0.00332161
-0.00340834
-0.0033751
-0.00337287
-0.00325145
-0.00392487
-0.00335978
-0.00329832
-0.00325143
-0.00282768
-0.00278495
-0.00341271
-0.0033216
-0.00392485
-0.00278492
-0.0046107
-0.00348176
-0.00347521
-0.00346854
-0.00345785
-0.00348458
-0.00347514
-0.00345962
-0.0034403
-0.00337087
-0.00334554
-0.00346845
-0.00344027
-0.00343011
-0.00331944
-0.00331164
-0.00345775
-0.00337084
-0.00331943
-0.00296901
-0.00375648
-0.00348443
-0.00334549
-0.00331159
-0.00375602
-0.00259413
-0.00326035
-0.0032609
-0.00327186
-0.0032659
-0.00330277
-0.00326087
-0.00327455
-0.00328008
-0.00327608
-0.00331013
-0.00327181
-0.00328006
-0.0033147
-0.00333135
-0.00348436
-0.00326583
-0.00327604
-0.00333134
-0.00313538
-0.00318129
-0.00330269
-0.00331008
-0.00348436
-0.00318118
-0.00289692
-0.00334049
-0.00336178
-0.00337924
-0.00340103
-0.00343563
-0.00336177
-0.00337552
-0.00339408
-0.00339446
-0.00338737
-0.00337921
-0.00339407
-0.0034391
-0.00343375
-0.00355824
-0.00340099
-0.00339443
-0.00343373
-0.00343656
-0.00309853
-0.00343557
-0.00338733
-0.00355819
-0.0030985
-0.00338789
-0.00296852
-0.00298499
-0.0029977
-0.00301578
-0.00306097
-0.00298499
-0.00298526
-0.00299924
-0.00296826
-0.0029027
-0.00299768
-0.00299923
-0.00307661
-0.00299447
-0.00323186
-0.00301576
-0.00296825
-0.00299446
-0.00304127
-0.00277313
-0.00306094
-0.00290268
-0.00323185
-0.00277312
-0.00300202
-0.00300403
-0.00302509
-0.00303931
-0.00305699
-0.00308654
-0.00302509
-0.0030441
-0.00306064
-0.00305439
-0.00304516
-0.00303929
-0.00306063
-0.00311172
-0.00309291
-0.0031918
-0.00305697
-0.00305438
-0.00309292
-0.00312421
-0.00322599
-0.00308653
-0.00304516
-0.00319181
-0.00322599
-0.00347765
-0.00231463
-0.00232164
-0.00231776
-0.0023152
-0.0023006
-0.00232164
-0.00231367
-0.00230251
-0.00226299
-0.00222423
-0.00231775
-0.00230251
-0.00227892
-0.00223679
-0.00223755
-0.00231519
-0.00226298
-0.00223679
-0.00218537
-0.00210856
-0.0023006
-0.00222423
-0.00223755
-0.00210856
-0.00212024
-0.0019753
-0.00198319
-0.00198344
-0.001994
-0.00200222
-0.00198319
-0.00199787
-0.00200719
-0.00202045
-0.00203374
-0.00198344
-0.00200718
-0.00203776
-0.00208326
-0.00214859
-0.00199399
-0.00202044
-0.00208326
-0.0021621
-0.00223033
-0.00200221
-0.00203374
-0.00214859
-0.00223033
-0.00235858
-0.000872067
-0.000874531
-0.000872102
-0.000878974
-0.000883806
-0.000874535
-0.00087164
-0.000875282
-0.000879256
-0.000890685
-0.000872107
-0.000875281
-0.000897258
-0.000909285
-0.000912048
-0.000878976
-0.000879253
-0.000909282
-0.000898939
-0.000886214
-0.000883808
-0.000890683
-0.000912047
-0.000886216
-0.000867531
-0.000478255
-0.000481839
-0.00048248
-0.000489125
-0.000491846
-0.000481835
-0.000497353
-0.000504111
-0.000520544
-0.000531491
-0.000482477
-0.000504113
-0.000517806
-0.000551874
-0.000589419
-0.000489117
-0.000520541
-0.000551871
-0.000616102
-0.00067218
-0.00049184
-0.000531491
-0.00058942
-0.000672182
-0.000746899
-0.00629164
-0.0062917
-0.00608464
-0.00233808
-0.00226292
-0.00226305
-0.00180718
-0.00139679
-0.00139678
-0.000710669
-0.00227752
-2.1049e-05
-2.09889e-05
-0.000459679
-0.00162428
-0.00162408
-0.00246363
-0.00359009
-0.00501046
-0.00501041
-0.00522263
-0.00324899
-0.00367672
-0.00391389
-0.00308801
-0.00351626
-0.0037192
-0.0036856
-0.0036767
-0.00324894
-0.00391388
-0.00308798
-0.00371918
-0.00351623
-0.00368556
-0.00446256
-0.00446252
-0.00560044
-0.00248529
-0.003339
-0.00333899
-0.00389301
-0.00727186
-0.00727173
-0.00563666
-0.00383137
-0.00547954
-0.00547916
-0.00699349
-0.00541863
-0.00677042
-0.00677035
-0.005855
-0.00687455
-0.00607095
-0.00607082
-0.00383489
-0.00491661
-0.00491659
-0.00596575
-0.0044273
-0.00466798
-0.00466795
-0.0044602
-0.00417158
-0.00481119
-0.00367976
-0.00458095
-0.00330221
-0.0050017
-0.00446021
-0.00417158
-0.00481118
-0.00367971
-0.00458095
-0.00330218
-0.00500168
-0.00723533
-0.00723518
-0.00685533
-0.00674207
-0.00671842
-0.00693014
-0.00692997
-0.00325613
-0.00409493
-0.00513728
-0.0024277
-0.00302007
-0.00399638
-0.00457435
-0.00409515
-0.00325622
-0.00513707
-0.00242761
-0.00399652
-0.00301967
-0.00457393
-0.0041508
-0.00888675
-0.00715965
-0.0065166
-0.00645254
-0.00568781
-0.00703766
-0.00415063
-0.0088866
-0.00715964
-0.00651656
-0.00645212
-0.00568749
-0.00703739
-0.00464212
-0.00392745
-0.00392744
-0.00279602
-0.00453328
-0.00378325
-0.00378323
-0.00486305
-0.00486298
-0.00666684
-0.0064104
-0.0043564
-0.00509371
-0.00509336
-0.0048431
-0.00462124
-0.00514971
-0.0051497
-0.00498628
-0.00472657
-0.00472655
-0.00330795
-0.0030623
-0.00369339
-0.00334692
-0.00331091
-0.0035732
-0.00428651
-0.00306227
-0.00330782
-0.00369331
-0.00334686
-0.00357317
-0.00331086
-0.00428644
-0.00495992
-0.00587879
-0.00473683
-0.00511895
-0.00574555
-0.0048332
-0.00492094
-0.00495991
-0.00587873
-0.00473682
-0.0051189
-0.00574554
-0.00483319
-0.00492088
-0.00184572
-0.00184578
0.00435379
-0.00386302
-0.00539368
-0.00539303
-0.00440935
-0.00656828
-0.00590359
-0.00590352
-0.00633337
-0.00612899
-0.00648751
-0.00648738
-0.00625106
-0.00668186
-0.00640696
-0.00691614
-0.0064019
-0.00630003
-0.00655745
-0.00625067
-0.00668213
-0.00640686
-0.00691568
-0.00640232
-0.00629952
-0.00655709
-0.00568256
-0.00388171
-0.00411053
-0.00411052
-0.00442082
-0.00442076
-0.00527017
-0.00663609
-0.00525446
-0.0052542
-0.00450707
-0.00686272
-0.00523233
-0.00523205
-0.00430413
-0.00280218
-0.00280215
-0.00379054
-0.00313473
-0.00403325
-0.00403322
-0.00345644
-0.00345637
-0.0037988
-0.0031754
-0.00343174
-0.0034317
-0.00365227
-0.00384237
-0.00333663
-0.00400676
-0.00378321
-0.00328465
-0.00369981
-0.00375822
-0.00384224
-0.00400671
-0.00333662
-0.00378308
-0.00328466
-0.00369979
-0.00375819
-0.00483397
-0.0021896
-0.00363383
-0.0050829
-0.00408696
-0.00440433
-0.00453869
-0.00483395
-0.00218947
-0.00363379
-0.00508272
-0.00408691
-0.00440419
-0.00453863
-0.00484668
-0.00484667
-0.00530829
-0.00343331
-0.00231115
-0.00294584
-0.0029459
-0.0024887
-0.00324338
-0.00189125
-0.0033415
-0.00368638
-0.00397744
-0.00483715
-0.00324318
-0.00248915
-0.00189159
-0.00334141
-0.00397746
-0.00368608
-0.004837
-0.00473379
-0.00675548
-0.00524106
-0.0029717
-0.00429679
-0.00394672
-0.00345665
-0.00473385
-0.00675525
-0.00524077
-0.00297166
-0.00429665
-0.00394662
-0.00345663
-0.00555321
-0.00351701
-0.00351688
-0.00339151
-0.00283717
-0.00416937
-0.00416932
-0.00477254
-0.00566715
-0.0062422
-0.00444586
-0.00224466
-0.00281391
-0.00456994
-0.0047714
-0.00566712
-0.00624245
-0.00444553
-0.00224454
-0.0028132
-0.00457032
-0.00501213
-0.00501127
-0.00627618
-0.00308271
-0.00355351
-0.00435112
-0.0043513
-0.00327964
-0.00327959
-0.00324131
-0.00329314
-0.00334597
-0.00334594
-0.00351148
-0.00352008
-0.00326733
-0.00393381
-0.00375001
-0.0034871
-0.00360122
-0.00344279
-0.00352008
-0.00326735
-0.00393379
-0.00374995
-0.00348709
-0.00360117
-0.00344278
-0.000492469
0.0020375
-0.000749456
-0.000749374
-0.000735832
0.000837242
0.000837382
-0.00443365
-0.00408168
-0.0046378
-0.00375238
-0.00371781
-0.00398636
-0.00361558
-0.0044336
-0.00408162
-0.00463759
-0.00375239
-0.00371791
-0.00398622
-0.00361571
-0.00327974
-0.00226745
0.000476168
-0.00304887
-0.00225532
-0.0020585
-0.00149206
-0.00226713
-0.00327972
0.000475939
-0.00304877
-0.00205848
-0.0022552
-0.00149198
0.000847204
-0.00123437
-0.00129562
-0.00109478
-0.00169405
-0.000814872
0.00125481
0.000847351
-0.00123433
-0.00129566
-0.00109453
-0.00169399
-0.000814452
0.00125509
-0.00264067
-0.00338883
-0.00365732
-0.00275891
-0.00366521
-0.00320024
-0.00331142
-0.0033888
-0.00264059
-0.00365718
-0.0027589
-0.00366511
-0.00320017
-0.00331133
-0.0015768
-0.00157685
0.00024621
-0.00332646
-0.00210872
-0.00210875
0.00271128
-0.00051666
0.000392447
0.000392437
0.00104487
-0.000934891
0.000415377
0.00041542
-0.00219103
-0.00195144
3.19476e-05
-0.00190348
-0.000242992
-0.0027944
-0.00149794
-0.00219014
-0.00195151
3.20522e-05
-0.00190371
-0.000242681
-0.00279465
-0.00149769
-0.00480102
-0.00388215
-0.00359794
-0.00484921
-0.00423585
-0.00356494
-0.00355559
-0.00480066
-0.00388183
-0.0035974
-0.00484914
-0.00423516
-0.00356477
-0.00355561
0.000518162
-0.00288631
-0.00212822
-0.00212821
-0.00175504
-0.00175513
-0.000469904
-0.00242352
-0.00252714
-0.00252718
-0.00322218
-0.00172939
-0.00315366
-0.00315362
-0.00301309
-0.00301393
-0.00338134
-0.00306433
-0.00360067
-0.00329767
-0.00314372
-0.00301314
-0.00301386
-0.00338133
-0.00306428
-0.00360064
-0.00329761
-0.00314372
0.000636147
-0.00113581
-0.00113578
0.00107387
-0.00175532
0.00101494
0.00101511
-0.00319827
-0.00319798
-0.0028114
-0.00324269
-0.00359004
-0.00358992
-0.00361004
-0.00428298
-0.00349392
-0.00377681
-0.00372064
-0.00370087
-0.00375872
-0.00357211
-0.00428289
-0.0034939
-0.00377652
-0.00372052
-0.00370089
-0.00375894
-0.00357239
0.000711313
-0.00193891
-0.000637277
-0.000445923
-0.00117604
-0.00101681
0.0014518
0.000711309
-0.00193879
-0.000637283
-0.00044591
-0.00117599
-0.00101676
0.00145184
-0.000826698
-0.00186488
-0.00154499
-0.000837845
-0.00221873
-0.00184275
-0.00163836
-0.000826672
-0.00154487
-0.00186488
-0.000837793
-0.00221875
-0.0018428
-0.00163838
0.00203954
0.0020395
0.00135883
-0.00196498
-0.00148631
-0.00198982
-0.00198982
-0.00293924
-0.00344002
-0.00335049
-0.00349053
-0.00400152
-0.0026886
-0.00213757
-0.00343991
-0.0029393
-0.0033504
-0.00349049
-0.00268832
-0.00400151
-0.00213771
-0.00140102
-0.00248741
-0.00241996
-0.00373962
-0.00290833
-0.0024254
-0.00396563
-0.00140055
-0.00248723
-0.00241967
-0.00373898
-0.0029091
-0.00242511
-0.00396604
-0.00180671
-6.59764e-05
-6.82843e-05
-0.00297981
-0.00240513
-0.00182259
-0.00330815
-0.00180733
-6.59033e-05
-6.81981e-05
-0.00297973
-0.00240505
-0.0018226
-0.00330808
0.0013926
-0.00221228
-0.00221183
-0.00318154
-0.00135187
-0.00168054
-0.00168047
)
;

boundaryField
{
    inlet
    {
        type            fixedValue;
        value           uniform 0;
    }
    wall
    {
        type            zeroGradient;
    }
    outlet
    {
        type            fixedValue;
        value           uniform 0;
    }
    procBoundary0to1
    {
        type            processor;
        value           nonuniform List<scalar> 
320
(
-0.000103933
-0.000103893
-0.000103892
-0.000103876
-0.000103879
-0.000203233
-0.000203223
-0.000203216
-0.00020321
-0.000203209
-0.000482687
-0.000482636
-0.00048262
-0.000482597
-0.000482595
-0.000630082
-0.000630034
-0.000630013
-0.000629989
-0.000629983
-0.00088366
-0.00088358
-0.000883547
-0.000883508
-0.000883499
-0.00105591
-0.0010558
-0.00105576
-0.00105571
-0.00105569
-0.001289
-0.00128885
-0.00128879
-0.00128871
-0.00128869
-0.00147673
-0.00147652
-0.00147644
-0.00147634
-0.00147631
-0.00169671
-0.00169642
-0.00169631
-0.00169617
-0.00169614
-0.00189266
-0.00189225
-0.0018921
-0.00189191
-0.00189188
-0.00210428
-0.00210371
-0.0021035
-0.00210326
-0.00210321
-0.00230308
-0.0023023
-0.00230205
-0.00230173
-0.00230169
-0.00250805
-0.00250698
-0.0025067
-0.00250632
-0.0025063
-0.00270518
-0.00270382
-0.0027037
-0.00270337
-0.00270347
-0.00290143
-0.00289981
-0.00290026
-0.00290082
-0.00290143
-0.00308985
-0.00308868
-0.00309028
-0.00309233
-0.00309452
-0.00326465
-0.00326424
-0.00326714
-0.00326924
-0.00327033
-0.00341931
-0.00341737
-0.00341724
-0.00341517
-0.00341495
-0.00353058
-0.00352419
-0.00352019
-0.00351524
-0.00351268
-0.0036195
-0.0036047
-0.00359536
-0.00358546
-0.00358008
-0.00365741
-0.00363111
-0.00360976
-0.00359208
-0.00357612
-0.00369676
-0.00366637
-0.00364528
-0.0036266
-0.00361466
-0.0036795
-0.00363265
-0.00359193
-0.00357476
-0.00354646
-0.00372204
-0.00367717
-0.00364354
-0.00362647
-0.00358376
-0.00365207
-0.0036062
-0.00353621
-0.00352619
-0.00345984
-0.00366906
-0.00363226
-0.00353841
-0.003641
-0.00332002
-0.00353515
-0.00351173
-0.00344834
-0.00333511
-0.00360996
-0.00353332
-0.00360219
-0.00300062
-0.00294547
-0.00161309
-0.00346402
-0.00348735
-0.00339945
-0.00251356
-0.00180757
-0.00363279
-0.00360517
-0.00377474
-0.00325762
-0.00726904
-0.00341539
-0.00332464
-0.00395993
-0.00283674
-0.0061211
-0.00348766
-0.00334876
-0.00331195
-0.0032141
-0.001417
-0.00330613
-0.00331131
-0.00348368
-0.00331087
-0.00163118
-0.00344034
-0.00339069
-0.00356789
-0.00324086
-0.00446504
-0.00306695
-0.00290416
-0.00323667
-0.00276383
-0.00303179
-0.00309005
-0.00304959
-0.00318744
-0.00324236
-0.00346675
-0.00230605
-0.0022294
-0.00224556
-0.00211383
-0.00213244
-0.00200584
-0.00203714
-0.00214931
-0.00223192
-0.00235014
-0.000885091
-0.000891866
-0.000914094
-0.000887661
-0.000869865
-0.000493059
-0.000531861
-0.000589535
-0.000672027
-0.000745861
-0.00605266
-0.00167274
-0.00227072
-0.000691894
-0.000454335
-2.71671e-05
-0.00246362
-0.00522911
-0.00502221
-0.00392563
-0.00370766
-0.00351368
-0.00558567
-0.00378034
-0.00323968
-0.0056351
-0.0069752
-0.00543273
-0.00579337
-0.00599446
-0.00670697
-0.00594618
-0.00465913
-0.0049075
-0.00480145
-0.00496558
-0.00361528
-0.0072011
-0.00691727
-0.00671214
-0.00513534
-0.00457609
-0.0030307
-0.00643448
-0.00702016
-0.00883972
-0.00515681
-0.00473569
-0.00463059
-0.0036929
-0.00430227
-0.00331795
-0.00588306
-0.00492881
-0.00512898
0.00435409
-0.00440746
-0.00539244
-0.0063308
-0.00648231
-0.00590101
-0.00640494
-0.00655247
-0.00690655
-0.00379595
-0.00403738
-0.00279783
-0.00334881
-0.00376657
-0.00385092
-0.00363181
-0.00454392
-0.00509335
-0.00484589
-0.0029464
-0.00230533
-0.00190195
-0.0048353
-0.00368897
-0.00675097
-0.003453
-0.00429523
-0.00224339
-0.00457446
-0.00566757
-0.00073036
0.00084128
0.00204477
0.000488609
-0.00149699
-0.0022407
-0.00123815
0.0012746
-0.0010775
-0.00366534
-0.00331722
-0.00264227
0.000231341
0.00269945
-0.0021076
0.00106142
0.000412501
0.000385885
2.59131e-05
-0.00151151
-0.00190744
-0.0038823
-0.00355511
-0.00484764
0.00110155
0.00106017
-0.00112911
-0.000655425
0.00145014
-0.000447784
-0.00186046
-0.00162468
-0.000816046
0.00204654
-0.00198801
-0.00151182
-0.00337104
-0.00210945
-0.00400841
-0.00248685
-0.00396045
-0.00290098
-0.00239841
-0.00330368
-7.76247e-05
)
;
    }
    procBoundary0to2
    {
        type            processor;
        value           nonuniform List<scalar> 
320
(
-0.000103933
-0.000103893
-0.000103892
-0.000103876
-0.000103879
-0.000203233
-0.000203223
-0.000203216
-0.00020321
-0.000203209
-0.000482686
-0.000482635
-0.00048262
-0.000482597
-0.000482595
-0.000630082
-0.000630034
-0.000630012
-0.000629988
-0.000629982
-0.00088366
-0.000883579
-0.000883547
-0.000883508
-0.000883499
-0.00105591
-0.0010558
-0.00105576
-0.00105571
-0.00105569
-0.001289
-0.00128885
-0.00128879
-0.00128871
-0.00128869
-0.00147673
-0.00147652
-0.00147644
-0.00147634
-0.00147631
-0.00169671
-0.00169642
-0.00169631
-0.00169617
-0.00169614
-0.00189266
-0.00189225
-0.0018921
-0.00189191
-0.00189188
-0.00210428
-0.00210371
-0.0021035
-0.00210326
-0.00210321
-0.00230308
-0.0023023
-0.00230205
-0.00230173
-0.00230169
-0.00250805
-0.00250698
-0.0025067
-0.00250632
-0.0025063
-0.00270517
-0.00270381
-0.0027037
-0.00270337
-0.00270347
-0.00290143
-0.00289981
-0.00290026
-0.00290082
-0.00290142
-0.00308985
-0.00308868
-0.00309028
-0.00309233
-0.00309452
-0.00326465
-0.00326424
-0.00326715
-0.00326924
-0.00327033
-0.00341931
-0.00341737
-0.00341723
-0.00341517
-0.00341495
-0.00353058
-0.00352419
-0.00352019
-0.00351524
-0.00351268
-0.0036195
-0.0036047
-0.00359536
-0.00358546
-0.00358007
-0.0036574
-0.0036311
-0.00360975
-0.00359207
-0.00357611
-0.00369675
-0.00366636
-0.00364527
-0.00362659
-0.00361466
-0.00367948
-0.00363264
-0.00359191
-0.00357475
-0.00354646
-0.00372202
-0.00367715
-0.00364352
-0.00362646
-0.00358376
-0.00365204
-0.00360618
-0.00353619
-0.00352618
-0.00345984
-0.003669
-0.00363223
-0.00353837
-0.00364097
-0.00332001
-0.00353505
-0.0035117
-0.00344826
-0.00333511
-0.00360998
-0.00353322
-0.00360215
-0.00300054
-0.00294553
-0.00161315
-0.00346383
-0.00348735
-0.00339919
-0.0025136
-0.00180773
-0.00363264
-0.00360511
-0.00377459
-0.0032578
-0.0072688
-0.0034152
-0.00332459
-0.00395994
-0.00283675
-0.00612078
-0.00348752
-0.00334867
-0.00331186
-0.00321387
-0.00141692
-0.00330603
-0.00331122
-0.00348363
-0.0033108
-0.00163107
-0.00344026
-0.00339062
-0.00356781
-0.00324079
-0.00446498
-0.00306689
-0.0029041
-0.00323661
-0.00276379
-0.00303175
-0.00309002
-0.00304956
-0.00318741
-0.00324231
-0.00346669
-0.00230605
-0.00222939
-0.00224554
-0.0021138
-0.0021324
-0.00200584
-0.00203714
-0.0021493
-0.00223189
-0.00235013
-0.0008851
-0.000891874
-0.000914099
-0.000887657
-0.000869865
-0.000493059
-0.000531864
-0.000589528
-0.00067202
-0.000745853
-0.0022707
-0.00167271
-0.00605258
-2.71257e-05
-0.000454318
-0.000691921
-0.00502214
-0.0052291
-0.00246361
-0.00351362
-0.0037076
-0.00392557
-0.00323964
-0.00378032
-0.00558565
-0.00543241
-0.00697517
-0.00563505
-0.0067068
-0.00599423
-0.00579328
-0.00490748
-0.0046591
-0.00594618
-0.00361523
-0.00496555
-0.00480142
-0.00671208
-0.00691709
-0.00720096
-0.00303064
-0.00457596
-0.00513519
-0.00883958
-0.00701989
-0.00643415
-0.00463057
-0.00473565
-0.00515678
-0.00331787
-0.00430218
-0.0036928
-0.00512891
-0.00492874
-0.00588301
-0.00539196
-0.00440744
0.00435392
-0.00590088
-0.00648213
-0.00633072
-0.00690625
-0.00655215
-0.00640473
-0.0027978
-0.00403735
-0.00379593
-0.00385085
-0.00376649
-0.00334876
-0.00509323
-0.00454386
-0.00363182
-0.00230535
-0.00294645
-0.00484584
-0.00368873
-0.00483504
-0.00190198
-0.00429507
-0.00345298
-0.00675081
-0.00566748
-0.00457468
-0.00224315
0.00204478
0.000841313
-0.000730322
-0.00224059
-0.00149692
0.000488634
-0.0010775
0.00127466
-0.00123815
-0.00264224
-0.00331715
-0.00366522
-0.00210775
0.00269946
0.000231262
0.000385659
0.00041241
0.00106138
-0.00190799
-0.00151154
2.59058e-05
-0.00484725
-0.00355497
-0.00388199
-0.00112911
0.00106016
0.00110145
-0.000447748
0.00145
-0.000655412
-0.000815999
-0.00162467
-0.00186044
-0.00151186
-0.00198808
0.00204653
-0.0040082
-0.00210915
-0.00337097
-0.00290091
-0.00396026
-0.00248682
-7.75948e-05
-0.00330361
-0.00239834
)
;
    }
}


// ************************************************************************* //
