/*--------------------------------*- C++ -*----------------------------------*\
| =========                 |                                                 |
| \\      /  F ield         | OpenFOAM: The Open Source CFD Toolbox           |
|  \\    /   O peration     | Version:  5.x                                   |
|   \\  /    A nd           | Web:      www.OpenFOAM.org                      |
|    \\/     M anipulation  |                                                 |
\*---------------------------------------------------------------------------*/
FoamFile
{
    version     2.0;
    format      ascii;
    class       volVectorField;
    location    "0.057";
    object      U;
}
// * * * * * * * * * * * * * * * * * * * * * * * * * * * * * * * * * * * * * //

dimensions      [0 1 -1 0 0 0 0];

internalField   nonuniform List<vector> 
1574
(
(-1.12112e-05 -1.12507e-05 0.00985088)
(-9.76958e-06 -1.37306e-05 0.00984682)
(-6.69339e-06 -1.42911e-05 0.00985137)
(-7.3143e-06 -1.49571e-05 0.0098467)
(1.89316e-07 -1.51067e-05 0.0098483)
(-1.36912e-05 -9.80965e-06 0.0098468)
(-1.27321e-05 -1.27724e-05 0.0098378)
(-7.88893e-06 -1.36642e-05 0.00984097)
(-8.10749e-06 -1.45168e-05 0.00983638)
(-1.2185e-07 -1.47878e-05 0.00983793)
(-1.42518e-05 -6.73037e-06 0.00985135)
(-1.36241e-05 -7.92621e-06 0.00984097)
(-8.43817e-06 -8.47528e-06 0.00984305)
(-8.438e-06 -8.95357e-06 0.00983837)
(-3.38496e-07 -9.15923e-06 0.00983976)
(-1.49179e-05 -7.35229e-06 0.00984668)
(-1.44767e-05 -8.1451e-06 0.00983638)
(-8.91629e-06 -8.47552e-06 0.00983836)
(-8.79144e-06 -8.82905e-06 0.0098339)
(-4.99077e-07 -8.97223e-06 0.00983535)
(-1.50671e-05 1.52835e-07 0.00984829)
(-1.47472e-05 -1.58977e-07 0.00983793)
(-9.12211e-06 -3.75259e-07 0.00983976)
(-8.93471e-06 -5.35996e-07 0.00983536)
(-6.12621e-07 -6.49008e-07 0.00983678)
(-8.16909e-06 -8.17528e-06 -0.00424864)
(-1.05958e-05 -5.99789e-06 -0.00425072)
(-7.38709e-06 -5.52308e-06 -0.00425239)
(-6.20028e-06 -4.85816e-06 -0.0042531)
(-2.50413e-06 -4.69946e-06 -0.00425384)
(-5.99169e-06 -1.06099e-05 -0.00425072)
(-8.04659e-06 -8.06009e-06 -0.00425116)
(-6.28965e-06 -7.32022e-06 -0.00425244)
(-5.40843e-06 -6.52622e-06 -0.00425287)
(-2.10194e-06 -6.27206e-06 -0.00425353)
(-5.51629e-06 -7.40422e-06 -0.00425238)
(-7.30614e-06 -6.30628e-06 -0.00425244)
(-5.85436e-06 -5.87137e-06 -0.00425348)
(-5.15294e-06 -5.43839e-06 -0.00425379)
(-1.92496e-06 -5.2669e-06 -0.00425437)
(-4.85145e-06 -6.22128e-06 -0.00425309)
(-6.51259e-06 -5.42931e-06 -0.00425287)
(-5.42176e-06 -5.1739e-06 -0.00425379)
(-4.80397e-06 -4.82463e-06 -0.00425404)
(-1.7277e-06 -4.69719e-06 -0.0042546)
(-4.69255e-06 -2.52404e-06 -0.00425383)
(-6.25792e-06 -2.12188e-06 -0.00425353)
(-5.24967e-06 -1.94567e-06 -0.00425437)
(-4.67624e-06 -1.74833e-06 -0.0042546)
(-1.63101e-06 -1.65239e-06 -0.00425513)
(-1.37427e-05 -1.37763e-05 0.00685099)
(-1.39546e-05 -1.45122e-05 0.00684373)
(-9.35686e-06 -1.46705e-05 0.00684441)
(-8.99726e-06 -1.50406e-05 0.00683931)
(-6.38226e-07 -1.51139e-05 0.00683967)
(-1.44786e-05 -1.39915e-05 0.00684372)
(-1.48228e-05 -1.48598e-05 0.00683489)
(-9.87021e-06 -1.5103e-05 0.00683521)
(-9.42732e-06 -1.5548e-05 0.00682971)
(-8.20371e-07 -1.56648e-05 0.00682998)
(-1.4637e-05 -9.39311e-06 0.0068444)
(-1.5066e-05 -9.90654e-06 0.00683521)
(-1.00452e-05 -1.00815e-05 0.0068353)
(-9.55915e-06 -1.03847e-05 0.0068297)
(-9.08613e-07 -1.04847e-05 0.0068299)
(-1.50071e-05 -9.03519e-06 0.00683929)
(-1.55111e-05 -9.46525e-06 0.0068297)
(-1.03484e-05 -9.59705e-06 0.00682969)
(-9.8305e-06 -9.86843e-06 0.00682394)
(-1.03808e-06 -9.95175e-06 0.00682411)
(-1.50803e-05 -6.75257e-07 0.00683966)
(-1.56278e-05 -8.57581e-07 0.00682998)
(-1.04484e-05 -9.45769e-07 0.0068299)
(-9.91385e-06 -1.07533e-06 0.00682412)
(-1.10822e-06 -1.14536e-06 0.00682426)
(-1.56625e-05 -1.56816e-05 -0.00149432)
(-1.71884e-05 -1.51353e-05 -0.0015023)
(-1.1816e-05 -1.50292e-05 -0.00150354)
(-1.09401e-05 -1.47746e-05 -0.00150852)
(-2.19092e-06 -1.47102e-05 -0.00150911)
(-1.51162e-05 -1.72123e-05 -0.0015023)
(-1.65633e-05 -1.6587e-05 -0.00151009)
(-1.14705e-05 -1.64325e-05 -0.00151126)
(-1.06347e-05 -1.61397e-05 -0.00151623)
(-1.96083e-06 -1.60468e-05 -0.0015168)
(-1.50099e-05 -1.18406e-05 -0.00150354)
(-1.64086e-05 -1.14949e-05 -0.00151126)
(-1.1369e-05 -1.13936e-05 -0.00151237)
(-1.05548e-05 -1.12038e-05 -0.00151732)
(-1.8994e-06 -1.11368e-05 -0.00151787)
(-1.47554e-05 -1.09673e-05 -0.00150853)
(-1.6116e-05 -1.06617e-05 -0.00151623)
(-1.11794e-05 -1.0582e-05 -0.00151732)
(-1.03778e-05 -1.04049e-05 -0.00152229)
(-1.75223e-06 -1.03408e-05 -0.00152284)
(-1.46908e-05 -2.21752e-06 -0.00150911)
(-1.6023e-05 -1.98741e-06 -0.00151681)
(-1.11121e-05 -1.92622e-06 -0.00151788)
(-1.03136e-05 -1.77895e-06 -0.00152284)
(-1.71037e-06 -1.73738e-06 -0.00152337)
(-2.20492e-05 -2.20838e-05 0.00472689)
(-2.31753e-05 -2.2624e-05 0.00471302)
(-1.55829e-05 -2.27148e-05 0.00471195)
(-1.45747e-05 -2.30684e-05 0.00470305)
(-1.33797e-06 -2.31298e-05 0.00470264)
(-2.25893e-05 -2.32141e-05 0.00471301)
(-2.37863e-05 -2.3825e-05 0.00469834)
(-1.60135e-05 -2.39464e-05 0.00469714)
(-1.49769e-05 -2.43539e-05 0.00468782)
(-1.47145e-06 -2.44353e-05 0.00468734)
(-2.26801e-05 -1.56213e-05 0.00471194)
(-2.39077e-05 -1.60519e-05 0.00469714)
(-1.61117e-05 -1.61502e-05 0.00469588)
(-1.50635e-05 -1.64486e-05 0.00468649)
(-1.52112e-06 -1.65219e-05 0.00468597)
(-2.30338e-05 -1.46151e-05 0.00470303)
(-2.43152e-05 -1.50173e-05 0.00468781)
(-1.64102e-05 -1.5104e-05 0.00468648)
(-1.53487e-05 -1.53891e-05 0.00467685)
(-1.63168e-06 -1.54543e-05 0.00467629)
(-2.30952e-05 -1.37735e-06 0.00470262)
(-2.43966e-05 -1.51093e-06 0.00468733)
(-1.64835e-05 -1.56063e-06 0.00468596)
(-1.54139e-05 -1.67123e-06 0.00467629)
(-1.68962e-06 -1.7292e-06 0.00467571)
(-3.00484e-05 -3.00783e-05 0.000159211)
(-3.21386e-05 -3.03447e-05 0.000141394)
(-2.17839e-05 -3.03847e-05 0.000139374)
(-2.02538e-05 -3.05537e-05 0.000128066)
(-2.56728e-06 -3.0568e-05 0.000127123)
(-3.03147e-05 -3.21724e-05 0.000141388)
(-3.24359e-05 -3.24697e-05 0.000123155)
(-2.1987e-05 -3.25118e-05 0.000121057)
(-2.04323e-05 -3.27034e-05 0.000109464)
(-2.49244e-06 -3.2716e-05 0.000108472)
(-3.03547e-05 -2.18175e-05 0.000139367)
(-3.2478e-05 -2.20205e-05 0.000121057)
(-2.20175e-05 -2.20512e-05 0.00011895)
(-2.04579e-05 -2.21751e-05 0.000107303)
(-2.48327e-06 -2.21857e-05 0.000106305)
(-3.05237e-05 -2.02895e-05 0.000128054)
(-3.26697e-05 -2.0468e-05 0.000109458)
(-2.21415e-05 -2.04937e-05 0.000107298)
(-2.05668e-05 -2.06024e-05 9.54597e-05)
(-2.43036e-06 -2.06043e-05 9.44269e-05)
(-3.05379e-05 -2.60177e-06 0.00012711)
(-3.26823e-05 -2.52696e-06 0.000108466)
(-2.2152e-05 -2.51794e-06 0.000106299)
(-2.05686e-05 -2.46499e-06 9.44264e-05)
(-2.43268e-06 -2.4675e-06 9.3393e-05)
(-4.05716e-05 -4.06126e-05 0.00349279)
(-4.30201e-05 -4.15889e-05 0.00346567)
(-2.89128e-05 -4.176e-05 0.00346275)
(-2.68277e-05 -4.24086e-05 0.00344555)
(-2.39912e-06 -4.25204e-05 0.00344423)
(-4.15479e-05 -4.30655e-05 0.00346566)
(-4.41303e-05 -4.41756e-05 0.00343755)
(-2.97059e-05 -4.4384e-05 0.00343443)
(-2.75639e-05 -4.51304e-05 0.00341661)
(-2.57408e-06 -4.5267e-05 0.00341517)
(-4.17189e-05 -2.89574e-05 0.00346273)
(-4.43386e-05 -2.97505e-05 0.00343443)
(-2.98674e-05 -2.99121e-05 0.00343128)
(-2.77106e-05 -3.04557e-05 0.00341334)
(-2.62951e-06 -3.05696e-05 0.00341187)
(-4.23676e-05 -2.68742e-05 0.00344553)
(-4.50853e-05 -2.76105e-05 0.0034166)
(-3.04111e-05 -2.77573e-05 0.00341332)
(-2.82214e-05 -2.82681e-05 0.00339498)
(-2.7753e-06 -2.83683e-05 0.00339343)
(-4.24794e-05 -2.44399e-06 0.00344421)
(-4.52219e-05 -2.61901e-06 0.00341516)
(-3.0525e-05 -2.67456e-06 0.00341186)
(-2.83216e-05 -2.82036e-06 0.00339343)
(-2.8432e-06 -2.88841e-06 0.00339187)
(-5.81919e-05 -5.82336e-05 0.00108822)
(-6.21957e-05 -5.95327e-05 0.00105244)
(-4.18994e-05 -5.97648e-05 0.00104824)
(-3.8767e-05 -6.05926e-05 0.00102554)
(-3.84717e-06 -6.07257e-05 0.00102355)
(-5.9491e-05 -6.22412e-05 0.00105243)
(-6.36738e-05 -6.37192e-05 0.00101534)
(-4.29224e-05 -6.39914e-05 0.00101084)
(-3.96951e-05 -6.49348e-05 0.000987284)
(-3.95144e-06 -6.50894e-05 0.000985117)
(-5.9723e-05 -4.19439e-05 0.00104823)
(-6.39459e-05 -4.29669e-05 0.00101084)
(-4.31145e-05 -4.31591e-05 0.00100626)
(-3.98646e-05 -4.38062e-05 0.000982501)
(-3.98535e-06 -4.39202e-05 0.000980287)
(-6.05509e-05 -3.88133e-05 0.00102552)
(-6.48895e-05 -3.97414e-05 0.000987274)
(-4.37618e-05 -3.9911e-05 0.000982492)
(-4.04563e-05 -4.05025e-05 0.000958151)
(-4.0585e-06 -4.05994e-05 0.000955819)
(-6.06839e-05 -3.89093e-06 0.00102353)
(-6.50441e-05 -3.99532e-06 0.000985106)
(-4.38756e-05 -4.0295e-06 0.000980277)
(-4.0553e-05 -4.10266e-06 0.000955819)
(-4.09818e-06 -4.14266e-06 0.000953461)
(-7.77739e-05 -7.78261e-05 0.00283862)
(-8.30211e-05 -8.01578e-05 0.00278541)
(-5.5812e-05 -8.06408e-05 0.00277892)
(-5.15222e-05 -8.21806e-05 0.00274529)
(-4.47273e-06 -8.24701e-05 0.00274219)
(-8.01056e-05 -8.30779e-05 0.0027854)
(-8.57421e-05 -8.57987e-05 0.00273004)
(-5.77684e-05 -8.63879e-05 0.00272307)
(-5.32922e-05 -8.81986e-05 0.00268805)
(-4.84566e-06 -8.85546e-05 0.00268466)
(-8.05883e-05 -5.58669e-05 0.00277891)
(-8.63311e-05 -5.78233e-05 0.00272307)
(-5.8211e-05 -5.82661e-05 0.00271597)
(-5.36881e-05 -5.95914e-05 0.00268066)
(-4.95475e-06 -5.98697e-05 0.00267719)
(-8.21282e-05 -5.15784e-05 0.00274527)
(-8.81422e-05 -5.33488e-05 0.00268804)
(-5.95365e-05 -5.3745e-05 0.00268065)
(-5.48957e-05 -5.49525e-05 0.00264446)
(-5.24644e-06 -5.51963e-05 0.00264081)
(-8.2418e-05 -4.52623e-06 0.00274216)
(-8.84985e-05 -4.89897e-06 0.00268464)
(-5.98147e-05 -5.00834e-06 0.00267718)
(-5.51393e-05 -5.29997e-06 0.00264081)
(-5.34532e-06 -5.39938e-06 0.0026371)
(-0.000113447 -0.000113503 0.00158816)
(-0.00012192 -0.000117031 0.00151809)
(-8.20133e-05 -0.000117765 0.0015089)
(-7.54997e-05 -0.000120031 0.00146449)
(-6.8754e-06 -0.000120466 0.00145997)
(-0.000116975 -0.000121981 0.00151808)
(-0.000126029 -0.00012609 0.00144457)
(-8.4906e-05 -0.000126969 0.00143441)
(-7.81051e-05 -0.000129596 0.00138769)
(-7.33305e-06 -0.000130113 0.00138261)
(-0.000117708 -8.20713e-05 0.00150889)
(-0.000126908 -8.49639e-05 0.00143441)
(-8.5518e-05 -8.55763e-05 0.00142396)
(-7.86418e-05 -8.73903e-05 0.00137659)
(-7.45269e-06 -8.77629e-05 0.00137132)
(-0.000119975 -7.55587e-05 0.00146446)
(-0.000129536 -7.81644e-05 0.00138768)
(-8.73324e-05 -7.87015e-05 0.00137658)
(-8.02917e-05 -8.0351e-05 0.0013276)
(-7.76976e-06 -8.06966e-05 0.00132195)
(-0.000120409 -6.93149e-06 0.00145993)
(-0.000130053 -7.38908e-06 0.00138259)
(-8.77047e-05 -7.50907e-06 0.00137131)
(-8.06369e-05 -7.82571e-06 0.00132195)
(-7.87912e-06 -7.93527e-06 0.00131622)
(-0.000150642 -0.000150711 0.00252879)
(-0.000162319 -0.000156611 0.00242462)
(-0.000109414 -0.000158096 0.00241029)
(-0.000100463 -0.000162017 0.0023446)
(-9.00834e-06 -0.00016288 0.00233746)
(-0.000156542 -0.000162393 0.0024246)
(-0.000169462 -0.000169536 0.00231524)
(-0.000114645 -0.000171383 0.00229941)
(-0.000105093 -0.00017615 0.00223042)
(-9.99132e-06 -0.000177247 0.00222235)
(-0.000158026 -0.000109483 0.00241026)
(-0.000171309 -0.000114714 0.00229941)
(-0.000116027 -0.000116096 0.00228315)
(-0.000106325 -0.000119692 0.00221326)
(-1.02946e-05 -0.000120527 0.00220496)
(-0.000161948 -0.000100537 0.00234457)
(-0.000176077 -0.000105166 0.0022304)
(-0.000119623 -0.000106399 0.00221325)
(-0.000109524 -0.000109596 0.00214143)
(-1.10173e-05 -0.0001103 0.00213249)
(-0.00016281 -9.07083e-06 0.00233741)
(-0.000177173 -1.00544e-05 0.00222232)
(-0.000120456 -1.03587e-05 0.00220494)
(-0.000110226 -1.10812e-05 0.00213249)
(-1.12098e-05 -1.12777e-05 0.00212331)
(-0.000221666 -0.000221741 0.00186698)
(-0.000240486 -0.000230662 0.00173097)
(-0.000162024 -0.000232943 0.00171019)
(-0.000148324 -0.00023865 0.00162404)
(-1.38716e-05 -0.000240041 0.00161328)
(-0.000230586 -0.000240569 0.00173095)
(-0.000251278 -0.00025136 0.00158593)
(-0.000169722 -0.000254163 0.00156206)
(-0.000155166 -0.000260998 0.00146973)
(-1.53208e-05 -0.000262674 0.00145721)
(-0.000232866 -0.0001621 0.00171017)
(-0.00025408 -0.000169797 0.00156205)
(-0.000171658 -0.000171735 0.00153717)
(-0.000156831 -0.000176377 0.0014428)
(-1.56931e-05 -0.000177612 0.00142956)
(-0.000238574 -0.000148405 0.001624)
(-0.000260917 -0.000155246 0.00146971)
(-0.000176302 -0.000156912 0.00144278)
(-0.000161043 -0.000161122 0.00134364)
(-1.6699e-05 -0.000162345 0.00132935)
(-0.000239963 -1.39387e-05 0.00161323)
(-0.000262591 -1.53893e-05 0.00145718)
(-0.000177535 -1.57622e-05 0.00142953)
(-0.000162264 -1.67673e-05 0.00132934)
(-1.70797e-05 -1.71494e-05 0.00131483)
(-0.000292136 -0.000292228 0.00242813)
(-0.000319185 -0.000307454 0.00222517)
(-0.000216346 -0.000312127 0.00219286)
(-0.000197382 -0.000322421 0.00206519)
(-1.96563e-05 -0.0003251 0.00204829)
(-0.000307361 -0.000319286 0.00222515)
(-0.000338449 -0.000338548 0.00200958)
(-0.000230849 -0.0003445 0.00197235)
(-0.000209948 -0.000357493 0.00183678)
(-2.24999e-05 -0.000361071 0.00181665)
(-0.000312033 -0.000216435 0.00219282)
(-0.000344399 -0.000230936 0.00197234)
(-0.000235285 -0.000235375 0.00193367)
(-0.000213947 -0.000245783 0.00179531)
(-2.35352e-05 -0.000248389 0.00177462)
(-0.000322328 -0.00019748 0.00206514)
(-0.000357396 -0.000210044 0.00183676)
(-0.000245696 -0.000214046 0.00179529)
(-0.000222961 -0.000223056 0.0016532)
(-2.54115e-05 -0.00022503 0.00162984)
(-0.000325004 -1.97306e-05 0.00204822)
(-0.000360971 -2.25747e-05 0.00181661)
(-0.000248297 -2.36121e-05 0.00177459)
(-0.000224932 -2.54892e-05 0.00162983)
(-2.58616e-05 -2.59424e-05 0.00160543)
(-0.000432602 -0.000432705 0.00206057)
(-0.000475881 -0.000454746 0.00179876)
(-0.000322002 -0.0004621 0.00175002)
(-0.000292889 -0.000476051 0.00158398)
(-3.04453e-05 -0.000480783 0.00155709)
(-0.000454643 -0.000475999 0.00179873)
(-0.000504189 -0.000504305 0.00151341)
(-0.000342508 -0.000513471 0.0014549)
(-0.000310865 -0.000531001 0.00127238)
(-3.52296e-05 -0.000536469 0.00123987)
(-0.000461994 -0.000322102 0.00174998)
(-0.000513353 -0.000342607 0.00145489)
(-0.000348684 -0.000348786 0.00139313)
(-0.000315876 -0.000359958 0.00120425)
(-3.61808e-05 -0.000364409 0.00116868)
(-0.000475947 -0.000293003 0.00158392)
(-0.000530887 -0.000310978 0.00127235)
(-0.000359858 -0.00031599 0.00120423)
(-0.000326489 -0.000326601 0.00100129)
(-3.99403e-05 -0.000331532 0.000964484)
(-0.000480678 -3.05272e-05 0.00155702)
(-0.000536352 -3.53123e-05 0.00123983)
(-0.000364306 -3.62647e-05 0.00116865)
(-0.000331417 -4.00234e-05 0.000964471)
(-4.14177e-05 -4.15011e-05 0.000927078)
(-0.000564598 -0.000564722 0.00249286)
(-0.000629902 -0.000604266 0.00210074)
(-0.000431129 -0.000618997 0.00202605)
(-0.000390316 -0.000646266 0.00177855)
(-4.61588e-05 -0.000654739 0.00173722)
(-0.000604142 -0.000630044 0.0021007)
(-0.000682473 -0.000682609 0.00167835)
(-0.000471888 -0.000701582 0.0015869)
(-0.00042498 -0.000737426 0.0013205)
(-5.48154e-05 -0.000749685 0.00126772)
(-0.000618869 -0.000431245 0.00202599)
(-0.000701441 -0.000472 0.00158688)
(-0.000485926 -0.000486044 0.00149041)
(-0.000438403 -0.000516873 0.00121546)
(-5.89351e-05 -0.000523774 0.00116218)
(-0.000646138 -0.000390448 0.00177847)
(-0.000737291 -0.000425108 0.00132046)
(-0.00051676 -0.000438539 0.00121543)
(-0.000462711 -0.000462839 0.000931559)
(-6.21938e-05 -0.000466641 0.000864404)
(-0.000654607 -4.62495e-05 0.0017371)
(-0.000749547 -5.49057e-05 0.00126765)
(-0.000523656 -5.90294e-05 0.00116213)
(-0.000466506 -6.22849e-05 0.000864377)
(-6.32717e-05 -6.33679e-05 0.000794181)
(-0.000840288 -0.000840431 0.00226793)
(-0.000942941 -0.000894041 0.00176846)
(-0.000644175 -0.000918713 0.00164676)
(-0.000581713 -0.000952438 0.00132642)
(-7.09328e-05 -0.000968969 0.00125501)
(-0.000893899 -0.000943119 0.00176842)
(-0.00101824 -0.00101842 0.00121033)
(-0.000700334 -0.00104936 0.00105644)
(-0.000630041 -0.00109437 0.000696286)
(-8.73694e-05 -0.00111179 0.000601651)
(-0.000918565 -0.000644316 0.00164669)
(-0.00104919 -0.000700472 0.00105642)
(-0.000720089 -0.000720232 0.00089071)
(-0.000644108 -0.000748878 0.000504162)
(-8.88685e-05 -0.000767707 0.000396218)
(-0.000952292 -0.000581882 0.00132634)
(-0.0010942 -0.000630204 0.000696251)
(-0.000748741 -0.000644274 0.000504141)
(-0.000677519 -0.00067768 8.20301e-05)
(-0.000106752 -0.000699531 -3.34189e-05)
(-0.000968815 -7.10364e-05 0.00125488)
(-0.00111161 -8.74762e-05 0.000601571)
(-0.000767562 -8.89767e-05 0.000396155)
(-0.000699366 -0.000106863 -3.34475e-05)
(-0.000111302 -0.000111417 -0.000161475)
(-0.00108466 -0.00108483 0.00277344)
(-0.0012514 -0.00118494 0.00203034)
(-0.000873156 -0.00123282 0.0018508)
(-0.000782076 -0.00130114 0.00136689)
(-0.000116664 -0.00133343 0.00125499)
(-0.00118478 -0.0012516 0.00203028)
(-0.00139484 -0.00139504 0.00121361)
(-0.000985918 -0.00145804 0.000980394)
(-0.000879785 -0.00156011 0.000443712)
(-0.000148853 -0.00160892 0.000305503)
(-0.00123265 -0.000873312 0.00185069)
(-0.00145784 -0.000986066 0.000980345)
(-0.00103817 -0.00103833 0.000723951)
(-0.000932911 -0.00113111 0.000155268)
(-0.000166376 -0.00115882 -6.89677e-06)
(-0.00130097 -0.00078227 0.00136676)
(-0.00155992 -0.000879971 0.000443652)
(-0.00113096 -0.000933109 0.000155242)
(-0.00100029 -0.00100046 -0.000434364)
(-0.000177471 -0.00102435 -0.000618323)
(-0.00133324 -0.000116773 0.00125476)
(-0.00160872 -0.000148964 0.000305373)
(-0.00115865 -0.000166493 -6.99936e-06)
(-0.00102415 -0.000177584 -0.000618385)
(-0.000191166 -0.000191286 -0.000818448)
(-0.00161342 -0.00161362 0.00266057)
(-0.00186607 -0.0017439 0.00170648)
(-0.00130756 -0.00182419 0.00140029)
(-0.00117751 -0.00191254 0.000760392)
(-0.000181353 -0.00195655 0.000570047)
(-0.0017437 -0.00186637 0.00170644)
(-0.00206864 -0.00206892 0.000653127)
(-0.00147016 -0.00217676 0.000243544)
(-0.00130492 -0.00230657 -0.000456594)
(-0.000224698 -0.00237429 -0.000710847)
(-0.00182398 -0.00130778 0.00140016)
(-0.00217647 -0.00147036 0.000243486)
(-0.0015451 -0.00154532 -0.000221717)
(-0.00137496 -0.00162689 -0.000987237)
(-0.000249925 -0.00169148 -0.0012998)
(-0.00191232 -0.00117779 0.000760278)
(-0.0023063 -0.00130517 -0.000456655)
(-0.0016267 -0.00137523 -0.000987246)
(-0.00145111 -0.00145136 -0.00179918)
(-0.000290066 -0.00151112 -0.00217808)
(-0.0019563 -0.000181498 0.000569789)
(-0.00237398 -0.000224842 -0.000711007)
(-0.00169127 -0.000250081 -0.00129991)
(-0.00151085 -0.000290216 -0.00217818)
(-0.000310543 -0.000310704 -0.00261028)
(-0.00207782 -0.00207803 0.00360748)
(-0.00251233 -0.00228188 0.00220387)
(-0.00181919 -0.00243623 0.00177589)
(-0.00161236 -0.00256791 0.000861056)
(-0.000305243 -0.00266609 0.000566734)
(-0.00228166 -0.00251266 0.00220379)
(-0.00285853 -0.00285883 0.000706615)
(-0.00209557 -0.00308093 9.91091e-05)
(-0.00183423 -0.0033087 -0.00091161)
(-0.000401887 -0.00347977 -0.00131798)
(-0.00243598 -0.00181941 0.00177567)
(-0.00308059 -0.00209578 9.90117e-05)
(-0.00226883 -0.00226906 -0.000611892)
(-0.00201107 -0.00247363 -0.00176494)
(-0.000477599 -0.00262601 -0.00226691)
(-0.00256768 -0.00161269 0.000860863)
(-0.0033084 -0.00183452 -0.000911718)
(-0.00247343 -0.00201138 -0.00176496)
(-0.00219119 -0.00219147 -0.00301184)
(-0.000555363 -0.0023349 -0.00361352)
(-0.0026658 -0.000305386 0.000566325)
(-0.00347942 -0.000402021 -0.00131825)
(-0.00262577 -0.000477748 -0.00226711)
(-0.00233459 -0.000555508 -0.00361365)
(-0.000622233 -0.000622394 -0.00430104)
(-0.00307444 -0.00307472 0.00375762)
(-0.00369868 -0.00330445 0.00190294)
(-0.0026502 -0.00357048 0.00112778)
(-0.00238664 -0.00375908 -0.000157447)
(-0.000473068 -0.00391909 -0.000682118)
(-0.00330416 -0.00369919 0.00190285)
(-0.00417436 -0.00417481 -9.9553e-05)
(-0.0030882 -0.00456571 -0.0011332)
(-0.00272203 -0.00493388 -0.00253142)
(-0.000629863 -0.00520933 -0.00330024)
(-0.00357013 -0.00265053 0.00112756)
(-0.0045652 -0.0030885 -0.00113333)
(-0.00340888 -0.00340923 -0.00246106)
(-0.00303004 -0.00372698 -0.00412778)
(-0.000750267 -0.00398688 -0.00517311)
(-0.00375877 -0.00238711 -0.000157667)
(-0.00493344 -0.00272245 -0.00253154)
(-0.00372668 -0.00303051 -0.00412779)
(-0.00329972 -0.00330013 -0.00589976)
(-0.000891566 -0.00354532 -0.00720482)
(-0.00391869 -0.00047327 -0.000682546)
(-0.00520882 -0.000630065 -0.00330055)
(-0.00398653 -0.000750493 -0.00517333)
(-0.00354486 -0.000891773 -0.007205)
(-0.00099716 -0.000997392 -0.00883757)
(-0.00400674 -0.00400705 0.00546892)
(-0.00514349 -0.00436825 0.00305858)
(-0.00387938 -0.0047901 0.00203061)
(-0.00342241 -0.00504258 0.000368394)
(-0.000827916 -0.00539204 -0.000349691)
(-0.00436795 -0.00514405 0.00305843)
(-0.00589619 -0.0058967 0.000292358)
(-0.00452721 -0.00667167 -0.00118998)
(-0.00400134 -0.00728103 -0.00315446)
(-0.00116875 -0.00797293 -0.00429004)
(-0.00478974 -0.00387974 0.00203017)
(-0.00667111 -0.00452753 -0.00119019)
(-0.0052631 -0.00526346 -0.00314582)
(-0.00472326 -0.00584178 -0.00553597)
(-0.00152007 -0.00653047 -0.00709656)
(-0.00504224 -0.00342294 0.000368001)
(-0.00728053 -0.00400182 -0.00315466)
(-0.00584146 -0.00472379 -0.00553601)
(-0.00526837 -0.00526885 -0.00818654)
(-0.00185791 -0.00599963 -0.0102071)
(-0.00539162 -0.000828094 -0.000350575)
(-0.00797237 -0.00116895 -0.00429057)
(-0.0065301 -0.0015203 -0.00709695)
(-0.0059991 -0.00185812 -0.0102073)
(-0.00225123 -0.00225146 -0.0126528)
(-0.00559091 -0.00559135 0.00620243)
(-0.00713906 -0.0061926 0.00306033)
(-0.00533993 -0.00693072 0.00127389)
(-0.00476696 -0.00743467 -0.0010844)
(-0.00118633 -0.00802767 -0.00250888)
(-0.00619216 -0.00714001 0.00306017)
(-0.00842476 -0.00842557 -0.000534484)
(-0.00653446 -0.00974462 -0.00321338)
(-0.00582197 -0.0108409 -0.00590068)
(-0.00176471 -0.0119593 -0.00822966)
(-0.00693013 -0.00534051 0.00127336)
(-0.00974367 -0.00653496 -0.00321364)
(-0.00775422 -0.0077548 -0.00701461)
(-0.00698082 -0.00875873 -0.0106927)
(-0.00230893 -0.00990378 -0.0144007)
(-0.00743416 -0.00476787 -0.00108488)
(-0.0108401 -0.00582271 -0.00590095)
(-0.00875822 -0.00698168 -0.0106928)
(-0.00797081 -0.00797152 -0.0146998)
(-0.00291497 -0.00910186 -0.0196217)
(-0.00802691 -0.00118665 -0.00250994)
(-0.0119583 -0.00176499 -0.00823034)
(-0.00990316 -0.00230925 -0.0144012)
(-0.009101 -0.00291523 -0.0196221)
(-0.0034449 -0.00344521 -0.0268467)
(-0.00728027 -0.00728075 0.00979494)
(-0.0100744 -0.00812057 0.00588662)
(-0.00802345 -0.00946421 0.00369684)
(-0.00720543 -0.0100663 0.000751219)
(-0.00224813 -0.0113481 -0.00101867)
(-0.00812009 -0.0100755 0.00588631)
(-0.0121725 -0.0121734 0.0013021)
(-0.00989266 -0.0149638 -0.00222912)
(-0.00901745 -0.0168932 -0.00580689)
(-0.00349376 -0.0198693 -0.0091458)
(-0.00946358 -0.00802414 0.0036959)
(-0.0149627 -0.00989326 -0.00222948)
(-0.0127418 -0.0127425 -0.00734002)
(-0.0121095 -0.014641 -0.0125234)
(-0.00522124 -0.0179239 -0.0177117)
(-0.0100657 -0.00720649 0.000750501)
(-0.0168923 -0.00901835 -0.00580723)
(-0.0146404 -0.0121106 -0.0125235)
(-0.0141976 -0.0141985 -0.0184023)
(-0.00677658 -0.0184469 -0.0260912)
(-0.0113473 -0.00224851 -0.00102049)
(-0.0198682 -0.00349411 -0.00914671)
(-0.0179233 -0.00522168 -0.0177125)
(-0.0184458 -0.00677697 -0.0260916)
(-0.00946687 -0.00946731 -0.0360376)
(-0.00968516 -0.00968592 0.0117503)
(-0.0132411 -0.0109974 0.0070004)
(-0.0104743 -0.0131344 0.00335284)
(-0.00948237 -0.0143026 -0.00058231)
(-0.00294968 -0.0165214 -0.0042432)
(-0.0109966 -0.013243 0.00699991)
(-0.0165433 -0.0165448 0.00149783)
(-0.0136425 -0.0207861 -0.00476118)
(-0.0127377 -0.0241197 -0.00943963)
(-0.00510887 -0.0286569 -0.0161517)
(-0.0131332 -0.0104753 0.00335158)
(-0.0207842 -0.0136434 -0.00476159)
(-0.0180478 -0.0180488 -0.0147664)
(-0.0173512 -0.0213552 -0.0229135)
(-0.00750303 -0.026853 -0.0358598)
(-0.0143017 -0.00948417 -0.000583596)
(-0.0241183 -0.012739 -0.00944017)
(-0.0213544 -0.0173529 -0.0229139)
(-0.0215358 -0.021537 -0.0321578)
(-0.0106323 -0.0274229 -0.051071)
(-0.0165197 -0.00295022 -0.00424583)
(-0.0286549 -0.00510923 -0.0161529)
(-0.0268519 -0.0075034 -0.0358614)
(-0.0274212 -0.0106324 -0.0510716)
(-0.013442 -0.0134422 -0.0855538)
(-0.012246 -0.012247 0.0190395)
(-0.0184747 -0.013889 0.0137859)
(-0.0156044 -0.0179377 0.00996587)
(-0.0148012 -0.0193359 0.00529142)
(-0.0059032 -0.0237723 0.00120934)
(-0.013888 -0.018477 0.0137852)
(-0.0239366 -0.0239384 0.00769236)
(-0.0208302 -0.0330884 0.000372707)
(-0.0204063 -0.0392282 -0.00525989)
(-0.010206 -0.0514922 -0.0150241)
(-0.0179362 -0.0156059 0.00996397)
(-0.0330861 -0.0208313 0.000372275)
(-0.0308966 -0.030898 -0.0119715)
(-0.0332003 -0.0373675 -0.0233093)
(-0.0181653 -0.0528649 -0.0415408)
(-0.0193345 -0.0148036 0.00528985)
(-0.0392263 -0.0204079 -0.00526046)
(-0.0373664 -0.033203 -0.0233097)
(-0.0423432 -0.0423451 -0.0356578)
(-0.0257298 -0.0681428 -0.0683255)
(-0.02377 -0.00590404 0.0012055)
(-0.0514901 -0.0102066 -0.0150253)
(-0.0528637 -0.0181661 -0.0415426)
(-0.0681402 -0.0257304 -0.0683258)
(-0.0440202 -0.0440206 -0.116463)
(-0.0152243 -0.0152257 0.0236197)
(-0.0223202 -0.0174308 0.0187932)
(-0.0189667 -0.0232285 0.0133417)
(-0.0182374 -0.0254408 0.00800929)
(-0.00702831 -0.0335435 0.00103312)
(-0.0174293 -0.022324 0.0187919)
(-0.0299581 -0.0299607 0.0129843)
(-0.0265992 -0.0427284 0.00244785)
(-0.0281282 -0.0527186 -0.00425161)
(-0.0149051 -0.0713921 -0.0198215)
(-0.0232258 -0.0189686 0.0133392)
(-0.0427246 -0.0266007 0.00244792)
(-0.0417367 -0.0417386 -0.0180031)
(-0.0468898 -0.0517765 -0.0354732)
(-0.0258017 -0.0801862 -0.0743362)
(-0.0254388 -0.0182411 0.00800628)
(-0.052716 -0.0281302 -0.00425228)
(-0.0517751 -0.0468933 -0.035475)
(-0.0664748 -0.0664767 -0.0589923)
(-0.0435866 -0.10206 -0.132172)
(-0.0335391 -0.0070292 0.00102713)
(-0.071388 -0.0149054 -0.0198215)
(-0.0801842 -0.025802 -0.0743427)
(-0.102057 -0.0435857 -0.132171)
(-0.0625698 -0.0625684 -0.309649)
(-0.0173595 -0.0173618 0.036511)
(-0.0287506 -0.0200546 0.0324539)
(-0.0263844 -0.0294072 0.0288046)
(-0.0271042 -0.0323046 0.0236343)
(-0.0128919 -0.0456974 0.0164648)
(-0.0200523 -0.0287554 0.0324526)
(-0.0402788 -0.0402818 0.0286874)
(-0.0380785 -0.0644304 0.0188214)
(-0.0426503 -0.0826981 0.0144186)
(-0.0258493 -0.126819 -0.00750167)
(-0.0294031 -0.0263876 0.0288012)
(-0.0644256 -0.0380803 0.0188215)
(-0.0688433 -0.0688464 -0.00273913)
(-0.0894479 -0.0921494 -0.0237036)
(-0.0572961 -0.165374 -0.089124)
(-0.0323009 -0.0271101 0.0236312)
(-0.082695 -0.042652 0.0144178)
(-0.0921476 -0.089457 -0.0237045)
(-0.138895 -0.138898 -0.038876)
(-0.100438 -0.305107 -0.185725)
(-0.045689 -0.0128937 0.0164576)
(-0.126817 -0.02585 -0.00750114)
(-0.165372 -0.0572978 -0.0891267)
(-0.305097 -0.100438 -0.185724)
(-0.228443 -0.228439 -0.473908)
(-0.0195881 -0.019591 0.0455653)
(-0.0300324 -0.0215716 0.0455171)
(-0.0277922 -0.0339072 0.0447768)
(-0.0305664 -0.0355161 0.0422828)
(-0.0142206 -0.0590325 0.0396346)
(-0.0215688 -0.0300395 0.0455147)
(-0.0435951 -0.043599 0.0460175)
(-0.0408912 -0.0742692 0.0410496)
(-0.0543839 -0.100028 0.0401421)
(-0.037038 -0.176806 0.0273191)
(-0.033901 -0.0277958 0.0447726)
(-0.0742621 -0.0408933 0.041052)
(-0.0843083 -0.0843109 0.0295504)
(-0.132968 -0.104767 0.00739391)
(-0.0925493 -0.253964 -0.033534)
(-0.0355118 -0.030574 0.0422772)
(-0.100023 -0.0543855 0.0401424)
(-0.104764 -0.132974 0.00738937)
(-0.244223 -0.244229 -0.0490184)
(-0.187029 -0.530241 -0.232162)
(-0.0590201 -0.0142227 0.0396209)
(-0.176798 -0.0370375 0.0273336)
(-0.253957 -0.0925488 -0.0335731)
(-0.530227 -0.187017 -0.232164)
(-0.432373 -0.432379 -0.818696)
(-0.0175816 -0.0175863 0.0615766)
(-0.0295404 -0.0197974 0.0657199)
(-0.0296281 -0.0336597 0.0728614)
(-0.0322261 -0.0351374 0.0773685)
(-0.0156165 -0.059376 0.0870147)
(-0.0197927 -0.0295495 0.0657182)
(-0.0447149 -0.0447179 0.0729824)
(-0.0439311 -0.0795971 0.0834795)
(-0.0560802 -0.117173 0.0907392)
(-0.0390139 -0.195552 0.111309)
(-0.0336488 -0.0296345 0.0728576)
(-0.079588 -0.0439326 0.083481)
(-0.10226 -0.102266 0.10619)
(-0.149506 -0.132556 0.124439)
(-0.100103 -0.29714 0.178823)
(-0.0351277 -0.0322415 0.0773643)
(-0.117169 -0.0560698 0.0907381)
(-0.132553 -0.149553 0.124435)
(-0.280793 -0.280825 0.105552)
(-0.337321 -0.717967 0.0459837)
(-0.0593391 -0.0156205 0.0870046)
(-0.195575 -0.0390113 0.111317)
(-0.297023 -0.100112 0.178806)
(-0.718188 -0.337206 0.0458773)
(-1.31481 -1.31503 -0.439288)
(-0.0153739 -0.0153786 0.0679893)
(-0.0187579 -0.0142734 0.0777278)
(-0.0161463 -0.0234765 0.0908806)
(-0.0164339 -0.0224268 0.103287)
(-0.00466978 -0.0355787 0.122563)
(-0.0142688 -0.0187689 0.0777264)
(-0.025822 -0.0258262 0.0913767)
(-0.023194 -0.0408939 0.114513)
(-0.0265588 -0.0520427 0.130489)
(-0.0168829 -0.0759776 0.164542)
(-0.0234649 -0.0161524 0.0908789)
(-0.040883 -0.0231973 0.114513)
(-0.0424904 -0.0424956 0.165856)
(-0.0540229 -0.0565619 0.223113)
(-0.0385011 -0.0982 0.34385)
(-0.0224192 -0.0164478 0.103284)
(-0.0520371 -0.026554 0.130487)
(-0.056558 -0.0540408 0.223107)
(-0.149267 -0.149273 0.329709)
(-0.168844 -0.300662 0.546305)
(-0.0355479 -0.00467532 0.122564)
(-0.0759738 -0.0168827 0.164532)
(-0.0981426 -0.0385194 0.34387)
(-0.300553 -0.168745 0.546153)
(-0.493574 -0.494003 0.663389)
(-0.00752275 -0.00752897 0.0727517)
(-0.00669365 -0.00576546 0.0829922)
(-0.00411358 -0.00945475 0.0933538)
(-0.000612528 -0.0073894 0.102773)
(0.00369332 -0.0163438 0.114358)
(-0.00575927 -0.00670439 0.0829916)
(-0.0081432 -0.00814747 0.0951509)
(-0.00517215 -0.00514311 0.110488)
(-0.00692538 -0.000599718 0.119279)
(-0.00522209 0.0241238 0.12977)
(-0.00944184 -0.00412151 0.0933538)
(-0.00513235 -0.00517594 0.110488)
(0.00337124 0.00336047 0.141086)
(0.0282363 0.00485693 0.162286)
(0.0232213 -0.00464648 0.204444)
(-0.00737894 -0.00062523 0.102771)
(-0.000598098 -0.00692424 0.119278)
(0.00485995 0.0282149 0.162284)
(0.0805569 0.0805694 0.158089)
(0.13077 0.379535 -0.254118)
(-0.0163166 0.0036887 0.114358)
(0.0241245 -0.00522207 0.129765)
(-0.00460878 0.0232112 0.204441)
(0.379521 0.130766 -0.254112)
(0.995009 0.994961 -2.01624)
(-0.00449207 -0.00449737 0.0631146)
(0.00188059 -0.00123709 0.0710389)
(0.0037376 -0.00485842 0.0770199)
(0.00474064 -0.00421235 0.0816781)
(0.00724683 -0.0171898 0.0844865)
(-0.00123182 0.00186961 0.0710392)