/*--------------------------------*- C++ -*----------------------------------*\
| =========                 |                                                 |
| \\      /  F ield         | OpenFOAM: The Open Source CFD Toolbox           |
|  \\    /   O peration     | Version:  5.x                                   |
|   \\  /    A nd           | Web:      www.OpenFOAM.org                      |
|    \\/     M anipulation  |                                                 |
\*---------------------------------------------------------------------------*/
FoamFile
{
    version     2.0;
    format      ascii;
    class       volScalarField;
    location    "0.02";
    object      Ksl;
}
// * * * * * * * * * * * * * * * * * * * * * * * * * * * * * * * * * * * * * //

dimensions      [1 -3 -1 0 0 0 0];

internalField   nonuniform List<scalar> 
160
(
0
0
0
0
0
0
0
0
0
0
0
0
0
0
0
0
0
0
0
0
0
0.000309821
0.000506094
8.48456e-05
0.000784053
0.00605294
0.0108549
0.00119695
0.0361081
0.224259
0.41252
0.0542047
0.298926
0.823769
1.26897
0.418494
0.911407
0.988706
1.46033
1.3471
0
0
0
0
0
0
0
0
0
0
0
0
0
0
0
0
0
7.3668e-05
0.000119894
0
0.000309821
0.00152539
0.00256146
0.000515612
0.00605294
0.0800616
0.119997
0.0119013
0.224259
4.17687
5.36547
0.437062
0.823769
0.997251
1.48517
1.30422
0.988706
0.985992
1.474
1.48774
0
0
0
0
0
0
0
0
0
0
0
0
0
0
0
0
0
0.000119894
0.000218969
0
0.000506094
0.00256146
0.00454451
0.000937595
0.0108549
0.119997
0.242431
0.0200159
0.41252
5.36547
14.1169
0.709852
1.26897
1.48517
3.06612
2.52838
1.46033
1.474
3.11663
3.08077
0
0
0
0
0
0
0
0
0
0
0
0
0
0
0
0
0
0
0
0
8.48456e-05
0.000515612
0.000937595
0.000199202
0.00119695
0.0119013
0.0200159
0.00261453
0.0542047
0.437062
0.709852
0.119452
0.418494
1.30422
2.52838
0.885934
1.3471
1.48774
3.08077
2.7988
)
;

boundaryField
{
    inlet
    {
        type            zeroGradient;
    }
    outlet
    {
        type            zeroGradient;
    }
    walls
    {
        type            zeroGradient;
    }
    procBoundary0to1
    {
        type            processor;
        value           nonuniform List<scalar> 
16
(
0.298934
0.823911
1.26902
0.41842
0.823911
0.997242
1.48517
1.30417
1.26902
1.48517
3.0661
2.52848
0.41842
1.30417
2.52848
0.885921
)
;
    }
}


// ************************************************************************* //
