/*--------------------------------*- C++ -*----------------------------------*\
| =========                 |                                                 |
| \\      /  F ield         | OpenFOAM: The Open Source CFD Toolbox           |
|  \\    /   O peration     | Version:  5.x                                   |
|   \\  /    A nd           | Web:      www.OpenFOAM.org                      |
|    \\/     M anipulation  |                                                 |
\*---------------------------------------------------------------------------*/
FoamFile
{
    version     2.0;
    format      ascii;
    class       surfaceScalarField;
    location    "0.02";
    object      phi;
}
// * * * * * * * * * * * * * * * * * * * * * * * * * * * * * * * * * * * * * //

dimensions      [0 3 -1 0 0 0 0];

internalField   nonuniform List<scalar> 
384
(
-3.1379e-14
1.3476e-13
-3.1379e-14
-9.67724e-15
2.25621e-15
-3.85242e-14
1.3366e-14
-1.78579e-14
-3.66775e-14
6.26074e-14
-3.00152e-14
-1.15873e-13
2.26512e-13
-1.15873e-13
-3.34323e-14
-2.05301e-14
-1.58626e-13
5.71543e-14
-4.97825e-14
-1.50936e-13
1.21273e-13
-1.16186e-13
-2.77607e-13
4.36238e-13
-2.77607e-13
-7.03261e-14
-8.36814e-14
-4.0872e-13
1.59182e-13
-1.3483e-13
-3.869e-13
2.67323e-13
-2.78877e-13
-5.5405e-13
8.30844e-13
-5.5405e-13
-1.40708e-13
-1.48802e-13
-1.04444e-12
3.48997e-13
-2.7171e-13
-9.77512e-13
5.63537e-13
-5.98321e-13
-1.38454e-12
1.80128e-12
-1.38454e-12
-2.51516e-13
-5.0332e-13
-2.56608e-12
1.02875e-12
-7.31133e-13
-2.3763e-12
1.37072e-12
-1.43974e-12
-1.87486e-12
2.87667e-12
-1.87486e-12
-5.15045e-13
-5.38718e-14
-6.34442e-12
1.41198e-12
-6.88938e-13
-5.82507e-12
2.34416e-12
-2.1502e-12
-6.57373e-12
7.06506e-12
-6.57373e-12
-1.0714e-12
-3.39133e-13
-1.93094e-11
5.92288e-12
-1.5449e-12
-1.7595e-11
6.36674e-12
-7.1528e-12
-3.92653e-12
8.57761e-12
-3.92653e-12
-1.7948e-12
2.68879e-12
-2.72792e-11
3.64117e-12
1.58142e-12
-2.60747e-11
8.36956e-12
-5.33709e-12
-2.24825e-11
2.00347e-11
-2.24825e-11
-4.25204e-12
2.36384e-11
-1.79547e-10
2.39438e-11
3.49091e-11
-1.68353e-10
2.28298e-11
-2.68688e-11
3.99309e-15
3.9931e-15
-1.21529e-15
1.66729e-14
-4.39265e-15
1.12411e-14
4.57556e-15
-3.85242e-14
2.25621e-15
-9.67724e-15
-8.35134e-15
-1.89902e-13
-8.35134e-15
2.01197e-14
-1.9667e-13
-8.45218e-15
-7.21046e-14
-6.67849e-15
-1.58626e-13
-2.05301e-14
-3.34323e-14
-2.85177e-14
-4.50114e-13
-2.85177e-14
9.21977e-14
-4.38025e-13
-3.02985e-14
-1.3974e-13
-2.18562e-14
-4.0872e-13
-8.36814e-14
-7.03261e-14
-5.20345e-14
-1.16349e-12
-5.20345e-14
2.70021e-13
-1.08113e-12
-6.58579e-14
-2.90485e-13
-4.31527e-14
-1.04444e-12
-1.48802e-13
-1.40708e-13
-9.25632e-14
-3.06723e-12
-9.25632e-14
7.38675e-13
-2.74271e-12
-1.47161e-13
-5.72321e-13
-6.84935e-14
-2.56608e-12
-5.0332e-13
-2.51516e-13
-8.46302e-14
-8.03012e-12
-8.46302e-14
2.00938e-12
-6.87874e-12
-3.34291e-13
-1.22115e-12
-1.10902e-13
-6.34442e-12
-5.38718e-14
-5.15045e-13
-4.27311e-14
-2.06335e-11
-4.27311e-14
5.18207e-12
-1.71381e-11
-7.90497e-13
-1.50387e-12
-1.50382e-13
-1.93094e-11
-3.39133e-13
-1.0714e-12
9.16657e-13
-6.10857e-11
9.16657e-13
1.67406e-11
-4.79282e-11
-2.62897e-12
-2.30199e-12
-1.80898e-13
-2.72792e-11
2.68879e-12
-1.7948e-12
4.40672e-13
-1.16525e-10
4.40672e-13
2.49019e-11
-9.24802e-11
-5.984e-12
1.14783e-12
-4.79283e-13
-1.79547e-10
2.36384e-11
-4.25204e-12
1.79361e-11
-5.11492e-10
1.79361e-11
1.68745e-10
-3.75097e-10
-3.65447e-11
3.8642e-11
-2.60389e-13
1.66729e-14
-1.21529e-15
-3.45574e-15
-3.45574e-15
-1.15921e-14
3.29224e-15
6.88108e-16
-3.66775e-14
-1.78579e-14
1.3366e-14
-8.45218e-15
-1.9667e-13
2.01197e-14
2.10958e-14
-2.14946e-13
2.10958e-14
-8.16754e-14
1.6524e-14
-1.50936e-13
-4.97825e-14
5.71543e-14
-3.02985e-14
-4.38025e-13
9.21977e-14
9.69727e-14
-4.69492e-13
9.69727e-14
-1.45733e-13
6.94042e-14
-3.869e-13
-1.3483e-13
1.59182e-13
-6.58579e-14
-1.08113e-12
2.70021e-13
2.81579e-13
-1.16437e-12
2.81579e-13
-2.86749e-13
1.81179e-13
-9.77512e-13
-2.7171e-13
3.48997e-13
-1.47161e-13
-2.74271e-12
7.38675e-13
7.77329e-13
-3.01334e-12
7.77329e-13
-5.27673e-13
4.12506e-13
-2.3763e-12
-7.31133e-13
1.02875e-12
-3.34291e-13
-6.87874e-12
2.00938e-12
2.11669e-12
-7.91531e-12
2.11669e-12
-1.11112e-12
1.11421e-12
-5.82507e-12
-6.88938e-13
1.41198e-12
-7.90497e-13
-1.71381e-11
5.18207e-12
5.58336e-12
-2.0663e-11
5.58336e-12
-1.24856e-12
1.60263e-12
-1.7595e-11
-1.5449e-12
5.92288e-12
-2.62897e-12
-4.79282e-11
1.67406e-11
1.81561e-11
-6.22331e-11
1.81561e-11
-2.02689e-12
6.16855e-12
-2.60747e-11
1.58142e-12
3.64117e-12
-5.984e-12
-9.24802e-11
2.49019e-11
2.86349e-11
-1.31471e-10
2.86349e-11
1.00153e-12
4.25562e-12
-1.68353e-10
3.49091e-11
2.39438e-11
-3.65447e-11
-3.75097e-10
1.68745e-10
1.90479e-10
-5.85519e-10
1.90479e-10
3.12139e-11
2.54635e-11
1.12411e-14
-4.39265e-15
3.29223e-15
-1.15921e-14
-1.48969e-14
-1.48969e-14
-3.65448e-15
-3.00152e-14
6.26074e-14
-6.67849e-15
-7.21046e-14
1.6524e-14
-8.16754e-14
1.14761e-14
-1.16186e-13
1.21273e-13
-2.18562e-14
-1.3974e-13
6.94042e-14
-1.45733e-13
4.67128e-14
-2.78877e-13
2.67323e-13
-4.31527e-14
-2.90485e-13
1.81179e-13
-2.86749e-13
1.45766e-13
-5.98321e-13
5.63537e-13
-6.84935e-14
-5.72321e-13
4.12506e-13
-5.27673e-13
3.66743e-13
-1.43974e-12
1.37072e-12
-1.10902e-13
-1.22115e-12
1.11421e-12
-1.11112e-12
1.04701e-12
-2.1502e-12
2.34416e-12
-1.50382e-13
-1.50387e-12
1.60263e-12
-1.24856e-12
1.91466e-12
-7.1528e-12
6.36674e-12
-1.80898e-13
-2.30199e-12
6.16855e-12
-2.02689e-12
5.80703e-12
-5.33709e-12
8.36956e-12
-4.79283e-13
1.14783e-12
4.25562e-12
1.00153e-12
7.9678e-12
-2.68688e-11
2.28298e-11
-2.60389e-13
3.8642e-11
2.54635e-11
3.12139e-11
2.4972e-11
4.57556e-15
6.88107e-16
-3.65448e-15
)
;

boundaryField
{
    inlet
    {
        type            calculated;
        value           nonuniform 0();
    }
    outlet
    {
        type            calculated;
        value           nonuniform List<scalar> 
16
(
-1.0905e-13
-9.0815e-15
9.35156e-15
-4.768e-14
-9.0815e-15
1.29565e-13
1.3998e-13
5.40832e-14
9.35156e-15
1.3998e-13
1.55854e-13
6.39755e-14
-4.768e-14
5.40832e-14
6.39755e-14
-3.57833e-15
)
;
    }
    walls
    {
        type            calculated;
        value           nonuniform List<scalar> 
160
(
1.85255e-14
6.99986e-14
1.72745e-13
3.5675e-13
8.99328e-13
1.33717e-12
4.47954e-12
3.17025e-12
1.67539e-11
-2.03898e-15
2.36535e-14
9.89776e-14
2.64598e-13
6.96219e-13
1.78757e-12
4.53517e-12
1.40924e-11
2.21195e-11
1.40367e-10
-4.34654e-15
2.21461e-14
9.22784e-14
2.42437e-13
6.24686e-13
1.55546e-12
3.85586e-12
1.14567e-11
1.75124e-11
1.0683e-10
-1.41703e-15
1.78374e-14
7.05263e-14
1.74168e-13
3.9114e-13
9.42192e-13
1.48321e-12
4.96017e-12
3.92994e-12
1.92129e-11
-2.12008e-15
1.06202e-14
4.41469e-14
1.17839e-13
2.59962e-13
7.19122e-13
1.10552e-12
4.09294e-12
3.0455e-12
1.71395e-11
-1.94685e-15
1.48071e-14
6.55011e-14
1.85038e-13
4.90686e-13
1.32937e-12
3.46497e-12
1.05669e-11
1.65943e-11
1.04643e-10
-1.07616e-15
1.55964e-14
6.97706e-14
1.98265e-13
5.37257e-13
1.47504e-12
3.9678e-12
1.25849e-11
2.08716e-11
1.34543e-10
-3.2823e-15
1.25773e-14
5.17858e-14
1.31654e-13
3.0202e-13
7.7408e-13
1.16881e-12
4.22237e-12
3.17523e-12
1.69614e-11
-1.78449e-15
1.85255e-14
6.99986e-14
1.72745e-13
3.5675e-13
8.99328e-13
1.33717e-12
4.47954e-12
3.17025e-12
1.67539e-11
-2.03898e-15
2.36535e-14
9.89776e-14
2.64598e-13
6.96219e-13
1.78757e-12
4.53517e-12
1.40924e-11
2.21195e-11
1.40367e-10
-4.34654e-15
2.21461e-14
9.22784e-14
2.42437e-13
6.24686e-13
1.55546e-12
3.85586e-12
1.14567e-11
1.75124e-11
1.0683e-10
-1.41703e-15
1.78374e-14
7.05263e-14
1.74168e-13
3.9114e-13
9.42192e-13
1.48321e-12
4.96017e-12
3.92994e-12
1.92129e-11
-2.12008e-15
1.06202e-14
4.41469e-14
1.17839e-13
2.59962e-13
7.19122e-13
1.10552e-12
4.09294e-12
3.0455e-12
1.71395e-11
-1.94686e-15
1.48071e-14
6.55011e-14
1.85038e-13
4.90686e-13
1.32937e-12
3.46497e-12
1.05669e-11
1.65943e-11
1.04643e-10
-1.07615e-15
1.55964e-14
6.97706e-14
1.98265e-13
5.37257e-13
1.47504e-12
3.9678e-12
1.25849e-11
2.08716e-11
1.34543e-10
-3.2823e-15
1.25773e-14
5.17858e-14
1.31654e-13
3.0202e-13
7.7408e-13
1.16881e-12
4.22237e-12
3.17523e-12
1.69614e-11
-1.78449e-15
)
;
    }
    procBoundary0to1
    {
        type            processor;
        value           nonuniform List<scalar> 
16
(
2.00309e-11
2.36313e-11
3.49024e-11
2.28249e-11
2.36313e-11
-5.11451e-10
-3.75081e-10
3.86354e-11
3.49024e-11
-3.75081e-10
-5.85483e-10
3.12066e-11
2.28249e-11
3.86354e-11
3.12066e-11
2.49682e-11
)
;
    }
}


// ************************************************************************* //
