/*--------------------------------*- C++ -*----------------------------------*\
| =========                 |                                                 |
| \\      /  F ield         | OpenFOAM: The Open Source CFD Toolbox           |
|  \\    /   O peration     | Version:  5.x                                   |
|   \\  /    A nd           | Web:      www.OpenFOAM.org                      |
|    \\/     M anipulation  |                                                 |
\*---------------------------------------------------------------------------*/
FoamFile
{
    version     2.0;
    format      ascii;
    class       volVectorField;
    location    "0.02";
    object      U;
}
// * * * * * * * * * * * * * * * * * * * * * * * * * * * * * * * * * * * * * //

dimensions      [0 1 -1 0 0 0 0];

internalField   nonuniform List<vector> 
160
(
(-3.46516e-09 1.78907e-08 -3.46516e-09)
(-4.24444e-09 1.59108e-09 -4.41223e-09)
(1.09509e-09 -1.52226e-09 -4.15452e-09)
(1.7892e-09 7.7507e-09 -3.38235e-09)
(-1.30051e-08 2.68469e-08 -1.30051e-08)
(-1.55966e-08 -1.37217e-09 -1.83797e-08)
(5.19911e-09 -5.2324e-09 -1.72227e-08)
(7.48058e-09 1.3276e-08 -1.32936e-08)
(-3.17301e-08 4.92545e-08 -3.17301e-08)
(-3.67285e-08 -1.93488e-09 -4.85637e-08)
(1.59438e-08 -8.95696e-09 -4.47549e-08)
(2.02072e-08 2.82066e-08 -3.2467e-08)
(-6.42884e-08 9.16708e-08 -6.42884e-08)
(-7.47041e-08 -3.90608e-08 -1.2638e-07)
(3.58195e-08 -4.94188e-08 -1.13863e-07)
(4.44439e-08 5.68977e-08 -7.13826e-08)
(-1.62577e-07 2.01441e-07 -1.62577e-07)
(-1.79424e-07 3.77996e-08 -3.19685e-07)
(1.12884e-07 9.38089e-09 -2.7906e-07)
(1.26259e-07 1.50201e-07 -1.71715e-07)
(-2.28197e-07 3.02198e-07 -2.28197e-07)
(-2.70586e-07 -3.21148e-07 -8.03208e-07)
(1.51113e-07 -3.89183e-07 -6.83817e-07)
(1.84613e-07 2.11803e-07 -2.66313e-07)
(-7.8522e-07 8.18422e-07 -7.8522e-07)
(-8.7602e-07 5.40812e-07 -2.48787e-06)
(6.49657e-07 4.04313e-07 -2.03146e-06)
(7.25173e-07 7.23906e-07 -8.80131e-07)
(-5.14382e-07 9.90831e-07 -5.14382e-07)
(-7.03034e-07 -1.0487e-06 -3.7449e-06)
(3.51384e-07 -1.38888e-06 -3.03375e-06)
(5.10301e-07 8.94755e-07 -6.79844e-07)
(-2.81269e-06 2.19336e-06 -2.81269e-06)
(-3.26703e-06 2.57525e-06 -2.42219e-05)
(2.60351e-06 2.81662e-06 -1.87961e-05)
(2.9951e-06 2.37128e-06 -3.37657e-06)
(4.32999e-10 3.50466e-06 4.32999e-10)
(3.15311e-10 3.06992e-06 9.59831e-10)
(-5.37723e-10 5.67448e-06 3.65131e-10)
(-4.09386e-10 4.04921e-06 4.50569e-10)
(-4.41223e-09 1.59108e-09 -4.24444e-09)
(-4.92381e-09 -2.12575e-08 -4.92381e-09)
(2.04748e-09 -2.30524e-08 -4.79436e-09)
(2.54119e-09 -8.95933e-09 -3.87559e-09)
(-1.83797e-08 -1.37217e-09 -1.55966e-08)
(-1.98022e-08 -4.59756e-08 -1.98022e-08)
(1.00491e-08 -4.63803e-08 -1.94482e-08)
(1.13436e-08 -1.60413e-08 -1.47136e-08)
(-4.85637e-08 -1.93488e-09 -3.67285e-08)
(-4.96555e-08 -1.11287e-07 -4.96555e-08)
(3.15041e-08 -1.06991e-07 -4.94362e-08)
(3.23186e-08 -3.02743e-08 -3.47362e-08)
(-1.2638e-07 -3.90608e-08 -7.47041e-08)
(-1.24331e-07 -3.13196e-07 -1.24331e-07)
(9.00859e-08 -2.86482e-07 -1.25164e-07)
(8.64633e-08 -8.28907e-08 -7.38704e-08)
(-3.19685e-07 3.77996e-08 -1.79424e-07)
(-2.95086e-07 -6.48895e-07 -2.95086e-07)
(2.59322e-07 -5.6927e-07 -3.0994e-07)
(2.33106e-07 -4.58697e-08 -1.74381e-07)
(-8.03208e-07 -3.21148e-07 -2.70586e-07)
(-7.28111e-07 -2.5178e-06 -7.28111e-07)
(6.89097e-07 -2.16502e-06 -7.81308e-07)
(5.99973e-07 -4.99727e-07 -2.62995e-07)
(-2.48787e-06 5.40812e-07 -8.7602e-07)
(-2.12131e-06 -2.44582e-06 -2.12131e-06)
(2.25947e-06 -1.98157e-06 -2.39641e-06)
(1.87285e-06 3.15863e-07 -8.51045e-07)
(-3.7449e-06 -1.0487e-06 -7.03034e-07)
(-3.22776e-06 -2.32006e-05 -3.22776e-06)
(3.43457e-06 -1.84808e-05 -3.91371e-06)
(2.85878e-06 -1.61748e-06 -6.87061e-07)
(-2.42219e-05 2.57525e-06 -3.26703e-06)
(-1.93065e-05 4.84018e-08 -1.93065e-05)
(2.36003e-05 1.2602e-06 -2.46845e-05)
(1.83964e-05 2.98787e-06 -3.22956e-06)
(9.59831e-10 3.06992e-06 3.15311e-10)
(3.56755e-09 -0.000184159 3.56755e-09)
(-3.93926e-09 -0.000138275 3.71078e-09)
(-2.97102e-10 6.44977e-06 5.01342e-10)
(-4.15452e-09 -1.52226e-09 1.09509e-09)
(-4.79436e-09 -2.30524e-08 2.04748e-09)
(2.07547e-09 -2.57547e-08 2.07547e-09)
(2.68377e-09 -1.06633e-08 1.67749e-09)
(-1.72227e-08 -5.2324e-09 5.19911e-09)
(-1.94482e-08 -4.63803e-08 1.00491e-08)
(1.00639e-08 -5.02116e-08 1.00639e-08)
(1.21165e-08 -1.7498e-08 7.53837e-09)
(-4.47549e-08 -8.95696e-09 1.59438e-08)
(-4.94362e-08 -1.06991e-07 3.15041e-08)
(3.0435e-08 -1.15244e-07 3.0435e-08)
(3.47315e-08 -3.05716e-08 2.07121e-08)
(-1.13863e-07 -4.94188e-08 3.58195e-08)
(-1.25164e-07 -2.86482e-07 9.00859e-08)
(8.54889e-08 -3.11758e-07 8.54889e-08)
(9.50747e-08 -8.19291e-08 5.00521e-08)
(-2.7906e-07 9.38089e-09 1.12884e-07)
(-3.0994e-07 -5.6927e-07 2.59322e-07)
(2.32552e-07 -6.49575e-07 2.32552e-07)
(2.61503e-07 -3.63406e-08 1.3434e-07)
(-6.83817e-07 -3.89183e-07 1.51113e-07)
(-7.81308e-07 -2.16502e-06 6.89097e-07)
(6.14536e-07 -2.49073e-06 6.14536e-07)
(6.98216e-07 -4.6181e-07 2.10602e-07)
(-2.03146e-06 4.04313e-07 6.49657e-07)
(-2.39641e-06 -1.98157e-06 2.25947e-06)
(1.91808e-06 -2.74229e-06 1.91808e-06)
(2.26343e-06 3.16487e-07 7.79405e-07)
(-3.03375e-06 -1.38888e-06 3.51384e-07)
(-3.91371e-06 -1.84808e-05 3.43457e-06)
(2.8876e-06 -2.38954e-05 2.8876e-06)
(3.71418e-06 -1.47476e-06 5.57621e-07)
(-1.87961e-05 2.81662e-06 2.60351e-06)
(-2.46845e-05 1.2602e-06 2.36003e-05)
(1.86843e-05 2.69871e-07 1.86843e-05)
(2.42991e-05 2.92263e-06 3.21397e-06)
(3.65131e-10 5.67448e-06 -5.37723e-10)
(3.71078e-09 -0.000138275 -3.93926e-09)
(-3.36096e-09 -0.000211415 -3.36096e-09)
(-7.88826e-10 4.22718e-06 -3.22292e-10)
(-3.38235e-09 7.7507e-09 1.7892e-09)
(-3.87559e-09 -8.95933e-09 2.54119e-09)
(1.67749e-09 -1.06633e-08 2.68377e-09)
(2.10028e-09 2.88004e-10 2.10028e-09)
(-1.32936e-08 1.3276e-08 7.48058e-09)
(-1.47136e-08 -1.60413e-08 1.13436e-08)
(7.53837e-09 -1.7498e-08 1.21165e-08)
(8.69084e-09 3.04332e-09 8.69084e-09)
(-3.2467e-08 2.82066e-08 2.02072e-08)
(-3.47362e-08 -3.02743e-08 3.23186e-08)
(2.07121e-08 -3.05716e-08 3.47315e-08)
(2.23189e-08 1.21222e-08 2.23189e-08)
(-7.13826e-08 5.68977e-08 4.44439e-08)
(-7.38704e-08 -8.28907e-08 8.64633e-08)
(5.00521e-08 -8.19291e-08 9.50747e-08)
(5.08187e-08 3.02695e-08 5.08187e-08)
(-1.71715e-07 1.50201e-07 1.26259e-07)
(-1.74381e-07 -4.58697e-08 2.33106e-07)
(1.3434e-07 -3.63406e-08 2.61503e-07)
(1.33805e-07 1.12492e-07 1.33805e-07)
(-2.66313e-07 2.11803e-07 1.84613e-07)
(-2.62995e-07 -4.99727e-07 5.99973e-07)
(2.10602e-07 -4.6181e-07 6.98216e-07)
(1.98257e-07 1.42761e-07 1.98257e-07)
(-8.80131e-07 7.23906e-07 7.25173e-07)
(-8.51045e-07 3.15863e-07 1.87285e-06)
(7.79405e-07 3.16487e-07 2.26343e-06)
(7.35337e-07 6.46362e-07 7.35337e-07)
(-6.79844e-07 8.94755e-07 5.10301e-07)
(-6.87061e-07 -1.61748e-06 2.85878e-06)
(5.57621e-07 -1.47476e-06 3.71418e-06)
(5.34185e-07 8.08863e-07 5.34185e-07)
(-3.37657e-06 2.37128e-06 2.9951e-06)
(-3.22956e-06 2.98787e-06 1.83964e-05)
(3.21397e-06 2.92263e-06 2.42991e-05)
(3.00489e-06 2.50612e-06 3.00489e-06)
(4.50569e-10 4.04921e-06 -4.09386e-10)
(5.01342e-10 6.44977e-06 -2.97102e-10)
(-3.22292e-10 4.22718e-06 -7.88826e-10)
(-3.784e-10 4.37518e-06 -3.784e-10)
)
;

boundaryField
{
    inlet
    {
        type            fixedValue;
        value           nonuniform 0();
    }
    outlet
    {
        type            zeroGradient;
    }
    walls
    {
        type            fixedValue;
        value           uniform (0 0 0);
    }
    procBoundary0to1
    {
        type            processor;
        value           nonuniform List<vector> 
16
(
(2.81335e-06 2.19198e-06 2.81335e-06)
(3.26701e-06 2.57273e-06 2.42211e-05)
(-2.6032e-06 2.81442e-06 1.87951e-05)
(-2.99589e-06 2.37009e-06 3.37742e-06)
(2.42211e-05 2.57273e-06 3.26701e-06)
(1.9308e-05 7.33928e-08 1.9308e-05)
(-2.36034e-05 1.27014e-06 2.46873e-05)
(-1.83953e-05 2.98568e-06 3.22914e-06)
(1.87951e-05 2.81442e-06 -2.6032e-06)
(2.46873e-05 1.27014e-06 -2.36034e-05)
(-1.86858e-05 2.92987e-07 -1.86858e-05)
(-2.42984e-05 2.92037e-06 -3.21398e-06)
(3.37742e-06 2.37009e-06 -2.99589e-06)
(3.22914e-06 2.98568e-06 -1.83953e-05)
(-3.21398e-06 2.92037e-06 -2.42984e-05)
(-3.00539e-06 2.50487e-06 -3.00539e-06)
)
;
    }
}


// ************************************************************************* //
