/*--------------------------------*- C++ -*----------------------------------*\
| =========                 |                                                 |
| \\      /  F ield         | OpenFOAM: The Open Source CFD Toolbox           |
|  \\    /   O peration     | Version:  5.x                                   |
|   \\  /    A nd           | Web:      www.OpenFOAM.org                      |
|    \\/     M anipulation  |                                                 |
\*---------------------------------------------------------------------------*/
FoamFile
{
    version     2.0;
    format      ascii;
    class       volVectorField;
    location    "0.02";
    object      Us;
}
// * * * * * * * * * * * * * * * * * * * * * * * * * * * * * * * * * * * * * //

dimensions      [0 1 -1 0 0 0 0];

internalField   nonuniform List<vector> 
160
(
(-3.9186e-29 -3.54705e-20 -3.9186e-29)
(-2.62895e-28 -2.37968e-19 -2.62895e-28)
(-2.62539e-28 -2.37645e-19 -2.62539e-28)
(-3.73272e-29 -3.37879e-20 -3.73271e-29)
(-2.31302e-27 -2.09371e-18 -2.31302e-27)
(-1.70718e-26 -1.54531e-17 -1.70718e-26)
(-1.70552e-26 -1.5438e-17 -1.70552e-26)
(-2.21989e-27 -2.00941e-18 -2.21989e-27)
(-1.35696e-25 -1.2283e-16 -1.35696e-25)
(-1.11161e-24 -1.00621e-15 -1.11161e-24)
(-1.11087e-24 -1.00554e-15 -1.11087e-24)
(-1.31172e-25 -1.18735e-16 -1.31172e-25)
(-7.74058e-24 -7.00665e-15 -7.74058e-24)
(-7.12668e-23 -6.45095e-14 -7.12668e-23)
(-7.12361e-23 -6.44817e-14 -7.12361e-23)
(-7.53459e-24 -6.82018e-15 -7.53459e-24)
(-4.25834e-22 -3.85458e-13 -4.25834e-22)
(-4.47684e-21 -4.05236e-12 -4.47684e-21)
(-4.47569e-21 -4.05132e-12 -4.47569e-21)
(-4.17256e-22 -3.77693e-13 -4.17256e-22)
(-2.23137e-20 -2.0198e-11 -2.23137e-20)
(-2.7348e-19 -2.47549e-10 -2.7348e-19)
(-2.73443e-19 -2.47516e-10 -2.73443e-19)
(-2.20011e-20 -1.9915e-11 -2.20011e-20)
(-1.09144e-18 -9.87949e-10 -1.09144e-18)
(-1.60419e-17 -1.45209e-08 -1.60419e-17)
(-1.6041e-17 -1.452e-08 -1.6041e-17)
(-1.08231e-18 -9.79684e-10 -1.0823e-18)
(-4.80538e-17 -4.34975e-08 -4.80538e-17)
(-8.82403e-16 -7.98736e-07 -8.82403e-16)
(-8.82387e-16 -7.98722e-07 -8.82387e-16)
(-4.78861e-17 -4.33456e-08 -4.7886e-17)
(-1.76339e-15 -1.59619e-06 -1.76339e-15)
(-4.31557e-14 -3.90638e-05 -4.31557e-14)
(-4.31556e-14 -3.90637e-05 -4.31556e-14)
(-1.76329e-15 -1.5961e-06 -1.76329e-15)
(-4.31517e-14 -3.90602e-05 -4.31517e-14)
(-1.58345e-12 -0.00143331 -1.58345e-12)
(-1.58345e-12 -0.00143331 -1.58345e-12)
(-4.31475e-14 -3.90564e-05 -4.31475e-14)
(-2.62895e-28 -2.37968e-19 -2.62895e-28)
(-1.93513e-27 -1.75164e-18 -1.93513e-27)
(-1.93151e-27 -1.74837e-18 -1.93151e-27)
(-2.503e-28 -2.26567e-19 -2.503e-28)
(-1.70718e-26 -1.54531e-17 -1.70718e-26)
(-1.3968e-25 -1.26436e-16 -1.3968e-25)
(-1.39498e-25 -1.26271e-16 -1.39498e-25)
(-1.64013e-26 -1.48462e-17 -1.64013e-26)
(-1.11161e-24 -1.00621e-15 -1.11161e-24)
(-1.02235e-23 -9.25411e-15 -1.02235e-23)
(-1.02147e-23 -9.24618e-15 -1.02147e-23)
(-1.07703e-24 -9.74909e-16 -1.07703e-24)
(-7.12668e-23 -6.45095e-14 -7.12668e-23)
(-7.48535e-22 -6.77561e-13 -7.48535e-22)
(-7.48143e-22 -6.77207e-13 -7.48143e-22)
(-6.9601e-23 -6.30016e-14 -6.9601e-23)
(-4.47684e-21 -4.05236e-12 -4.47684e-21)
(-5.48249e-20 -4.96266e-11 -5.48249e-20)
(-5.48092e-20 -4.96124e-11 -5.48092e-20)
(-4.40444e-21 -3.98683e-12 -4.40444e-21)
(-2.7348e-19 -2.47549e-10 -2.7348e-19)
(-4.01696e-18 -3.63609e-09 -4.01696e-18)
(-4.01643e-18 -3.63561e-09 -4.01643e-18)
(-2.7084e-19 -2.4516e-10 -2.7084e-19)
(-1.60419e-17 -1.45209e-08 -1.60419e-17)
(-2.94425e-16 -2.66508e-07 -2.94425e-16)
(-2.94412e-16 -2.66497e-07 -2.94412e-16)
(-1.59759e-17 -1.44611e-08 -1.59759e-17)
(-8.82403e-16 -7.98736e-07 -8.82403e-16)
(-2.15879e-14 -1.9541e-05 -2.15879e-14)
(-2.15877e-14 -1.95408e-05 -2.15877e-14)
(-8.82196e-16 -7.98549e-07 -8.82196e-16)
(-4.31557e-14 -3.90638e-05 -4.31557e-14)
(-1.58345e-12 -0.00143331 -1.58345e-12)
(-1.58345e-12 -0.00143331 -1.58345e-12)
(-4.31557e-14 -3.90638e-05 -4.31557e-14)
(-1.58345e-12 -0.00143331 -1.58345e-12)
(-1.16177e-10 -0.105161 -1.16177e-10)
(-1.16177e-10 -0.105161 -1.16177e-10)
(-1.58345e-12 -0.00143331 -1.58345e-12)
(-2.62539e-28 -2.37645e-19 -2.62539e-28)
(-1.93151e-27 -1.74837e-18 -1.93151e-27)
(-1.9139e-27 -1.73243e-18 -1.9139e-27)
(-2.34317e-28 -2.12099e-19 -2.34317e-28)
(-1.70552e-26 -1.5438e-17 -1.70552e-26)
(-1.39498e-25 -1.26271e-16 -1.39498e-25)
(-1.38537e-25 -1.25401e-16 -1.38537e-25)
(-1.55201e-26 -1.40485e-17 -1.55201e-26)
(-1.11087e-24 -1.00554e-15 -1.11087e-24)
(-1.02147e-23 -9.24618e-15 -1.02147e-23)
(-1.01639e-23 -9.20018e-15 -1.01639e-23)
(-1.03e-24 -9.32339e-16 -1.03e-24)
(-7.12361e-23 -6.44817e-14 -7.12361e-23)
(-7.48143e-22 -6.77207e-13 -7.48143e-22)
(-7.45638e-22 -6.74939e-13 -7.45638e-22)
(-6.72606e-23 -6.08831e-14 -6.72606e-23)
(-4.47569e-21 -4.05132e-12 -4.47569e-21)
(-5.48092e-20 -4.96124e-11 -5.48092e-20)
(-5.46981e-20 -4.95118e-11 -5.46981e-20)
(-4.29981e-21 -3.89211e-12 -4.2998e-21)
(-2.73443e-19 -2.47516e-10 -2.73443e-19)
(-4.01643e-18 -3.63561e-09 -4.01643e-18)
(-4.01234e-18 -3.6319e-09 -4.01234e-18)
(-2.66959e-19 -2.41647e-10 -2.66959e-19)
(-1.6041e-17 -1.452e-08 -1.6041e-17)
(-2.94412e-16 -2.66497e-07 -2.94412e-16)
(-2.94312e-16 -2.66406e-07 -2.94312e-16)
(-1.58817e-17 -1.43758e-08 -1.58817e-17)
(-8.82387e-16 -7.98722e-07 -8.82387e-16)
(-2.15877e-14 -1.95408e-05 -2.15877e-14)
(-2.15878e-14 -1.95409e-05 -2.15878e-14)
(-8.82392e-16 -7.98727e-07 -8.82392e-16)
(-4.31556e-14 -3.90637e-05 -4.31556e-14)
(-1.58345e-12 -0.00143331 -1.58345e-12)
(-1.58345e-12 -0.00143331 -1.58345e-12)
(-4.31557e-14 -3.90638e-05 -4.31557e-14)
(-1.58345e-12 -0.00143331 -1.58345e-12)
(-1.16177e-10 -0.105161 -1.16177e-10)
(-1.16177e-10 -0.105161 -1.16177e-10)
(-1.58345e-12 -0.00143331 -1.58345e-12)
(-3.73272e-29 -3.37879e-20 -3.73271e-29)
(-2.503e-28 -2.26567e-19 -2.503e-28)
(-2.34317e-28 -2.12099e-19 -2.34317e-28)
(-1.80762e-29 -1.63622e-20 -1.80762e-29)
(-2.21989e-27 -2.00941e-18 -2.21989e-27)
(-1.64013e-26 -1.48462e-17 -1.64013e-26)
(-1.55201e-26 -1.40485e-17 -1.55201e-26)
(-1.17094e-27 -1.05991e-18 -1.17094e-27)
(-1.31172e-25 -1.18735e-16 -1.31172e-25)
(-1.07703e-24 -9.74909e-16 -1.07703e-24)
(-1.03e-24 -9.32339e-16 -1.03e-24)
(-7.58212e-26 -6.86321e-17 -7.58212e-26)
(-7.53459e-24 -6.82018e-15 -7.53459e-24)
(-6.9601e-23 -6.30016e-14 -6.9601e-23)
(-6.72606e-23 -6.08831e-14 -6.72606e-23)
(-4.80926e-24 -4.35326e-15 -4.80926e-24)
(-4.17256e-22 -3.77693e-13 -4.17256e-22)
(-4.40444e-21 -3.98683e-12 -4.40444e-21)
(-4.29981e-21 -3.89211e-12 -4.2998e-21)
(-2.96548e-22 -2.68431e-13 -2.96548e-22)
(-2.20011e-20 -1.9915e-11 -2.20011e-20)
(-2.7084e-19 -2.4516e-10 -2.7084e-19)
(-2.66959e-19 -2.41647e-10 -2.66959e-19)
(-1.75513e-20 -1.58871e-11 -1.75513e-20)
(-1.08231e-18 -9.79684e-10 -1.0823e-18)
(-1.59759e-17 -1.44611e-08 -1.59759e-17)
(-1.58817e-17 -1.43758e-08 -1.58817e-17)
(-9.73473e-19 -8.81171e-10 -9.73473e-19)
(-4.78861e-17 -4.33456e-08 -4.7886e-17)
(-8.82196e-16 -7.98549e-07 -8.82196e-16)
(-8.82392e-16 -7.98727e-07 -8.82392e-16)
(-4.79448e-17 -4.33988e-08 -4.79448e-17)
(-1.76329e-15 -1.5961e-06 -1.76329e-15)
(-4.31557e-14 -3.90638e-05 -4.31557e-14)
(-4.31557e-14 -3.90638e-05 -4.31557e-14)
(-1.76351e-15 -1.5963e-06 -1.76351e-15)
(-4.31475e-14 -3.90564e-05 -4.31475e-14)
(-1.58345e-12 -0.00143331 -1.58345e-12)
(-1.58345e-12 -0.00143331 -1.58345e-12)
(-4.31517e-14 -3.90602e-05 -4.31517e-14)
)
;

boundaryField
{
    inlet
    {
        type            zeroGradient;
    }
    outlet
    {
        type            zeroGradient;
    }
    walls
    {
        type            zeroGradient;
    }
    procBoundary0to1
    {
        type            processor;
        value           nonuniform List<vector> 
16
(
(-1.76266e-15 -1.59553e-06 -1.76266e-15)
(-4.31483e-14 -3.90571e-05 -4.31482e-14)
(-4.3156e-14 -3.90641e-05 -4.3156e-14)
(-1.76298e-15 -1.59582e-06 -1.76298e-15)
(-4.31483e-14 -3.90571e-05 -4.31482e-14)
(-1.58344e-12 -0.00143331 -1.58344e-12)
(-1.58345e-12 -0.00143331 -1.58345e-12)
(-4.316e-14 -3.90677e-05 -4.316e-14)
(-4.3156e-14 -3.90641e-05 -4.3156e-14)
(-1.58345e-12 -0.00143331 -1.58345e-12)
(-1.58344e-12 -0.00143331 -1.58344e-12)
(-4.31563e-14 -3.90643e-05 -4.31562e-14)
(-1.76298e-15 -1.59582e-06 -1.76298e-15)
(-4.316e-14 -3.90677e-05 -4.316e-14)
(-4.31563e-14 -3.90643e-05 -4.31562e-14)
(-1.7632e-15 -1.59602e-06 -1.7632e-15)
)
;
    }
}


// ************************************************************************* //
