/*--------------------------------*- C++ -*----------------------------------*\
| =========                 |                                                 |
| \\      /  F ield         | OpenFOAM: The Open Source CFD Toolbox           |
|  \\    /   O peration     | Version:  5.x                                   |
|   \\  /    A nd           | Web:      www.OpenFOAM.org                      |
|    \\/     M anipulation  |                                                 |
\*---------------------------------------------------------------------------*/
FoamFile
{
    version     2.0;
    format      ascii;
    class       volScalarField;
    location    "0.036";
    object      phiIB;
}
// * * * * * * * * * * * * * * * * * * * * * * * * * * * * * * * * * * * * * //

dimensions      [0 2 -1 0 0 0 0];

internalField   nonuniform List<scalar> 
1553
(
-8.25989e-06
-8.24654e-06
-8.25064e-06
-8.24252e-06
-8.24453e-06
-8.25832e-06
-8.24495e-06
-8.24896e-06
-8.24078e-06
-8.2427e-06
-8.26604e-06
-8.25279e-06
-8.25679e-06
-8.24858e-06
-8.25045e-06
-8.26229e-06
-8.24905e-06
-8.25302e-06
-8.24478e-06
-8.24656e-06
-8.27459e-06
-8.26138e-06
-8.26538e-06
-8.25725e-06
-8.25901e-06
-2.27415e-05
-2.27344e-05
-2.27316e-05
-2.27267e-05
-2.2725e-05
-2.27434e-05
-2.27361e-05
-2.27332e-05
-2.27282e-05
-2.27265e-05
-2.27484e-05
-2.27409e-05
-2.27378e-05
-2.27326e-05
-2.27308e-05
-2.27509e-05
-2.27437e-05
-2.27407e-05
-2.27354e-05
-2.27335e-05
-2.27566e-05
-2.275e-05
-2.27474e-05
-2.27418e-05
-2.27397e-05
-3.67345e-05
-3.67159e-05
-3.67109e-05
-3.66944e-05
-3.66903e-05
-3.67367e-05
-3.67182e-05
-3.67138e-05
-3.66979e-05
-3.66942e-05
-3.675e-05
-3.67317e-05
-3.67281e-05
-3.67132e-05
-3.67102e-05
-3.67524e-05
-3.67345e-05
-3.67316e-05
-3.67176e-05
-3.6715e-05
-3.67687e-05
-3.67513e-05
-3.67488e-05
-3.67351e-05
-3.67328e-05
-5.66753e-05
-5.66528e-05
-5.66386e-05
-5.66106e-05
-5.65983e-05
-5.66804e-05
-5.66587e-05
-5.66463e-05
-5.66207e-05
-5.66101e-05
-5.6697e-05
-5.66765e-05
-5.66669e-05
-5.66454e-05
-5.66373e-05
-5.67041e-05
-5.66843e-05
-5.66763e-05
-5.66577e-05
-5.66515e-05
-5.67224e-05
-5.67028e-05
-5.66955e-05
-5.66781e-05
-5.66726e-05
-6.95186e-05
-6.94814e-05
-6.94573e-05
-6.94108e-05
-6.93897e-05
-6.95277e-05
-6.94919e-05
-6.94711e-05
-6.94286e-05
-6.94105e-05
-6.9557e-05
-6.95233e-05
-6.95071e-05
-6.94706e-05
-6.94565e-05
-6.95682e-05
-6.95361e-05
-6.95233e-05
-6.94915e-05
-6.94808e-05
-6.95976e-05
-6.95669e-05
-6.95558e-05
-6.95261e-05
-6.95169e-05
-8.90217e-05
-8.89741e-05
-8.89358e-05
-8.88638e-05
-8.88283e-05
-8.90356e-05
-8.89898e-05
-8.89574e-05
-8.88936e-05
-8.88637e-05
-8.90752e-05
-8.90316e-05
-8.90078e-05
-8.89569e-05
-8.89352e-05
-8.90909e-05
-8.90497e-05
-8.90319e-05
-8.89897e-05
-8.8974e-05
-8.91282e-05
-8.90893e-05
-8.9074e-05
-8.9034e-05
-8.90202e-05
-0.000102839
-0.000102772
-0.000102724
-0.000102628
-0.000102582
-0.000102856
-0.000102793
-0.000102752
-0.000102667
-0.000102628
-0.000102908
-0.000102849
-0.000102821
-0.000102752
-0.000102724
-0.000102926
-0.00010287
-0.00010285
-0.000102794
-0.000102774
-0.000102979
-0.000102925
-0.000102908
-0.000102856
-0.00010284
-0.000121025
-0.000120945
-0.0001209
-0.00012079
-0.000120749
-0.00012104
-0.000120965
-0.000120928
-0.000120828
-0.000120792
-0.000121098
-0.000121033
-0.000121011
-0.000120929
-0.000120902
-0.000121108
-0.000121045
-0.000121035
-0.000120968
-0.000120949
-0.000121167
-0.000121106
-0.000121099
-0.000121042
-0.000121029
-0.000135609
-0.000135532
-0.000135599
-0.000135617
-0.000135676
-0.000135603
-0.000135526
-0.000135578
-0.000135574
-0.000135621
-0.000135647
-0.000135577
-0.000135614
-0.000135581
-0.000135606
-0.000135627
-0.000135555
-0.000135581
-0.000135532
-0.000135542
-0.000135697
-0.000135625
-0.000135649
-0.000135608
-0.000135618
-0.000152651
-0.00015262
-0.000152971
-0.000153342
-0.000153624
-0.000152588
-0.000152528
-0.000152811
-0.000153109
-0.000153352
-0.000152575
-0.000152498
-0.000152671
-0.000152818
-0.000152988
-0.000152494
-0.000152406
-0.000152503
-0.00015254
-0.000152641
-0.000152571
-0.000152493
-0.000152579
-0.000152597
-0.000152668
-0.000167054
-0.000167227
-0.000167951
-0.00016866
-0.000169115
-0.000166885
-0.00016697
-0.000167593
-0.000168242
-0.000168672
-0.00016673
-0.000166701
-0.000167127
-0.000167603
-0.000167973
-0.000166503
-0.000166426
-0.000166707
-0.000166986
-0.000167255
-0.000166556
-0.000166501
-0.000166734
-0.000166896
-0.000167074
-0.000182637
-0.000182938
-0.000183643
-0.000184043
-0.000184347
-0.000182378
-0.000182612
-0.000183284
-0.00018372
-0.000184046
-0.000182108
-0.000182156
-0.00018275
-0.000183287
-0.000183649
-0.000181727
-0.000181677
-0.00018216
-0.00018262
-0.000182952
-0.000181749
-0.000181723
-0.000182109
-0.000182386
-0.000182652
-0.000194815
-0.000194894
-0.000195229
-0.000195078
-0.000195089
-0.000194486
-0.000194648
-0.000195074
-0.00019501
-0.000195068
-0.000194144
-0.000194348
-0.000194926
-0.000195065
-0.00019521
-0.000193657
-0.00019376
-0.000194348
-0.000194641
-0.000194881
-0.000193662
-0.000193649
-0.000194137
-0.000194483
-0.000194814
-0.000207114
-0.000206633
-0.000206547
-0.000206039
-0.000205867
-0.000206818
-0.000206484
-0.000206545
-0.000206139
-0.000206021
-0.000206536
-0.000206456
-0.000206753
-0.000206529
-0.000206514
-0.000206146
-0.000206046
-0.000206448
-0.000206462
-0.000206596
-0.000206362
-0.000206135
-0.000206518
-0.000206789
-0.000207074
-0.000214944
-0.000213802
-0.000213211
-0.000212374
-0.000212068
-0.000214764
-0.00021382
-0.00021339
-0.000212622
-0.000212349
-0.000214668
-0.00021419
-0.000214042
-0.000213366
-0.000213162
-0.000214498
-0.000214127
-0.000214175
-0.000213781
-0.000213739
-0.000215041
-0.000214482
-0.000214638
-0.000214707
-0.000214862
-0.000224144
-0.000222656
-0.000221825
-0.000220655
-0.000220246
-0.00022413
-0.000222813
-0.000222122
-0.000221011
-0.000220626
-0.000224442
-0.000223504
-0.000223084
-0.000222093
-0.000221766
-0.000224435
-0.000223647
-0.000223486
-0.000222766
-0.000222578
-0.000225268
-0.000224418
-0.000224408
-0.000224064
-0.000224046
-0.000228278
-0.000226333
-0.000225286
-0.000223915
-0.000223471
-0.000228579
-0.000226668
-0.000225673
-0.000224325
-0.000223886
-0.000229603
-0.000227798
-0.000226923
-0.00022564
-0.000225223
-0.000229842
-0.000228366
-0.000227781
-0.000226615
-0.000226247
-0.000230986
-0.000229823
-0.000229567
-0.000228503
-0.000228164
-0.000236728
-0.00023422
-0.000233024
-0.000231255
-0.000230699
-0.000237079
-0.000234667
-0.000233527
-0.000231775
-0.000231225
-0.000238298
-0.000236196
-0.000235207
-0.00023349
-0.000232956
-0.000238763
-0.00023691
-0.000236176
-0.000234609
-0.000234129
-0.000240674
-0.00023874
-0.000238256
-0.000236995
-0.000236607
-0.000238635
-0.000235484
-0.000234164
-0.000232103
-0.000231481
-0.00023919
-0.000236016
-0.000234692
-0.000232672
-0.000232079
-0.000241176
-0.000237924
-0.000236588
-0.000234649
-0.000234096
-0.000242157
-0.000239141
-0.000237904
-0.000235953
-0.000235393
-0.000244525
-0.000242123
-0.000241118
-0.000239091
-0.000238506
-0.000247223
-0.00024267
-0.000240687
-0.000237705
-0.000236563
-0.00024786
-0.000243472
-0.000241589
-0.000238713
-0.00023768
-0.000250262
-0.000246144
-0.000244391
-0.00024154
-0.000240613
-0.000251472
-0.000247698
-0.000246122
-0.0002434
-0.000242571
-0.000255359
-0.000251429
-0.000250202
-0.000247751
-0.000247082
-0.000247581
-0.000241898
-0.00023956
-0.000235981
-0.000234722
-0.000248338
-0.000242806
-0.0002406
-0.000237156
-0.000235967
-0.000251406
-0.000245841
-0.00024376
-0.000240537
-0.000239482
-0.000253182
-0.000247825
-0.000245827
-0.000242728
-0.000241803
-0.000257154
-0.000253142
-0.000251343
-0.000248211
-0.000247436
-0.000255009
-0.000245807
-0.000240789
-0.000234362
-0.000230098
-0.000256135
-0.000247644
-0.000243315
-0.000237622
-0.000234338
-0.000260118
-0.000252161
-0.000248549
-0.000243247
-0.000240701
-0.000262492
-0.000255191
-0.000252142
-0.000247552
-0.000245695
-0.000269488
-0.000262441
-0.000260054
-0.000255989
-0.000254845
-0.000255543
-0.000244941
-0.000240349
-0.000234387
-0.000232689
-0.000256503
-0.000246571
-0.000242396
-0.000236811
-0.000234383
-0.000260387
-0.000251084
-0.000247408
-0.000242301
-0.000240253
-0.000261896
-0.000253911
-0.000251071
-0.000246464
-0.000244839
-0.000268505
-0.000261816
-0.000260288
-0.000256325
-0.000255375
-0.000256517
-0.000236111
-0.000220324
-0.000204224
-0.000183046
-0.000259296
-0.000241692
-0.000229682
-0.000217161
-0.000204194
-0.000265807
-0.000249919
-0.000240558
-0.000229596
-0.000220232
-0.000269707
-0.000256551
-0.000249898
-0.00024157
-0.000235987
-0.000281739
-0.000269615
-0.000265709
-0.000259101
-0.000256337
-0.000263058
-0.000244153
-0.00023714
-0.000223775
-0.000227418
-0.000263521
-0.000247151
-0.000239951
-0.000230539
-0.000223797
-0.000267347
-0.000253235
-0.000247267
-0.000239821
-0.00023703
-0.000269335
-0.000256967
-0.000253229
-0.000246997
-0.000244018
-0.000279693
-0.000269222
-0.000267235
-0.000263266
-0.000262832
-0.000246465
-0.000202417
-0.000153957
-0.000117259
-4.58817e-06
-0.000251822
-0.000218537
-0.000187707
-0.000163759
-0.000117146
-0.000261965
-0.000232866
-0.000209175
-0.000187646
-0.000153923
-0.000270085
-0.00024618
-0.000232848
-0.000218385
-0.000202275
-0.000289062
-0.000269972
-0.000261874
-0.000251609
-0.000246271
-0.000262152
-0.000224829
-0.000218806
-0.000160325
-0.000190028
-0.000264307
-0.000235656
-0.000222243
-0.000205059
-0.00016063
-0.000270591
-0.00024418
-0.000235616
-0.000222093
-0.000218828
-0.0002737
-0.000253463
-0.000244169
-0.000235454
-0.000224778
-0.000289088
-0.000273547
-0.00027047
-0.000263989
-0.000262036
-0.000219859
-0.000145813
-2.89839e-05
3.09402e-05
0.000613373
-0.000233924
-0.000172048
-0.000120774
-8.40699e-05
3.15517e-05
-0.000249101
-0.000197256
-0.000152036
-0.000120796
-2.92489e-05
-0.000261658
-0.000225195
-0.000197225
-0.000171875
-0.000145802
-0.000287161
-0.000261545
-0.000249067
-0.000233751
-0.000219931
-0.00025172
-0.000147591
-6.95534e-05
0.000150158
0.000158487
-0.00025809
-0.00020614
-0.00015034
-0.000160485
0.000149233
-0.000269585
-0.000227056
-0.000197185
-0.000150026
-6.94424e-05
-0.000271782
-0.00024407
-0.000226973
-0.000205705
-0.000147096
-0.000292701
-0.00027156
-0.000269412
-0.000257612
-0.000251461
-0.000220211
-7.81565e-05
1.16727e-05
0.000219715
0.0011956
-0.000222886
-0.000115775
-6.07349e-05
0.000165628
0.00048957
-0.000244057
-0.000176427
-0.000141505
-6.03536e-05
1.00578e-05
-0.000249629
-0.000203845
-0.000176349
-0.000115234
-7.74811e-05
-0.000276905
-0.000249377
-0.000243925
-0.000222448
-0.000220527
-0.00030274
-0.000263297
-0.000357159
-0.000328826
0.00151013
-0.000285904
-0.000237158
-0.000316927
-0.000244149
-0.000166867
-0.000288314
-0.000269682
-0.00030339
-0.00031632
-0.000357014
-0.000273126
-0.000254115
-0.000269401
-0.000236218
-0.000262336
-0.000288676
-0.000272631
-0.000287916
-0.000285101
-0.000302525
-0.000209011
-0.000180341
-0.000135731
-0.000199718
-0.00118021
-0.00020961
-0.000182214
-0.000165144
-0.000166691
-0.000484906
-0.000232627
-0.000200298
-0.000188897
-0.000165002
-0.000137895
-0.000230186
-0.000215869
-0.000200081
-0.00018139
-0.000178604
-0.00024992
-0.000229369
-0.000232105
-0.000208776
-0.00020966
-0.000220224
-0.000219374
-8.75235e-05
-8.13895e-05
0.000273921
-0.000232241
-0.000222894
-0.000209883
-0.00016867
-0.000192358
-0.000242688
-0.00024108
-0.000225489
-0.000209569
-8.33785e-05
-0.00024238
-0.000236982
-0.000241006
-0.000221494
-0.00021768
-0.000253564
-0.000241287
-0.000241364
-0.000230584
-0.00022001
-0.000209864
-0.000267976
-0.000257183
-9.77651e-05
0.00088649
-0.00019378
-0.000236338
-0.000217904
-0.000189324
6.68903e-05
-0.000208576
-0.000214421
-0.000229143
-0.000217806
-0.000258546
-0.000199494
-0.000212265
-0.000214596
-0.000235024
-0.000267344
-0.000206747
-0.000198046
-0.000207319
-0.000191805
-0.000209625
-0.000287639
-0.000338848
-0.00057393
-0.000584592
-0.00268582
-0.00026681
-0.000318212
-0.000411442
-0.000482772
-0.000887483
-0.000249081
-0.000287289
-0.000338367
-0.000410111
-0.00057719
-0.000236056
-0.0002529
-0.000287467
-0.000317043
-0.000337468
-0.000232451
-0.000234854
-0.000248181
-0.000265057
-0.000287042
-0.000165418
-0.000211852
-0.000220319
-0.000418736
-0.000725109
-0.000167667
-0.00017343
-0.000214637
-0.00019226
-0.000396823
-0.000163909
-0.000180991
-0.000189222
-0.000216684
-0.000228309
-0.000159742
-0.000167832
-0.000181556
-0.000172125
-0.000209662
-0.00015482
-0.000157674
-0.000162434
-0.000165553
-0.00016488
-0.000223042
-0.000266194
-0.000293509
-0.000472265
-0.000400631
-0.000215484
-0.000256528
-0.000299787
-0.000414779
-0.00047175
-0.000206534
-0.000227753
-0.000252438
-0.000300366
-0.0002951
-0.000194127
-0.000208997
-0.000227702
-0.000255487
-0.000264647
-0.000192323
-0.0001927
-0.000205424
-0.000213591
-0.000221936
-0.000127481
-0.000158232
-0.000171509
-0.000240037
-0.000276397
-0.000123119
-0.000147856
-0.000166684
-0.000179081
-0.00023914
-0.000111889
-0.000135617
-0.00014695
-0.000165529
-0.00017175
-0.000104121
-0.000122638
-0.000136504
-0.000146849
-0.000158256
-9.21532e-05
-0.00010195
-0.000109883
-0.000119511
-0.00012443
-0.000124494
-0.000125816
-0.000131897
-0.000159237
-0.000129207
-0.000122746
-0.00012628
-0.000135077
-0.000158925
-0.000158047
-0.000126219
-0.000128041
-0.000129986
-0.000135109
-0.000132101
-0.000121695
-0.000124572
-0.000128208
-0.00012581
-0.000125286
-0.000124856
-0.000120656
-0.000125329
-0.000121168
-0.000122884
-4.48374e-05
-7.51598e-05
-8.62886e-05
-0.000116378
-0.0001224
-4.61361e-05
-6.92355e-05
-8.13446e-05
-0.000105296
-0.000118784
-4.08613e-05
-5.29777e-05
-6.02736e-05
-7.86875e-05
-8.57819e-05
-4.26176e-05
-5.59227e-05
-5.4156e-05
-6.86076e-05
-7.65658e-05
-3.24238e-05
-4.04806e-05
-3.91295e-05
-4.30121e-05
-4.31238e-05
-0.00073451
-0.000211902
-0.000167997
-0.000216619
-0.000984317
-0.000272633
-0.000513402
0.00135987
0.000161579
0.00150773
-0.0016738
-0.00184653
-0.000532373
-0.00167306
-0.000736737
-0.000211977
-0.000326693
-0.000512884
-0.000981637
-0.000271588
-0.000214954
-0.000681906
-0.000110727
-0.000486575
-0.000163351
7.61511e-05
-0.000199647
-0.000168691
-0.00271955
-0.000335781
-0.00118552
-0.00021063
0.000466826
-0.000279724
-0.00020567
-0.000676257
-0.000109607
-0.000197407
-0.000166866
6.84328e-05
-0.000195736
-0.000155705
0.000520037
4.22117e-05
0.00024819
0.00118897
0.00426528
0.000259381
0.00118017
0.000505745
-0.000148003
6.53303e-05
-0.000668515
-0.00102049
-0.000569969
-0.000650646
0.0043671
9.83769e-05
0.000887695
-0.00269359
-0.00107234
-0.000932207
-0.00268701
0.000505524
-0.000147305
-9.76292e-05
-0.000655219
-0.00102032
-0.000568183
-0.000665628
-0.00107578
-0.000480028
-0.000878438
-0.000440599
-0.000914077
-0.000309225
-0.000748215
-0.0017865
-0.000943579
-0.00267707
-0.000657527
-0.00142585
-0.00018125
-0.000699235
-0.00107892
-0.000474347
-0.000582639
-0.000777214
-0.000919199
-0.000291446
-0.000429334
-0.000791945
-0.00062003
-0.000732833
-0.000425453
-0.000536282
-0.00050631
-0.000527554
-0.000943522
-0.00164476
-0.000931434
-7.20987e-05
-0.00142151
0.000206218
-0.00143785
-0.00206235
-0.00190843
-0.0022971
-0.00185738
-0.00192781
-0.00150863
-0.00222462
-0.00151144
-0.00252497
-0.00157626
-0.00141785
-0.00233635
-0.00146523
-0.00141062
-0.00134413
-0.00112273
-0.0016802
-0.00167764
-0.00148839
-0.00122206
-0.00122108
-0.00220895
-0.000768367
-0.000951677
-0.000953195
-0.00123007
-0.00123166
-0.00205473
-0.00151062
-0.00252393
-0.00156841
-0.00141615
-0.00233514
-0.0014622
-0.00140946
-0.000179766
-0.00190392
-0.00190465
-0.00200014
-0.00128438
-0.00095476
-0.000941247
-0.00113316
-0.000890752
-0.000893376
0.00032403
-0.00146831
-0.000444637
-0.000448618
-0.000939194
-0.00163506
-0.000932311
-7.56554e-05
-0.00141722
0.000206213
-0.00143204
-0.00154498
-0.000241464
-0.00164935
-0.00214274
-0.000253998
-0.00170601
-0.000910792
-0.0006849
3.22869e-05
-0.00126864
-0.0012674
-0.0014514
-0.000290335
-0.000293953
-0.00154442
-0.00024086
-0.00164596
-0.00213955
-0.00025221
-0.0017016
-0.000912108
-0.000720443
-0.00100984
-0.00102048
-0.00132421
-0.000873993
-0.00129702
-0.000849773
-0.00214605
-0.00187987
-0.00187495
-0.00232131
-0.0019565
-0.00235792
-0.00235142
-0.00220104
-0.00142789
-0.00142284
-0.000793276
-0.00269323
-0.00143378
-0.00142871
-0.00207283
-0.00190321
-0.00229168
-0.0018606
-0.00192703
-0.00150958
-0.00223039
-0.00170468
-0.00143659
-0.00126439
-0.00047698
-0.00118869
-0.00110155
-0.00184709
-0.00160964
-0.00221439
-0.00115032
-0.00114303
-0.000864113
-0.0018869
-0.00188182
-0.00147941
-0.000589946
-0.00081303
-0.000811944
-0.00111697
-0.0011085
-0.00124512
-0.00170855
-0.00142415
-0.00127839
-0.000494754
-0.00117258
-0.00112723
-0.00183116
-0.000720334
-0.00102234
-0.00100921
-0.00133199
-0.000875189
-0.00129943
-0.000848604
0.00291586
0.000684901
0.00119804
0.00170752
0.00408161
0.000390708
0.0017046
-0.0008266
0.000779895
0.000779488
-0.000201345
0.000379201
-0.000521445
-0.000521065
-0.00142617
-0.00055243
0.000910414
-0.00160618
-0.00069881
-0.00113543
-0.00113664
-0.000528821
-0.000757607
-0.00036319
-0.000800839
-0.000658301
-0.000297383
-0.000604404
-0.00142609
-0.000555387
0.000918042
-0.00160236
-0.000703246
-0.00113282
-0.00113619
-0.000528482
-0.00075745
-0.000798712
-0.000360057
-0.000655995
-0.000296556
-0.000603138
-0.00123371
-0.000268401
-0.00137432
-0.0013716
-0.000974133
-0.000970653
-0.00239044
-0.00207668
-0.000519015
-0.000518485
-0.000436024
8.20012e-05
-0.00115343
-0.0011515
0.00102812
0.00412611
0.00406385
0.00178562
0.00264518
0.00137923
0.00136351
-0.000334417
-0.000132785
-0.00024285
-0.000242048
-0.000458315
-0.000191149
-0.000241536
-0.00049731
-0.000452787
-0.000817295
-0.000280165
-0.000682286
-0.000341889
-0.000450284
-0.000495623
-0.000452874
-0.000816431
-0.00028008
-0.000681944
-0.000342182
-0.000448292
0.00046232
0.00271801
0.000278177
0.00163223
0.00196712
0.000776649
0.00011979
-0.00023824
-0.0010663
-0.000839962
-0.000890859
-0.00103738
-0.000716207
-0.00018315
0.000462905
0.00270375
0.000275644
0.00163036
0.00194141
0.000769348
0.000113933
-0.000238934
-0.0010677
-0.00089154
-0.000836736
-0.00103899
-0.000716617
-0.000181929
0.00323926
0.00323751
0.00294921
0.00251176
0.00823373
0.00472781
0.00472469
0.000691842
2.81694e-05
0.000490514
0.000555742
0.00061159
0.000173428
0.000391499
0.000695066
2.84543e-05
0.00021783
0.000388161
0.000612892
0.000174548
0.000556705
-0.000249613
0.000240371
-0.000455773
-0.000641416
0.000129194
-0.000664241
-0.000365291
-0.000251929
-0.000455282
0.000242205
-0.000639505
0.000133042
-0.000662546
-0.000361564
0.00187681
0.000848135
0.00173655
0.0027749
0.00112771
0.00110528
0.00288173
0.00187491
0.000848852
0.00169291
0.00278141
0.00112043
0.00111428
0.00287044
0.0011227
0.00034624
0.000351866
5.80649e-05
0.00146534
-0.000126621
-0.000126904
0.000385248
0.000394587
0.00126069
0.00217296
0.000590086
0.00103055
0.00102469
-7.44395e-05
-0.000280728
-0.000188391
-0.000394184
-0.000276381
-0.000408756
-0.000393252
-0.000438893
-0.000564654
-0.000793784
-0.000506179
-0.000649995
-0.000319911
-0.000577708
-0.000438303
-0.000567071
-0.000797219
-0.000507919
-0.000651712
-0.000320706
-0.000579918
0.00151094
0.00320054
0.00314102
0.00312522
0.00296889
0.00235669
0.00232969
-0.000366678
-0.000210729
-4.39182e-05
-0.000441731
-0.000152089
-0.000611412
-0.000209623
-0.000367698
-0.00020916
-4.3187e-05
-0.000440881
-0.000154955
-0.000611326
-0.000208294
-0.000242277
-6.85918e-05
-0.000220301
-0.000219684
0.000598742
-0.000277685
0.000224279
-0.000226688
-6.34314e-05
-8.90887e-05
0.000229244
0.000602912
-0.000274166
-0.000214729
0.00116185
0.00050263
0.00302763
0.000900542
0.000300559
0.00242612
0.00146669
0.00116003
0.000513714
0.003012
0.000890833
0.000304154
0.00241833
0.0014671
-3.99021e-07
9.07326e-05
0.000479491
-0.000391301
-5.21479e-05
-7.84892e-05
0.000198844
-3.46326e-06
0.000474186
9.16016e-05
-0.000393681
-5.35015e-05
-8.05257e-05
0.000200393
0.000413169
6.50782e-05
0.000151313
0.00123272
0.00194817
0.000759139
0.00123605
0.00398655
0.00239024
0.00240306
0.00481874
0.00196926
0.00452179
0.00450838
0.00252051
0.00151889
0.0010775
0.00161548
0.00135695
0.00140115
0.00298872
0.00252181
0.00151821
0.00108773
0.00161279
0.00133855
0.00139151
0.0029927
0.000464373
0.00066393
0.000260365
0.000959701
0.00108555
0.000415871
0.000462788
0.000661257
0.000465166
0.000245485
0.000951905
0.00108722
0.000425027
0.000460004
0.000728474
0.000149719
0.00060918
0.000610631
0.00028897
0.000298398
0.00156522
)
;

boundaryField
{
    inlet
    {
        type            fixedValue;
        value           uniform 0;
    }
    wall
    {
        type            zeroGradient;
    }
    outlet
    {
        type            fixedValue;
        value           uniform 0;
    }
    procBoundary2to0
    {
        type            processor;
        value           nonuniform List<scalar> 
320
(
-8.25899e-06
-8.24596e-06
-8.25047e-06
-8.24231e-06
-8.24449e-06
-2.27422e-05
-2.27348e-05
-2.2732e-05
-2.27269e-05
-2.27252e-05
-3.67345e-05
-3.67159e-05
-3.67111e-05
-3.66945e-05
-3.66904e-05
-5.66761e-05
-5.66534e-05
-5.66392e-05
-5.66111e-05
-5.65988e-05
-6.95188e-05
-6.94816e-05
-6.94575e-05
-6.9411e-05
-6.93899e-05
-8.90224e-05
-8.89746e-05
-8.89363e-05
-8.88643e-05
-8.88286e-05
-0.000102839
-0.000102772
-0.000102724
-0.000102628
-0.000102582
-0.000121025
-0.000120945
-0.0001209
-0.00012079
-0.000120748
-0.000135609
-0.000135531
-0.000135598
-0.000135615
-0.000135674
-0.00015265
-0.000152618
-0.000152968
-0.000153338
-0.000153619
-0.000167052
-0.000167223
-0.000167946
-0.000168655
-0.000169109
-0.000182636
-0.000182937
-0.000183642
-0.000184042
-0.000184346
-0.000194815
-0.000194898
-0.000195235
-0.000195084
-0.000195095
-0.000207121
-0.000206641
-0.000206557
-0.00020605
-0.000205878
-0.000214957
-0.000213816
-0.000213225
-0.000212389
-0.000212084
-0.00022416
-0.000222673
-0.000221844
-0.000220674
-0.000220267
-0.000228298
-0.000226353
-0.000225308
-0.000223937
-0.000223496
-0.000236754
-0.000234246
-0.000233051
-0.000231282
-0.000230729
-0.000238665
-0.000235513
-0.000234194
-0.000232134
-0.000231516
-0.000247263
-0.000242708
-0.000240727
-0.000237744
-0.000236605
-0.00024762
-0.000241941
-0.000239605
-0.00023603
-0.000234775
-0.000255067
-0.000245862
-0.000240844
-0.000234418
-0.000230157
-0.000255598
-0.000245006
-0.000240417
-0.000234468
-0.000232781
-0.000256583
-0.000236182
-0.000220387
-0.000204297
-0.000183091
-0.000263134
-0.000244254
-0.000237257
-0.000223952
-0.000227691
-0.000246529
-0.000202498
-0.000153971
-0.00011734
-4.30874e-06
-0.000262221
-0.000224958
-0.000219069
-0.000160691
-0.000191246
-0.000219855
-0.000145839
-2.88501e-05
3.05759e-05
0.000615937
-0.000251829
-0.000147727
-6.97516e-05
0.000149691
0.000154876
-0.000220408
-7.81694e-05
1.03701e-05
0.000217656
0.00119652
-0.000303119
-0.000263018
-0.0003584
-0.000326033
0.00151113
-0.00020914
-0.000179804
-0.000137375
-0.000183661
-0.00117604
-0.00022057
-0.000219154
-8.73671e-05
-8.17948e-05
0.000266421
-0.000209949
-0.000268037
-0.000257641
-9.62055e-05
0.000887087
-0.000287905
-0.000338825
-0.000575283
-0.000590381
-0.00268533
-0.000164796
-0.000212014
-0.000220025
-0.000416511
-0.000734382
-0.000223043
-0.000265794
-0.000294358
-0.000468894
-0.000406759
-0.000127413
-0.000158906
-0.000171007
-0.000240244
-0.000272628
-0.000124524
-0.00012593
-0.000131912
-0.000158684
-0.000129124
-4.53287e-05
-7.6123e-05
-8.70946e-05
-0.000117576
-0.000122849
-0.000218006
-0.000983021
-0.000734703
-0.00167445
-0.00184695
0.00135935
-0.000166271
8.83336e-05
-0.000702567
-0.000209741
0.000468213
-0.00271979
0.00118789
0.00428518
0.000495426
-0.000669227
-0.00102216
0.000506997
-0.00269043
-0.00107249
0.00438825
-0.00043525
-0.000914801
-0.00107795
-0.00066703
-0.00142428
-0.00178765
-0.000492297
-0.000548086
-0.000824464
-7.07955e-05
-0.00143035
-0.00164706
-0.00185649
-0.00222315
-0.00190574
-0.00157472
-0.00141075
-0.00252138
-0.00112312
-0.00122232
-0.00168006
-0.00190234
-0.000952561
-0.00199734
-0.00164811
-0.000910086
-0.000241205
3.45305e-05
-0.000289195
-0.00126856
-0.00101114
-0.00085041
-0.00132936
-0.00125279
-0.00183204
-0.00143176
-0.00220283
-0.00188091
-0.00114926
-0.00188008
-0.00235715
-0.00231911
0.00170636
0.00408112
0.00291902
0.000778366
-0.000521923
-0.000201704
-0.00160685
-0.00113678
-0.00055308
-0.000759403
-0.000606971
-0.000363755
0.00412961
0.00138347
0.0017935
0.00162747
0.000131821
0.002722
-0.00107045
-0.000183793
-0.000838957
0.0082375
0.00473004
0.00323501
0.000557992
0.000612479
0.000690316
0.000241895
-0.000364899
-0.000641362
0.00187356
0.00287405
0.0011242
0.00321813
0.00236197
0.00314553
-0.000220528
0.000604228
-0.00025039
0.00302641
0.00147267
0.000507992
9.12638e-05
0.000199444
-0.000384546
0.00123563
0.00195032
0.00040842
0.00239573
0.00452275
0.00481703
0.0016178
0.00299259
0.00152043
0.000955602
0.000459552
0.000464631
)
;
    }
    procBoundary2to3
    {
        type            processor;
        value           nonuniform List<scalar> 
320
(
-8.24438e-06
-8.24254e-06
-8.25036e-06
-8.24646e-06
-8.25894e-06
-2.27247e-05
-2.27262e-05
-2.27306e-05
-2.27333e-05
-2.27396e-05
-3.66899e-05
-3.66938e-05
-3.67099e-05
-3.67148e-05
-3.67325e-05
-5.65978e-05
-5.66096e-05
-5.66369e-05
-5.66511e-05
-5.66724e-05
-6.93892e-05
-6.94101e-05
-6.94562e-05
-6.94805e-05
-6.95167e-05
-8.88277e-05
-8.88633e-05
-8.89349e-05
-8.89738e-05
-8.902e-05
-0.000102582
-0.000102628
-0.000102724
-0.000102774
-0.00010284
-0.000120748
-0.000120792
-0.000120902
-0.000120949
-0.000121029
-0.000135678
-0.000135623
-0.000135607
-0.000135543
-0.000135619
-0.000153628
-0.000153356
-0.000152992
-0.000152644
-0.000152669
-0.000169119
-0.000168676
-0.000167978
-0.000167259
-0.000167075
-0.000184347
-0.000184046
-0.000183649
-0.000182952
-0.000182653
-0.000195082
-0.000195061
-0.000195203
-0.000194876
-0.000194812
-0.000205854
-0.000206009
-0.000206503
-0.000206586
-0.000207066
-0.00021205
-0.000212332
-0.000213145
-0.000213722
-0.000214845
-0.000220224
-0.000220602
-0.000221743
-0.000222555
-0.000224024
-0.000223444
-0.000223856
-0.000225192
-0.000226216
-0.000228133
-0.000230665
-0.000231189
-0.000232918
-0.000234089
-0.000236568
-0.000231441
-0.000232035
-0.000234051
-0.000235344
-0.000238455
-0.000236512
-0.000237623
-0.000240554
-0.000242507
-0.000247016
-0.000234655
-0.000235895
-0.000239407
-0.000241723
-0.000247353
-0.000230019
-0.00023425
-0.000240606
-0.000245589
-0.00025473
-0.000232565
-0.000234254
-0.000240121
-0.000244699
-0.000255231
-0.000182939
-0.000204074
-0.000220085
-0.000235822
-0.00025615
-0.00022707
-0.000223522
-0.000236766
-0.000243768
-0.000262561
-4.53932e-06
-0.000117082
-0.000153735
-0.000202058
-0.000245976
-0.000188989
-0.000159936
-0.000218254
-0.000224376
-0.000261601
0.000613605
3.13475e-05
-2.90494e-05
-0.000145656
-0.000219544
0.000415849
0.000150394
-6.88693e-05
-0.000146398
-0.000250905
0.00290836
0.000692275
1.04882e-05
-7.68399e-05
-0.000219951
0.00136023
-0.000733993
-0.000356662
-0.000261605
-0.000301954
-0.00272044
-0.000696191
-0.000140244
-0.000177627
-0.000209303
0.000555198
-0.000222769
-8.38956e-05
-0.000217256
-0.00021924
0.00434634
0.000505077
-0.000258327
-0.000266931
-0.000208897
-0.00178175
-0.00107837
-0.000576823
-0.000336643
-0.000286784
-0.000779659
-0.000398585
-0.00022846
-0.000209364
-0.000164764
-0.000419827
-0.000472693
-0.00029761
-0.000264517
-0.000221169
-0.000275176
-0.000240737
-0.000171988
-0.000157632
-0.000123829
-0.000132646
-0.000159202
-0.000132322
-0.000125154
-0.000122244
-0.000121386
-0.000118057
-8.47579e-05
-7.56805e-05
-4.24623e-05
0.00151029
-0.00167288
-0.00184604
-0.000323708
-0.000215759
-0.000981147
-0.00118041
-0.000198893
0.000446046
-0.000179509
-0.000157478
7.6411e-05
0.000253015
0.00117762
0.00424757
0.000887042
-0.00268587
-0.00107131
-9.88116e-05
-0.000666826
-0.001021
-0.00267091
-0.000696132
-0.00145185
-0.000586798
-0.000426767
-0.000917906
-0.000676108
-0.000560241
-0.000379973
-0.00190285
-0.0009445
-0.00199052
-0.00186347
-0.00229117
-0.00231808
-0.00100916
-0.000846274
-0.00133206
-0.0015661
-0.001409
-0.0025197
-0.00112226
-0.00122053
-0.00167737
-7.54956e-05
-0.0014251
-0.00163753
-0.00164707
-0.000913424
-0.000241869
3.01949e-05
-0.000295105
-0.0012658
-0.00185615
-0.00223326
-0.00190515
-0.00128241
-0.00184899
-0.00138125
-0.00226896
-0.00178015
-0.00109049
0.00118991
0.00170171
0.00408178
0.00078031
-0.00052066
-0.000200992
-0.00160269
-0.00113606
-0.000553242
-0.000758404
-0.000606245
-0.0003612
0.00405835
0.00136046
0.00177812
0.00162837
0.000113944
0.0027011
-0.00106844
-0.000183131
-0.000837428
0.00823147
0.0047295
0.00323936
0.000219977
0.000556353
0.000610798
0.000241925
-0.000363477
-0.000641057
0.00188051
0.00286656
0.00112531
0.0031808
0.00232331
0.00311451
-8.49252e-05
-0.000214878
0.000604533
9.08733e-05
0.000200154
-0.000392827
0.00300721
0.00146254
0.00051015
0.000156245
0.00123564
0.00194483
0.00239753
0.00451278
0.00482304
0.00161453
0.00299778
0.0015113
0.000958448
0.000465647
0.000463189
)
;
    }
}


// ************************************************************************* //
