/*--------------------------------*- C++ -*----------------------------------*\
| =========                 |                                                 |
| \\      /  F ield         | OpenFOAM: The Open Source CFD Toolbox           |
|  \\    /   O peration     | Version:  5.x                                   |
|   \\  /    A nd           | Web:      www.OpenFOAM.org                      |
|    \\/     M anipulation  |                                                 |
\*---------------------------------------------------------------------------*/
FoamFile
{
    version     2.0;
    format      ascii;
    class       surfaceScalarField;
    location    "0.03";
    object      phi;
}
// * * * * * * * * * * * * * * * * * * * * * * * * * * * * * * * * * * * * * //

dimensions      [0 3 -1 0 0 0 0];

internalField   nonuniform List<scalar> 
784
(
-5.27386e-14
1.55851e-13
-5.27386e-14
-1.03074e-15
-8.46803e-14
-7.46589e-14
5.03029e-14
-8.6041e-14
-7.30735e-14
1.5861e-13
-5.86828e-14
-1.77219e-13
2.3001e-13
-1.77219e-13
-5.4575e-15
-1.84662e-13
-3.09923e-13
1.86867e-13
-2.05254e-13
-2.97226e-13
2.69224e-13
-2.18013e-13
-4.45557e-13
4.26199e-13
-4.45557e-13
2.72265e-15
-4.61545e-13
-7.83454e-13
4.9e-13
-5.13839e-13
-7.44653e-13
5.44877e-13
-5.18795e-13
-7.30505e-13
7.06974e-13
-7.30505e-13
-2.42786e-14
-7.04493e-13
-2.05213e-12
9.09785e-13
-9.75721e-13
-1.88063e-12
9.92723e-13
-9.71428e-13
-2.25379e-12
1.75095e-12
-2.25379e-12
8.19611e-15
-1.94341e-12
-4.89878e-12
2.64062e-12
-2.42368e-12
-4.52805e-12
2.33517e-12
-2.58735e-12
-2.28397e-12
2.70414e-12
-2.28397e-12
-1.2159e-13
-2.00906e-12
-1.10874e-11
3.31002e-12
-3.29716e-12
-9.98592e-12
3.58791e-12
-3.11661e-12
-1.073e-11
8.13024e-12
-1.073e-11
-3.56606e-13
-4.27304e-12
-3.82536e-11
1.26863e-11
-5.91345e-12
-3.48096e-11
9.39274e-12
-1.23229e-11
-5.28074e-12
1.0237e-11
-5.28074e-12
1.41123e-13
-1.49391e-12
-4.85353e-11
8.10389e-12
-2.39334e-12
-4.29825e-11
1.13412e-11
-6.38964e-12
-4.20217e-11
3.469e-11
-4.20217e-11
-2.16933e-12
2.94064e-11
-3.45092e-10
4.70504e-11
5.12549e-11
-3.13279e-10
3.04831e-11
-4.47877e-11
2.10698e-14
3.46748e-11
2.10698e-14
-2.35933e-15
2.93706e-11
8.95306e-14
-2.55253e-14
5.12231e-11
6.56235e-14
3.0461e-11
2.62402e-14
4.20519e-11
1.01998e-11
4.20519e-11
2.17719e-12
-1.56625e-12
3.45109e-10
-4.70809e-11
-2.46449e-12
3.13313e-10
1.13136e-11
4.48188e-11
5.2758e-12
8.09407e-12
5.2758e-12
-1.45563e-13
-4.30651e-12
4.84235e-11
-8.10195e-12
-5.94608e-12
4.28964e-11
9.36583e-12
6.38953e-12
1.07251e-11
2.67398e-12
1.07251e-11
3.55113e-13
-2.04614e-12
3.82497e-11
-1.26849e-11
-3.33217e-12
3.48079e-11
3.55997e-12
1.23227e-11
2.28996e-12
1.71493e-12
2.28996e-12
1.21623e-13
-1.97131e-12
1.10775e-11
-3.31416e-12
-2.45118e-12
9.9782e-12
2.30329e-12
3.12293e-12
2.25064e-12
6.72922e-13
2.25064e-12
-6.02569e-15
-7.39093e-13
4.90329e-12
-2.63574e-12
-1.00707e-12
4.53226e-12
9.63284e-13
2.58757e-12
7.41263e-13
3.8531e-13
7.41263e-13
2.6279e-14
-4.8817e-13
2.05465e-12
-9.14925e-13
-5.39573e-13
1.88553e-12
5.09889e-13
9.80483e-13
4.55355e-13
1.83849e-13
4.55355e-13
2.55763e-15
-2.10916e-13
7.98686e-13
-4.92708e-13
-2.28416e-13
7.61107e-13
2.30114e-13
5.31654e-13
2.02881e-13
9.65452e-14
2.02881e-13
1.04918e-14
-9.74384e-14
3.38251e-13
-2.01169e-13
-9.83572e-14
3.27603e-13
1.06451e-13
2.45611e-13
1.02032e-13
4.93325e-14
1.02032e-13
8.49328e-15
-3.893e-14
1.46007e-13
-8.69892e-14
-3.96466e-14
1.44824e-13
4.68667e-14
1.17654e-13
4.69348e-14
4.69348e-14
6.12348e-15
5.9352e-14
-3.3685e-14
6.01499e-14
5.34949e-14
-7.46589e-14
-8.46803e-14
-1.03074e-15
-4.35625e-16
-5.05506e-13
-4.35625e-16
6.45468e-14
-4.78039e-13
-3.29656e-15
-1.26986e-13
-2.05109e-15
-3.09923e-13
-1.84662e-13
-5.4575e-15
-1.72675e-15
-1.1219e-12
-1.72675e-15
2.65917e-13
-1.02979e-12
-1.31162e-14
-2.57962e-13
-2.53102e-15
-7.83454e-13
-4.61545e-13
2.72265e-15
1.70209e-14
-2.72287e-12
1.70209e-14
7.16713e-13
-2.44835e-12
-2.57714e-14
-5.56654e-13
2.83061e-15
-2.05213e-12
-7.04493e-13
-2.42786e-14
3.11836e-14
-6.88949e-12
3.11836e-14
1.82252e-12
-6.05306e-12
-6.72283e-14
-1.01909e-12
5.5368e-14
-4.89878e-12
-1.94341e-12
8.19611e-15
2.91249e-13
-1.72696e-11
2.91249e-13
4.60004e-12
-1.46784e-11
-2.11494e-13
-2.29595e-12
1.11444e-13
-1.10874e-11
-2.00906e-12
-1.2159e-13
6.34292e-13
-4.07129e-11
6.34292e-13
1.01801e-11
-3.36661e-11
-5.4397e-13
-2.95206e-12
5.66859e-13
-3.82536e-11
-4.27304e-12
-3.56606e-13
3.72102e-12
-1.24662e-10
3.72102e-12
3.5178e-11
-9.67559e-11
-3.17677e-12
-5.21455e-12
1.03975e-12
-4.85353e-11
-1.49391e-12
1.41123e-13
7.4305e-12
-2.36594e-10
7.4305e-12
4.43141e-11
-1.74211e-10
-2.41075e-12
-1.53294e-12
2.34127e-12
-3.45092e-10
2.94064e-11
-2.16933e-12
5.52584e-11
-1.0373e-09
5.52584e-11
3.12175e-10
-7.03446e-10
-4.09612e-11
4.88334e-11
6.47588e-12
8.95306e-14
2.93706e-11
-2.35932e-15
-1.49256e-14
-1.03709e-09
-1.49256e-14
-6.46392e-14
-7.03347e-10
1.6257e-14
4.88008e-11
3.83411e-15
3.45109e-10
-1.56625e-12
2.17719e-12
-5.52881e-11
-2.36292e-10
-5.52881e-11
-3.12208e-10
-1.74108e-10
4.09936e-11
-1.60412e-12
-6.48358e-12
4.84235e-11
-4.30651e-12
-1.45563e-13
-7.39878e-12
-1.24647e-10
-7.39878e-12
-4.42263e-11
-9.67619e-11
2.37801e-12
-5.24627e-12
-2.33501e-12
3.82497e-11
-2.04614e-12
3.55113e-13
-3.7201e-12
-4.07078e-11
-3.7201e-12
-3.51747e-11
-3.36769e-11
3.1775e-12
-2.98739e-12
-1.03492e-12
1.10775e-11
-1.97131e-12
1.21623e-13
-6.30678e-13
-1.72915e-11
-6.30677e-13
-1.01705e-11
-1.47018e-11
5.42937e-13
-2.32239e-12
-5.65021e-13
4.90329e-12
-7.39094e-13
-6.02562e-15
-2.87899e-13
-6.90912e-12
-2.87899e-13
-4.5994e-12
-6.07223e-12
2.14135e-13
-1.04683e-12
-1.09562e-13
2.05465e-12
-4.8817e-13
2.62791e-14
-2.94009e-14
-2.74103e-12
-2.94009e-14
-1.82307e-12
-2.46336e-12
7.03328e-14
-5.79016e-13
-5.16715e-14
7.98686e-13
-2.10916e-13
2.55765e-15
-1.36102e-14
-1.11644e-12
-1.36102e-14
-7.22778e-13
-1.02458e-12
3.1506e-14
-2.72975e-13
6.65802e-16
3.38251e-13
-9.74384e-14
1.04918e-14
7.48689e-15
-4.54895e-13
7.4869e-15
-2.82157e-13
-4.27782e-13
2.04521e-14
-1.26888e-13
9.71623e-15
1.46007e-13
-3.893e-14
8.49328e-15
9.30978e-15
-1.81486e-13
9.30979e-15
-1.12823e-13
-1.75148e-13
1.43279e-14
-5.77574e-14
1.21373e-14
5.9352e-14
6.12349e-15
7.42245e-15
7.42245e-15
-3.93524e-14
9.63537e-15
9.42403e-15
-7.30735e-14
-8.6041e-14
5.03029e-14
-3.29656e-15
-4.78039e-13
6.45468e-14
6.53102e-14
-4.86423e-13
6.53102e-14
-1.0907e-13
4.39907e-14
-2.97226e-13
-2.05254e-13
1.86867e-13
-1.31162e-14
-1.02979e-12
2.65917e-13
2.74896e-13
-1.06244e-12
2.74896e-13
-1.97463e-13
1.68698e-13
-7.44653e-13
-5.13839e-13
4.9e-13
-2.57714e-14
-2.44835e-12
7.16713e-13
7.48543e-13
-2.61104e-12
7.48543e-13
-4.01753e-13
4.22447e-13
-1.88063e-12
-9.75721e-13
9.09785e-13
-6.72283e-14
-6.05306e-12
1.82252e-12
1.9771e-12
-6.69967e-12
1.9771e-12
-5.92624e-13
8.01947e-13
-4.52805e-12
-2.42368e-12
2.64062e-12
-2.11494e-13
-1.46784e-11
4.60004e-12
4.95701e-12
-1.70367e-11
4.95701e-12
-1.48974e-12
2.27873e-12
-9.98592e-12
-3.29716e-12
3.31002e-12
-5.4397e-13
-3.36661e-11
1.01801e-11
1.13863e-11
-4.08973e-11
1.13863e-11
-9.00905e-13
2.59571e-12
-3.48096e-11
-5.91345e-12
1.26863e-11
-3.17677e-12
-9.67559e-11
3.5178e-11
3.85643e-11
-1.2438e-10
3.85643e-11
-2.57706e-12
1.12814e-11
-4.29825e-11
-2.39334e-12
8.10389e-12
-2.41075e-12
-1.74211e-10
4.43141e-11
4.77927e-11
-2.24786e-10
4.77927e-11
1.12856e-12
4.99423e-12
-3.13279e-10
5.12549e-11
4.70504e-11
-4.09612e-11
-7.03446e-10
3.12175e-10
3.3738e-10
-9.81469e-10
3.3738e-10
2.41629e-11
3.95518e-11
6.56235e-14
5.12231e-11
-2.55253e-14
1.6257e-14
-7.03347e-10
-6.46392e-14
-8.93673e-14
-9.81258e-10
-8.93673e-14
2.41279e-11
-2.12597e-14
3.13313e-10
-2.46449e-12
-4.70809e-11
4.09936e-11
-1.74108e-10
-3.12208e-10
-3.37399e-10
-2.24472e-10
-3.37399e-10
1.05582e-12
-3.95805e-11
4.28964e-11
-5.94608e-12
-8.10195e-12
2.37801e-12
-9.67619e-11
-4.42263e-11
-4.76763e-11
-1.24363e-10
-4.76763e-11
-2.60872e-12
-4.98858e-12
3.48079e-11
-3.33217e-12
-1.26849e-11
3.1775e-12
-3.36769e-11
-3.51747e-11
-3.85579e-11
-4.08924e-11
-3.85579e-11
-9.31316e-13
-1.12755e-11
9.9782e-12
-2.45118e-12
-3.31416e-12
5.42937e-13
-1.47018e-11
-1.01705e-11
-1.13748e-11
-1.7057e-11
-1.13748e-11
-1.51289e-12
-2.59773e-12
4.53226e-12
-1.00707e-12
-2.63574e-12
2.14135e-13
-6.07223e-12
-4.5994e-12
-4.9562e-12
-6.71629e-12
-4.9562e-12
-6.19785e-13
-2.27303e-12
1.88553e-12
-5.39573e-13
-9.14925e-13
7.03327e-14
-2.46336e-12
-1.82307e-12
-1.97604e-12
-2.62353e-12
-1.97604e-12
-4.21278e-13
-8.05243e-13
7.61107e-13
-2.28416e-13
-4.92708e-13
3.15059e-14
-1.02458e-12
-7.22778e-13
-7.53045e-13
-1.05442e-12
-7.53045e-13
-2.11217e-13
-4.25462e-13
3.27603e-13
-9.83572e-14
-2.01169e-13
2.04521e-14
-4.27782e-13
-2.82157e-13
-2.89931e-13
-4.33658e-13
-2.89931e-13
-1.08549e-13
-1.80049e-13
1.44824e-13
-3.96466e-14
-8.69892e-14
1.43279e-14
-1.75148e-13
-1.12823e-13
-1.13651e-13
-1.77695e-13
-1.13651e-13
-5.43811e-14
-7.68407e-14
6.01499e-14
-3.3685e-14
9.63537e-15
-3.93524e-14
-3.85638e-14
-3.85638e-14
-2.95118e-14
-5.86828e-14
1.5861e-13
-2.05109e-15
-1.26986e-13
4.39907e-14
-1.0907e-13
1.08227e-13
-2.18013e-13
2.69224e-13
-2.53102e-15
-2.57962e-13
1.68698e-13
-1.97463e-13
2.13495e-13
-5.18795e-13
5.44877e-13
2.83061e-15
-5.56654e-13
4.22447e-13
-4.01753e-13
4.74939e-13
-9.71428e-13
9.92723e-13
5.5368e-14
-1.01909e-12
8.01947e-13
-5.92624e-13
9.49478e-13
-2.58735e-12
2.33517e-12
1.11444e-13
-2.29595e-12
2.27873e-12
-1.48974e-12
2.28994e-12
-3.11661e-12
3.58791e-12
5.66859e-13
-2.95206e-12
2.59571e-12
-9.00905e-13
3.6259e-12
-1.23229e-11
9.39274e-12
1.03975e-12
-5.21455e-12
1.12814e-11
-2.57706e-12
9.99334e-12
-6.38964e-12
1.13412e-11
2.34127e-12
-1.53294e-12
4.99423e-12
1.12856e-12
1.14413e-11
-4.47877e-11
3.04831e-11
6.47588e-12
4.88334e-11
3.95518e-11
2.41629e-11
2.98674e-11
2.62402e-14
3.0461e-11
3.83411e-15
4.88008e-11
-2.12597e-14
2.41279e-11
2.9851e-11
4.48188e-11
1.13136e-11
-6.48358e-12
-1.60412e-12
-3.95805e-11
1.05582e-12
1.14031e-11
6.38953e-12
9.36583e-12
-2.33501e-12
-5.24627e-12
-4.98858e-12
-2.60872e-12
9.95939e-12
1.23227e-11
3.55997e-12
-1.03492e-12
-2.98739e-12
-1.12755e-11
-9.31316e-13
3.59571e-12
3.12292e-12
2.30329e-12
-5.65021e-13
-2.32239e-12
-2.59773e-12
-1.51289e-12
2.25896e-12
2.58757e-12
9.63284e-13
-1.09562e-13
-1.04683e-12
-2.27303e-12
-6.19785e-13
9.24068e-13
9.80483e-13
5.09889e-13
-5.16716e-14
-5.79016e-13
-8.05243e-13
-4.21278e-13
4.47139e-13
5.31654e-13
2.30114e-13
6.65787e-16
-2.72975e-13
-4.25462e-13
-2.11217e-13
1.8448e-13
2.45611e-13
1.06451e-13
9.71622e-15
-1.26888e-13
-1.80049e-13
-1.08549e-13
7.24037e-14
1.17654e-13
4.68667e-14
1.21373e-14
-5.77574e-14
-7.68407e-14
-5.43811e-14
2.39924e-14
5.34949e-14
9.42402e-15
-2.95118e-14
)
;

boundaryField
{
    inlet
    {
        type            calculated;
        value           nonuniform List<scalar> 
16
(
2.77271e-14
-1.2733e-14
-1.54573e-14
1.99491e-14
-1.2733e-14
-7.76184e-14
-7.78516e-14
-2.7314e-14
-1.54573e-14
-7.78516e-14
-8.12858e-14
-2.82312e-14
1.99491e-14
-2.73139e-14
-2.82312e-14
4.27761e-15
)
;
    }
    outlet
    {
        type            calculated;
        value           nonuniform List<scalar> 
16
(
-1.32295e-13
4.9341e-14
5.19504e-14
-1.27718e-13
4.9341e-14
3.57057e-13
3.43278e-13
9.09045e-14
5.19504e-14
3.43278e-13
3.49209e-13
8.27316e-14
-1.27718e-13
9.09045e-14
8.27316e-14
-8.08137e-14
)
;
    }
    walls
    {
        type            calculated;
        value           nonuniform List<scalar> 
320
(
4.09602e-14
1.40139e-13
3.47462e-13
5.90113e-13
1.73179e-12
1.80736e-12
8.01692e-12
4.22735e-12
2.97952e-11
-1.34168e-14
-2.98145e-11
-4.22294e-12
-8.01502e-12
-1.81043e-12
-1.72964e-12
-5.97457e-13
-3.54633e-13
-1.59233e-13
-7.84216e-14
-3.61275e-14
5.82885e-14
2.38138e-13
6.12044e-13
1.58882e-12
3.87569e-12
8.9906e-12
3.01442e-11
4.03344e-11
2.7434e-10
-3.03164e-14
-2.74298e-10
-4.02618e-11
-3.01401e-11
-8.98397e-12
-3.87885e-12
-1.59061e-12
-6.23149e-13
-2.59329e-13
-1.10961e-13
-4.47245e-14
5.58287e-14
2.24111e-13
5.65955e-13
1.40844e-12
3.34358e-12
7.42779e-12
2.4383e-11
3.14996e-11
2.10411e-10
-1.06841e-14
-2.10367e-10
-3.14584e-11
-2.43818e-11
-7.4234e-12
-3.34666e-12
-1.41183e-12
-5.76997e-13
-2.45992e-13
-1.08044e-13
-4.45251e-14
4.47925e-14
1.67924e-13
4.01352e-13
7.88317e-13
2.02172e-12
2.71167e-12
9.73564e-12
6.04812e-12
3.61987e-11
-1.51884e-14
-3.6227e-11
-6.04781e-12
-9.73467e-12
-2.71528e-12
-2.02224e-12
-7.94025e-13
-4.10495e-13
-1.87678e-13
-8.79154e-14
-3.92554e-14
3.33008e-14
1.26343e-13
3.318e-13
6.45065e-13
1.86381e-12
2.46222e-12
9.46872e-12
6.49694e-12
3.64976e-11
-1.44156e-14
-3.65252e-11
-6.49584e-12
-9.46707e-12
-2.46512e-12
-1.86108e-12
-6.4799e-13
-3.34088e-13
-1.35438e-13
-5.71408e-14
-2.10028e-14
4.39979e-14
1.81422e-13
4.93801e-13
1.25817e-12
3.1781e-12
7.15269e-12
2.40778e-11
3.19015e-11
2.10545e-10
-9.52666e-15
-2.10501e-10
-3.18595e-11
-2.40759e-11
-7.14756e-12
-3.17782e-12
-1.25873e-12
-4.97829e-13
-1.92347e-13
-7.6432e-14
-2.57183e-14
4.56091e-14
1.92076e-13
5.33234e-13
1.42139e-12
3.68684e-12
8.76863e-12
2.99988e-11
4.14341e-11
2.8127e-10
-2.92492e-14
-2.8123e-10
-4.13581e-11
-2.99947e-11
-8.76048e-12
-3.68584e-12
-1.42097e-12
-5.36976e-13
-2.02831e-13
-7.88317e-14
-2.57696e-14
3.02869e-14
1.1607e-13
2.91724e-13
5.64674e-13
1.60849e-12
1.92773e-12
8.09767e-12
4.27027e-12
3.03387e-11
-1.31311e-14
-3.03565e-11
-4.26675e-12
-8.09369e-12
-1.92935e-12
-1.60558e-12
-5.66778e-13
-2.94132e-13
-1.24008e-13
-5.26305e-14
-1.96543e-14
4.09602e-14
1.40139e-13
3.47462e-13
5.90113e-13
1.73179e-12
1.80736e-12
8.01692e-12
4.22735e-12
2.97952e-11
-1.34168e-14
-2.98145e-11
-4.22294e-12
-8.01502e-12
-1.81043e-12
-1.72964e-12
-5.97457e-13
-3.54633e-13
-1.59233e-13
-7.84216e-14
-3.61275e-14
5.82885e-14
2.38138e-13
6.12044e-13
1.58882e-12
3.87569e-12
8.9906e-12
3.01442e-11
4.03344e-11
2.7434e-10
-3.03164e-14
-2.74298e-10
-4.02618e-11
-3.01401e-11
-8.98397e-12
-3.87885e-12
-1.59061e-12
-6.23149e-13
-2.59329e-13
-1.10961e-13
-4.47245e-14
5.58287e-14
2.24111e-13
5.65955e-13
1.40844e-12
3.34358e-12
7.42779e-12
2.4383e-11
3.14996e-11
2.10411e-10
-1.06841e-14
-2.10367e-10
-3.14584e-11
-2.43818e-11
-7.4234e-12
-3.34666e-12
-1.41183e-12
-5.76997e-13
-2.45992e-13
-1.08044e-13
-4.45251e-14
4.47925e-14
1.67924e-13
4.01352e-13
7.88317e-13
2.02172e-12
2.71167e-12
9.73564e-12
6.04812e-12
3.61987e-11
-1.51884e-14
-3.6227e-11
-6.04781e-12
-9.73467e-12
-2.71528e-12
-2.02224e-12
-7.94025e-13
-4.10495e-13
-1.87678e-13
-8.79154e-14
-3.92554e-14
3.33008e-14
1.26343e-13
3.318e-13
6.45065e-13
1.86381e-12
2.46222e-12
9.46872e-12
6.49694e-12
3.64976e-11
-1.44156e-14
-3.65252e-11
-6.49584e-12
-9.46707e-12
-2.46512e-12
-1.86108e-12
-6.4799e-13
-3.34088e-13
-1.35438e-13
-5.71408e-14
-2.10028e-14
4.39979e-14
1.81422e-13
4.93801e-13
1.25817e-12
3.1781e-12
7.15269e-12
2.40778e-11
3.19015e-11
2.10545e-10
-9.52666e-15
-2.10501e-10
-3.18595e-11
-2.40759e-11
-7.14756e-12
-3.17782e-12
-1.25873e-12
-4.97829e-13
-1.92347e-13
-7.6432e-14
-2.57183e-14
4.56091e-14
1.92076e-13
5.33234e-13
1.42139e-12
3.68684e-12
8.76863e-12
2.99988e-11
4.14341e-11
2.8127e-10
-2.92492e-14
-2.8123e-10
-4.13581e-11
-2.99947e-11
-8.76048e-12
-3.68584e-12
-1.42097e-12
-5.36976e-13
-2.02831e-13
-7.88317e-14
-2.57696e-14
3.02869e-14
1.1607e-13
2.91724e-13
5.64674e-13
1.60849e-12
1.92773e-12
8.09767e-12
4.27027e-12
3.03387e-11
-1.31311e-14
-3.03565e-11
-4.26675e-12
-8.09369e-12
-1.92935e-12
-1.60558e-12
-5.66778e-13
-2.94132e-13
-1.24008e-13
-5.26305e-14
-1.96543e-14
)
;
    }
}


// ************************************************************************* //
