/*--------------------------------*- C++ -*----------------------------------*\
| =========                 |                                                 |
| \\      /  F ield         | OpenFOAM: The Open Source CFD Toolbox           |
|  \\    /   O peration     | Version:  5.x                                   |
|   \\  /    A nd           | Web:      www.OpenFOAM.org                      |
|    \\/     M anipulation  |                                                 |
\*---------------------------------------------------------------------------*/
FoamFile
{
    version     2.0;
    format      ascii;
    class       volScalarField;
    location    "0.096";
    object      interFace;
}
// * * * * * * * * * * * * * * * * * * * * * * * * * * * * * * * * * * * * * //

dimensions      [0 0 0 0 0 0 0];

internalField   nonuniform List<scalar> 
1560
(
0
0
0
0
0
0
0
0
0
0
0
0
0
0
0
0
0
0
0
0
0
0
0
0
0
0
0
0
0
0
0
0
0
0
0
0
0
0
0
0
0
0
0
0
0
0
0
0
0
0
0
0
0
0
0
0
0
0
0
0
0
0
0
0
0
0
0
0
0
0
0
0
0
0
0
0
0
0
0
0
0
0
0
0
0
0
0
0
0
0
0
0
0
0
0
0
0
0
0
0
0
0
0
0
0
0
0
0
0
0
0
0
0
0
0
0
0
0
0
0
0
0
0
0
0
0
0
0
0
0
0
0
0
0
0
0
0
0
0
0
0
0
0
0
0
0
0
0
0
0
0
0
0
0
0
0
0
0
0
0
0
0
0
0
0
0
0
0
0
0
0
0
0
0
0
0
0
0
0
0
0
0
0
0
0
0
0
0
0
0
0
0
0
0
0
0
0
0
0
0
0
0
0
0
0
0
0
0
0
0
0
0
0
0
0
0
0
0
0
0
0
0
0
0
0
0
0
0
0
0
0
0
0
0
0
0
0
0
0
0
0
0
0
0
0
0
0
0
0
0
0
0
0
0
0
0
0
0
0
0
0
0
0
0
0
0
0
0
0
0
0
0
0
0
0
0
0
0
0
0
0
0
0
0
0
0
0
0
0
0
0
0
0
0
0
0
0
0
0
0
0
0
0
0
0
0
0
0
0
0
0
0
0
0
0
0
0
0
0
0
0
0
0
0
0
0
0
0
0
0
0
0
0
0
0
0
0
0
0
0
0
0
0
0
0
0
0
0
0
0
0
0
0
0
0
0
0
0
0
0
0
0
0
0
0
0
0
0
0
0
0
0
0
0
0
0
0
0
0
0
0
0
0
0
0
0
0
0
0
0
0
0
0
0
0
0
0
0
0
0
0
0
0
0
0
0
0
0
0
0
0
0
0
0
0
0
0
0
0
0
0
0
0
0
0
0
0
0
0
0
0
0
0
0
0
0
0
0
0
0
0
0
0
0
0
0
0
0
0
0
0
0
0
0
0
0
0
0
0
0
0
0
0
0
0
0
0
0
0
0
0
0
0
0
0
0
0
0
0
0
0
0
0
0
0
0
0
0
0
0
0
0
0
0
0
0
0
0
0
0
0
0
0
0
0
0
0
0
0
0
0
0
0
0
0
0
0
0
0
0
0
0
0
0
0
0
0
0
0
0
0
0
0
0
0
0
0
0
0
0
0
0
0
0
0
0
0
0
0
0
0
0
0
0
0
0
0
0
0
0
0
0
0
0
0
0
0
0
0
0
0
0
0
0
0
0
0
0
0
0
0
0
0
0
0
0
0
0
0
0
0
0
0
0
0
0
0
0
0
0
0
0
0
0
0
0
0
0
0
0
0
0
0
0
0
0
0
0
0
0
0
0
0
0
0
0
0
0
0
0
0
0
0
0
0
0
0
0
0
0
0
0
0
0
0
0
0
0
0
0.681131
0
0
0
0
0
0
0
0
0
0
0
0
0
0
0
0
0
0
0
0
0
0
0
0
0.60331
0
0
0
0
0
0
0
0
0
0
0
0
0
0
0
0
0
0
0
0
0
0
0
0
0
0
0
0
0
0
0
0
0
0
0
0
0
0
0
0
0
0
0
0
0
0
0
0
0
0.824961
0
0
0
0
0
0
0
0
0
0
0
0
0
0
0
0
0
0
0
0
0
0
0
0
0.554213
0
0
0
0
0
0
0
0
0
0
0
0
0
0
0
0
0
0
0
0
0
0
0
0
0.961179
0
0
0
0
0
0
0
0
0
0
0
0
0
0
0
0
0
0
0
0
0
0
0
0
0
0
0
0
0
0
0
0
0
0
0
0
0
0
0
0
0
0
0
0
0
0
0
0
0
0
0
0
0
0
0
0
0
0
0
0
0
0
0
0
0
0
0
0
0
0
0
0
0
0
0
0
0
0
0
0
0
0
0
0
0
0
0
0
0
0
0
0
0
0
0
0
0
0
0
0
0
0
0
0
0
0
0
0
0
0
0
0
0
0
0
0
0
0
0
0
0
0
0
0
0
0
0
0
0
0
0
0
0
0
0
0
0
0
0
0
0
0
0
0
0
0
0
0
0
0
0
0
0
0
0
0
0
0
0
0
0
0
0
0
0
0
0
0
0
0
0
0
0
0
0
0
0
0
0
0
0
0
0
0
0
0
0
0
0
0
0
0
0
0
0
0
0
0
0
0
0
0
0
0
0
0
0
0
0
0
0
0
0
0
0
0
0
0
0
0
0
0
0
0
0
0.731757
0.731769
0.462932
0
0
0
0
0.285376
0.285388
0.0165512
0.821768
0.552931
0.552943
0.284106
0.556124
0.556136
0.287299
0.554669
0.285832
0.285844
0.0170073
0
0
0.869218
0.96574
0.786515
0.786523
0.467037
0
0
0
0
0
0
0
0
0
0
0
0
0
0
0.334688
0.33468
0.0660588
0
0.746938
0.746929
0.478308
0.776158
0.50772
0.507724
0.686579
0.552512
0.731366
0.73137
0.865766
0.776549
0.597328
0.955404
0.64212
0
0.820975
0.86577
0.776557
0.597336
0.955416
0.642124
0
0.820983
0.523031
0.523028
0.567751
0.385514
0.296071
0.340794
0.340791
0
0.856806
0.513873
0
0
0
0.952558
0.856801
0
0.513862
0
0
0
0.952547
0.791658
0.612574
0.657294
0.475057
0.564701
0.609421
0.430337
0.791652
0.612568
0.657291
0.475054
0.564692
0.609415
0.430332
0.881198
0.881195
0.746834
0.564597
0.833322
0.698961
0.698958
0.328894
0.328898
0.373686
0.23968
0.150101
0.194888
0.194892
0
0.733462
0.464625
0
0
0.962025
0.73218
0.733466
0
0.464641
0
0.962033
0
0.732196
0.597723
0.418502
0.463294
0.329288
0.418925
0.463717
0.284497
0.597731
0.41851
0.463298
0.329292
0.418937
0.463725
0.284505
0.41251
0.412502
0.143881
0.555534
0.286913
0.286905
0.0182835
0.248097
0.110781
0.110779
0.158655
0.155501
0.203377
0.203375
0.687335
0.687339
0.552906
0.418901
0.687762
0.553329
0.553333
0.33764
0.379408
0.200325
0.427284
0.245045
0.472004
0.292921
0.337638
0.379403
0.200319
0.427276
0.245042
0.471999
0.292915
0.427181
0.468949
0.468946
0.695906
0.334585
0.561545
0.561542
0.150495
0.0613389
0.0613429
0.0609156
0.106131
0.105703
0.105707
0.240103
0.330168
0.150947
0.32974
0.195739
0.374532
0.195312
0.240107
0.330176
0.150955
0.329752
0.195743
0.37454
0.19532
0.95625
0.776972
0
0.598175
0.642966
0.867036
0.822245
0.776984
0.95627
0
0.598191
0.642979
0.867052
0.822265
0.0630061
0.0630034
0.107726
0.104771
0.0153286
0.0600513
0.0600485
0
0.844987
0.591694
0
0
0.734719
0.466097
0.844981
0
0.591683
0
0.734716
0
0.466086
0.329716
0.41978
0.419784
0.598577
0.285351
0.464144
0.464148
0.558592
0.606468
0.651188
0.875193
0.737877
0.782597
0.830473
0.558584
0.606458
0.65118
0.875182
0.737864
0.782586
0.83046
0.331633
0.152549
0.197269
0.194314
0.283958
0.328678
0.149594
0.331627
0.152544
0.197266
0.194312
0.28395
0.328673
0.149589
0.421173
0.421171
0.28681
0.283855
0.552579
0.418218
0.418216
0
0
0
0
0
0
0
0.061795
0.0617991
0.106587
0.151863
0.062284
0.107072
0.107076
0
0.964762
0.785537
0
0
0.733918
0.465081
0.96477
0
0.785553
0
0.733922
0
0.465098
0.330624
0.151403
0.196195
0.241472
0.331109
0.375901
0.19668
0.330632
0.151411
0.196199
0.241476
0.331121
0.375909
0.196688
0.509417
0.50899
0.553782
0.688695
0.733487
0.777851
0.73306
0.509429
0.509006
0.553794
0.688715
0.733503
0.777868
0.73308
0
0
0.83376
0.812638
0.544017
0.544009
0.275387
0.146637
0.188603
0.1886
0.0571943
0.233323
0.101917
0.101914
0.420236
0.42024
0.285807
0.331084
0.599946
0.465513
0.465517
0.23618
0.45723
0.278146
0.325824
0.322866
0.370544
0.19146
0.236177
0.457225
0.278141
0.325816
0.322864
0.370538
0.191455
0.510817
0.690102
0.734822
0.463142
0.507862
0.731867
0.687147
0.510809
0.690088
0.734811
0.463131
0.507854
0.731856
0.687133
0.32572
0.54677
0.546768
0.594445
0.412407
0.460084
0.460081
0.599029
0.777827
0.643394
0.957532
0.823099
0.867464
0
0.599037
0.777831
0.643402
0.95754
0.823111
0.867476
0
0.241961
0.332087
0.332091
0.152381
0.376878
0.197169
0.197173
0.331569
0.600915
0.421695
0.421206
0.466487
0.465998
0.286777
0.331573
0.600924
0.421703
0.421218
0.466491
0.466006
0.286785
0.509873
0.689151
0.733943
0.510358
0.55515
0.77922
0.734428
0.509885
0.689171
0.733959
0.510374
0.555162
0.779236
0.734448
0
0
0
0
0
0
0
0.600358
0.958723
0.824362
0.731764
0.597403
0.821407
0.955768
0.600352
0.958718
0.824354
0.731761
0.597397
0.821399
0.955763
0.421181
0.690528
0.690532
0.690043
0.556099
0.55561
0.555614
0.32011
0.320107
0.36483
0.541157
0.451715
0.496437
0.496435
0
0
0
0
0
0
0.928919
0
0
0
0
0
0
0.928908
0.636414
0.505008
0.549728
0.773733
0.815699
0.860419
0.729013
0.636406
0.504997
0.54972
0.773722
0.815685
0.860408
0.728999
0.588737
0.409653
0.454373
0.6307
0.720344
0.765064
0.58598
0.588731
0.409648
0.45437
0.630698
0.720336
0.765059
0.585975
0
0
0
0
0
0
0
0.599486
0.957988
0.823555
0.779195
0.644762
0.868832
0
0.599494
0.957996
0.823567
0.779199
0.64477
0.868844
0
0.678277
0.678274
0.543913
0.720241
0.988965
0.854605
0.854602
0.511825
0.511829
0.556617
0.781175
0.691596
0.736384
0.736388
)
;

boundaryField
{
    inlet
    {
        type            calculated;
        value           uniform 0;
    }
    wall
    {
        type            calculated;
        value           uniform 0;
    }
    outlet
    {
        type            calculated;
        value           uniform 0;
    }
    procBoundary0to1
    {
        type            processor;
        value           uniform 0;
    }
    procBoundary0to2
    {
        type            processor;
        value           uniform 0;
    }
}


// ************************************************************************* //
