/*--------------------------------*- C++ -*----------------------------------*\
| =========                 |                                                 |
| \\      /  F ield         | OpenFOAM: The Open Source CFD Toolbox           |
|  \\    /   O peration     | Version:  5.x                                   |
|   \\  /    A nd           | Web:      www.OpenFOAM.org                      |
|    \\/     M anipulation  |                                                 |
\*---------------------------------------------------------------------------*/
FoamFile
{
    version     2.0;
    format      ascii;
    class       surfaceScalarField;
    location    "0.096";
    object      phi;
}
// * * * * * * * * * * * * * * * * * * * * * * * * * * * * * * * * * * * * * //

dimensions      [0 3 -1 0 0 0 0];

internalField   nonuniform List<scalar> 
4324
(
-7.84077e-07
-7.77144e-07
2.91436e-07
-7.03461e-07
-9.28642e-07
1.0614e-07
-6.38054e-07
-9.82396e-07
1.37352e-07
-4.58718e-07
-1.05947e-06
4.63893e-08
-1.09256e-06
8.21175e-08
-9.35556e-07
-6.95157e-07
1.07618e-07
-8.39983e-07
-8.31692e-07
-1.92528e-07
-7.34411e-07
-8.81669e-07
-2.06302e-07
-5.36241e-07
-9.58584e-07
-2.99054e-07
-9.92257e-07
-2.7029e-07
-9.89325e-07
-6.27956e-07
1.38427e-07
-8.89966e-07
-7.24341e-07
-2.06711e-07
-7.69579e-07
-7.5948e-07
-2.42576e-07
-5.62518e-07
-8.28998e-07
-3.36642e-07
-8.59472e-07
-3.07378e-07
-1.06639e-06
-4.48029e-07
4.86621e-08
-9.66851e-07
-5.25526e-07
-2.98352e-07
-8.39083e-07
-5.51757e-07
-3.35483e-07
-6.24788e-07
-6.14021e-07
-4.29251e-07
-6.40996e-07
-3.9849e-07
-1.09946e-06
8.44606e-08
-1.0005e-06
-2.69561e-07
-8.6954e-07
-3.06163e-07
-6.51758e-07
-3.9847e-07
-3.62895e-07
-2.27676e-07
-2.2115e-07
3.99113e-07
-3.00177e-07
-1.00319e-07
2.03838e-07
-3.28936e-07
-6.63461e-08
1.84983e-07
-3.20657e-07
-3.76241e-08
5.35433e-08
-2.86518e-08
4.51261e-08
-1.06551e-07
-2.91442e-07
2.05197e-07
-1.99262e-07
-1.90907e-07
-9.24152e-09
-2.75679e-07
-1.63571e-07
-3.26717e-08
-2.91559e-07
-1.42617e-07
-1.78188e-07
-1.39433e-07
-1.92236e-07
-7.25699e-08
-3.18902e-07
1.86751e-07
-1.71986e-07
-2.66053e-07
-3.2158e-08
-2.66374e-07
-2.56628e-07
-5.51363e-08
-2.91314e-07
-2.51036e-07
-2.03273e-07
-2.56883e-07
-2.17334e-07
-4.35845e-08
-3.09782e-07
5.67639e-08
-1.50955e-07
-2.80892e-07
-1.76145e-07
-2.6074e-07
-2.80524e-07
-2.01791e-07
-2.95176e-07
-2.84402e-07
-3.61384e-07
-2.95832e-07
-3.79687e-07
-3.44282e-08
4.91134e-08
-1.47744e-07
-1.89411e-07
-2.66592e-07
-2.15107e-07
-3.0662e-07
-3.78977e-07
-3.97672e-07
-7.27015e-07
-7.20125e-07
6.34801e-07
-6.83746e-07
-7.90808e-07
2.96195e-07
-6.26409e-07
-8.13609e-07
2.69227e-07
-4.61857e-07
-8.69802e-07
4.56168e-08
-8.93913e-07
3.75115e-08
-7.97698e-07
-6.75085e-07
2.98213e-07
-7.56355e-07
-7.47719e-07
-9.37048e-08
-6.94461e-07
-7.71535e-07
-1.36676e-07
-5.24692e-07
-8.32442e-07
-3.85361e-07
-8.58907e-07
-4.03772e-07
-8.20522e-07
-6.16183e-07
2.7188e-07
-7.80175e-07
-6.84267e-07
-1.35991e-07
-7.16848e-07
-7.06648e-07
-1.83391e-07
-5.45129e-07
-7.68898e-07
-4.38583e-07
-7.96431e-07
-4.58321e-07
-8.76732e-07
-4.50766e-07
5.0438e-08
-8.41071e-07
-5.13626e-07
-3.82489e-07
-7.79093e-07
-5.34056e-07
-4.36404e-07
-6.05138e-07
-5.94092e-07
-7.10168e-07
-6.20879e-07
-7.36343e-07
-9.00864e-07
4.34691e-08
-8.67549e-07
-3.99745e-07
-8.06642e-07
-4.5499e-07
-6.31936e-07
-7.35234e-07
-7.61894e-07
-6.05179e-07
-5.96664e-07
8.30341e-07
-5.9383e-07
-5.86573e-07
3.78922e-07
-5.53619e-07
-5.8498e-07
3.22014e-07
-4.31011e-07
-5.95921e-07
1.90738e-08
-6.02111e-07
-1.41925e-08
-5.95066e-07
-5.83181e-07
3.8149e-07
-5.9243e-07
-5.81854e-07
-1.01101e-07
-5.64356e-07
-5.83081e-07
-1.66695e-07
-4.48646e-07
-6.00861e-07
-4.96185e-07
-6.10673e-07
-5.39071e-07
-5.93518e-07
-5.41238e-07
3.25627e-07
-5.93689e-07
-5.52073e-07
-1.65645e-07
-5.69835e-07
-5.57517e-07
-2.32857e-07
-4.56594e-07
-5.82871e-07
-5.69867e-07
-5.96608e-07
-6.14621e-07
-6.04499e-07
-4.17571e-07
2.55252e-08
-6.11461e-07
-4.3531e-07
-4.92341e-07
-5.95148e-07
-4.43225e-07
-5.6706e-07
-4.86351e-07
-4.73059e-07
-9.28811e-07
-4.89234e-07
-9.82766e-07
-6.1071e-07
-6.15455e-09
-6.21289e-07
-5.33622e-07
-6.08955e-07
-6.10248e-07
-5.02572e-07
-9.81214e-07
-1.03754e-06
-9.81322e-07
-9.72488e-07
1.13441e-06
-9.1597e-07
-1.04026e-06
4.80219e-07
-8.19586e-07
-1.06007e-06
3.95831e-07
-5.73147e-07
-1.12421e-06
-4.12302e-08
-1.15027e-06
-8.75046e-08
-1.04908e-06
-9.05026e-07
4.83466e-07
-9.89924e-07
-9.79004e-07
-2.21557e-07
-8.95421e-07
-1.00075e-06
-3.20554e-07
-6.45911e-07
-1.07189e-06
-7.98046e-07
-1.10098e-06
-8.58919e-07
-1.06892e-06
-8.06806e-07
4.00402e-07
-1.01169e-06
-8.82684e-07
-3.19229e-07
-9.18124e-07
-9.05368e-07
-4.21843e-07
-6.681e-07
-9.81125e-07
-9.10684e-07
-1.01251e-06
-9.74884e-07
-1.13306e-06
-5.59354e-07
-3.30029e-08
-1.08281e-06
-6.3216e-07
-7.93144e-07
-9.93851e-07
-6.54337e-07
-9.07075e-07
-7.42729e-07
-7.29012e-07
-1.43204e-06
-7.60838e-07
-1.50893e-06
-1.15917e-06
-7.72453e-08
-1.11196e-06
-8.5199e-07
-1.02528e-06
-9.69313e-07
-7.7457e-07
-1.50697e-06
-1.58743e-06
-1.17473e-06
-1.163e-06
1.48964e-06
-1.08983e-06
-1.21567e-06
5.83064e-07
-9.60028e-07
-1.23139e-06
4.55445e-07
-6.54357e-07
-1.28612e-06
-1.44368e-07
-1.30771e-06
-2.18329e-07
-1.22739e-06
-1.07541e-06
5.87152e-07
-1.1502e-06
-1.13585e-06
-3.78607e-07
-1.02422e-06
-1.15348e-06
-5.24459e-07
-7.17571e-07
-1.21609e-06
-1.17473e-06
-1.24088e-06
-1.26713e-06
-1.24313e-06
-9.43224e-07
4.61185e-07
-1.16786e-06
-1.00754e-06
-5.22822e-07
-1.04329e-06
-1.02659e-06
-6.73312e-07
-7.3632e-07
-1.0948e-06
-1.33892e-06
-1.12248e-06
-1.43608e-06
-1.29797e-06
-6.36122e-07
-1.34001e-07
-1.23048e-06
-6.99662e-07
-1.16852e-06
-1.11145e-06
-7.18371e-07
-1.3343e-06
-8.04688e-07
-7.86844e-07
-2.0467e-06
-8.14947e-07
-2.16121e-06
-1.31963e-06
-2.0546e-07
-1.25533e-06
-1.25843e-06
-1.13922e-06
-1.42899e-06
-8.32942e-07
-2.15883e-06
-2.27901e-06
-1.64552e-06
-1.63331e-06
1.98664e-06
-1.509e-06
-1.74111e-06
7.17198e-07
-1.30638e-06
-1.7708e-06
5.27708e-07
-8.43118e-07
-1.87269e-06
-3.08796e-07
-1.91058e-06
-4.1551e-07
-1.75331e-06
-1.4941e-06
7.22122e-07
-1.62646e-06
-1.61163e-06
-6.34967e-07
-1.4258e-06
-1.64407e-06
-8.51845e-07
-9.54278e-07
-1.75661e-06
-1.7623e-06
-1.79895e-06
-1.89514e-06
-1.78304e-06
-1.2891e-06
5.34604e-07
-1.65895e-06
-1.40864e-06
-8.49901e-07
-1.45935e-06
-1.44214e-06
-1.07482e-06
-9.86271e-07
-1.56119e-06
-2.00737e-06
-1.60698e-06
-2.14741e-06
-1.88501e-06
-8.2444e-07
-2.96288e-07
-1.77146e-06
-9.35888e-07
-1.7548e-06
-1.57835e-06
-9.67689e-07
-2.00181e-06
-1.10227e-06
-1.08405e-06
-2.99982e-06
-1.12977e-06
-3.16307e-06
-1.923e-06
-3.99974e-07
-1.81385e-06
-1.88473e-06
-1.62436e-06
-2.13895e-06
-1.14807e-06
-3.16025e-06
-3.33145e-06
-2.20493e-06
-2.18815e-06
2.64843e-06
-2.0075e-06
-2.31906e-06
8.78302e-07
-1.71309e-06
-2.35829e-06
5.97035e-07
-1.06808e-06
-2.47708e-06
-5.61725e-07
-2.52141e-06
-7.2074e-07
-2.33582e-06
-1.987e-06
8.84336e-07
-2.14995e-06
-2.12954e-06
-1.01037e-06
-1.85375e-06
-2.17084e-06
-1.33548e-06
-1.19511e-06
-2.30175e-06
-2.59623e-06
-2.3502e-06
-2.79368e-06
-2.37509e-06
-1.68916e-06
6.05355e-07
-2.19129e-06
-1.83001e-06
-1.33324e-06
-1.89442e-06
-1.87065e-06
-1.67185e-06
-1.23027e-06
-2.00616e-06
-2.96705e-06
-2.05708e-06
-3.17575e-06
-2.49401e-06
-1.04203e-06
-5.46471e-07
-2.32222e-06
-1.16941e-06
-2.58716e-06
-2.02985e-06
-1.20457e-06
-2.96019e-06
-1.35831e-06
-1.33301e-06
-4.34441e-06
-1.38157e-06
-4.5872e-06
-2.53845e-06
-7.01966e-07
-2.37084e-06
-2.78123e-06
-2.08102e-06
-3.1655e-06
-1.40729e-06
-4.58395e-06
-4.83808e-06
-3.02087e-06
-3.00388e-06
3.56935e-06
-2.7411e-06
-3.21158e-06
1.10215e-06
-2.3102e-06
-3.26957e-06
6.78253e-07
-1.38862e-06
-3.45726e-06
-9.2811e-07
-3.52256e-06
-1.16643e-06
-3.22855e-06
-2.72063e-06
1.10918e-06
-2.96457e-06
-2.94425e-06
-1.5417e-06
-2.52972e-06
-3.00659e-06
-2.0333e-06
-1.5827e-06
-3.21011e-06
-3.79037e-06
-3.28212e-06
-4.08361e-06
-3.28662e-06
-2.28659e-06
6.87927e-07
-3.02699e-06
-2.50636e-06
-2.03074e-06
-2.59058e-06
-2.56715e-06
-2.54766e-06
-1.63651e-06
-2.7758e-06
-4.35538e-06
-2.85014e-06
-4.66879e-06
-3.47444e-06
-1.36308e-06
-9.10282e-07
-3.23051e-06
-1.5576e-06
-3.77982e-06
-2.79912e-06
-1.61141e-06
-4.34726e-06
-1.82957e-06
-1.80489e-06
-6.28479e-06
-1.87658e-06
-6.64251e-06
-3.53993e-06
-1.14449e-06
-3.30275e-06
-4.06918e-06
-2.87377e-06
-4.65681e-06
-1.90144e-06
-6.63885e-06
-7.01448e-06
-4.18992e-06
-4.16554e-06
4.86397e-06
-3.79988e-06
-4.45296e-06
1.42543e-06
-3.17606e-06
-4.54902e-06
7.83652e-07
-1.86163e-06
-4.79341e-06
-1.45242e-06
-4.88615e-06
-1.81464e-06
-4.47732e-06
-3.77019e-06
1.43382e-06
-4.10976e-06
-4.08027e-06
-2.28195e-06
-3.46877e-06
-4.17976e-06
-3.04353e-06
-2.10876e-06
-4.44643e-06
-5.49734e-06
-4.54587e-06
-5.95335e-06
-4.57345e-06
-3.14132e-06
7.94947e-07
-4.20933e-06
-3.43438e-06
-3.04074e-06
-3.56135e-06
-3.52689e-06
-3.84849e-06
-2.18027e-06
-3.79262e-06
-6.39023e-06
-3.89273e-06
-6.88053e-06
-4.81808e-06
-1.82351e-06
-1.43128e-06
-4.47603e-06
-2.0713e-06
-5.48493e-06
-3.82694e-06
-2.14278e-06
-6.38043e-06
-2.41744e-06
-2.38047e-06
-9.1064e-06
-2.46767e-06
-9.67465e-06
-4.91106e-06
-1.78887e-06
-4.57576e-06
-5.93665e-06
-3.92738e-06
-6.86653e-06
-2.50492e-06
-9.67086e-06
-1.02698e-05
-5.7622e-06
-5.73916e-06
6.69672e-06
-5.22847e-06
-6.17103e-06
1.90254e-06
-4.32603e-06
-6.30647e-06
9.16447e-07
-2.47413e-06
-6.67863e-06
-2.18362e-06
-6.80641e-06
-2.74713e-06
-6.19399e-06
-5.20104e-06
1.91194e-06
-5.69294e-06
-5.66585e-06
-3.28817e-06
-4.76489e-06
-5.81087e-06
-4.46717e-06
-2.83743e-06
-6.21114e-06
-7.89228e-06
-6.35098e-06
-8.59523e-06
-6.32963e-06
-4.29457e-06
9.29162e-07
-5.83816e-06
-4.73398e-06
-4.46408e-06
-4.897e-06
-4.86584e-06
-5.73467e-06
-2.94447e-06
-5.25983e-06
-9.29408e-06
-5.39405e-06
-1.0068e-05
-6.702e-06
-2.43996e-06
-2.1598e-06
-6.23834e-06
-2.80417e-06
-7.87838e-06
-5.29068e-06
-2.91102e-06
-9.2829e-06
-3.28871e-06
-3.25601e-06
-1.31122e-05
-3.37865e-06
-1.39828e-05
-6.83024e-06
-2.7178e-06
-6.37864e-06
-8.57647e-06
-5.42546e-06
-1.00521e-05
-3.41183e-06
-1.39788e-05
-1.49031e-05
-8.10658e-06
-8.07127e-06
9.38214e-06
-7.41842e-06
-8.7294e-06
2.72619e-06
-6.12721e-06
-8.99515e-06
1.19235e-06
-3.46239e-06
-9.52394e-06
-3.1371e-06
-9.74959e-06
-4.02237e-06
-8.76466e-06
-7.37554e-06
2.73705e-06
-8.13392e-06
-8.09142e-06
-4.55688e-06
-6.7771e-06
-8.36804e-06
-6.4511e-06
-3.97622e-06
-8.94993e-06
-1.12672e-05
-9.19379e-06
-1.24225e-05
-9.03055e-06
-6.07681e-06
1.20659e-06
-8.41072e-06
-6.72741e-06
-6.44793e-06
-7.02292e-06
-6.97304e-06
-8.51749e-06
-4.1474e-06
-7.54029e-06
-1.35793e-05
-7.7782e-06
-1.48635e-05
-9.55976e-06
-3.40637e-06
-3.10989e-06
-8.99261e-06
-3.92161e-06
-1.12513e-05
-7.5898e-06
-4.09262e-06
-1.35662e-05
-4.62394e-06
-4.5703e-06
-1.90481e-05
-4.75554e-06
-2.05573e-05
-9.78606e-06
-3.98902e-06
-9.23724e-06
-1.24016e-05
-7.82853e-06
-1.48457e-05
-4.80989e-06
-2.05539e-05
-2.21756e-05
-1.12406e-05
-1.12109e-05
1.3292e-05
-1.03344e-05
-1.21528e-05
4.00585e-06
-8.46726e-06
-1.25307e-05
1.60402e-06
-4.72278e-06
-1.33121e-05
-4.41349e-06
-1.36112e-05
-5.83137e-06
-1.21823e-05
-1.02995e-05
4.01733e-06
-1.1374e-05
-1.13398e-05
-6.17823e-06
-9.41149e-06
-1.17514e-05
-9.19287e-06
-5.45128e-06
-1.25982e-05
-1.59413e-05
-1.29208e-05
-1.77847e-05
-1.25607e-05
-8.4276e-06
1.61943e-06
-1.17861e-05
-9.373e-06
-9.18935e-06
-9.76484e-06
-9.72559e-06
-1.25647e-05
-5.71218e-06
-1.04978e-05
-1.97324e-05
-1.07697e-05
-2.18576e-05
-1.33423e-05
-4.67946e-06
-4.38426e-06
-1.26324e-05
-5.40985e-06
-1.59244e-05
-1.05361e-05
-5.67021e-06
-1.9718e-05
-6.3447e-06
-6.30447e-06
-2.74329e-05
-6.53701e-06
-2.98052e-05
-1.36427e-05
-5.79416e-06
-1.29564e-05
-1.77617e-05
-1.08096e-05
-2.18377e-05
-6.57858e-06
-2.98018e-05
-3.23845e-05
-1.59929e-05
-1.59428e-05
1.93552e-05
-1.5041e-05
-1.7573e-05
6.58398e-06
-1.24118e-05
-1.84344e-05
2.758e-06
-6.9378e-06
-1.96989e-05
-5.69067e-06
-2.0377e-05
-7.99511e-06
-1.76231e-05
-1.49803e-05
6.59672e-06
-1.68778e-05
-1.68176e-05
-7.67889e-06
-1.40421e-05
-1.77616e-05
-1.27014e-05
-8.15948e-06
-1.92101e-05
-2.23128e-05
-1.99951e-05
-2.55081e-05
-1.84845e-05
-1.23401e-05
2.77412e-06
-1.78219e-05
-1.39714e-05
-1.26982e-05
-1.48519e-05
-1.47813e-05
-1.8515e-05
-8.70151e-06
-1.62113e-05
-2.88817e-05
-1.69535e-05
-3.269e-05
-1.97495e-05
-6.85719e-06
-5.65896e-06
-1.92702e-05
-8.08155e-06
-2.22936e-05
-1.6281e-05
-8.62332e-06
-2.88652e-05
-9.8362e-06
-9.76058e-06
-4.03286e-05
-1.02975e-05
-4.48948e-05
-2.04297e-05
-7.954e-06
-2.00573e-05
-2.54833e-05
-1.70257e-05
-3.26688e-05
-1.03751e-05
-4.48938e-05
-5.00311e-05
-2.24228e-05
-2.23879e-05
2.85351e-05
-2.1351e-05
-2.46328e-05
1.08572e-05
-1.75838e-05
-2.60329e-05
4.91379e-06
-9.82836e-06
-2.7964e-05
-6.83506e-06
-2.89953e-05
-1.05364e-05
-2.46671e-05
-2.13107e-05
1.08693e-05
-2.40922e-05
-2.40536e-05
-8.83302e-06
-2.01083e-05
-2.58503e-05
-1.68678e-05
-1.16948e-05
-2.82992e-05
-3.03911e-05
-2.96341e-05
-3.57222e-05
-2.60677e-05
-1.75388e-05
4.9293e-06
-2.58891e-05
-2.00661e-05
-1.68643e-05
-2.20225e-05
-2.19828e-05
-2.62492e-05
-1.31318e-05
-2.46064e-05
-4.14652e-05
-2.61229e-05
-4.8361e-05
-2.79981e-05
-9.78025e-06
-6.80408e-06
-2.83345e-05
-1.16509e-05
-3.03723e-05
-2.46394e-05
-1.30929e-05
-4.14503e-05
-1.51291e-05
-1.50943e-05
-5.93511e-05
-1.6174e-05
-6.8191e-05
-2.90319e-05
-1.04932e-05
-2.96691e-05
-3.56997e-05
-2.61623e-05
-4.83438e-05
-1.62191e-05
-6.81937e-05
-7.83762e-05
-3.19414e-05
-3.18732e-05
4.30239e-05
-3.17537e-05
-3.64868e-05
1.98405e-05
-2.67537e-05
-3.99888e-05
1.07256e-05
-1.53327e-05
-4.37655e-05
-5.6421e-06
-4.66481e-05
-1.16669e-05
-3.65547e-05
-3.16735e-05
1.98539e-05
-3.75493e-05
-3.74707e-05
-6.8545e-06
-3.25052e-05
-4.2318e-05
-1.95827e-05
-2.00655e-05
-4.83386e-05
-3.82578e-05
-5.44174e-05
-4.71428e-05
-4.0054e-05
-2.66611e-05
1.07394e-05
-4.23814e-05
-3.24263e-05
-1.95813e-05
-3.79476e-05
-3.78582e-05
-3.51428e-05
-2.39171e-05
-4.68018e-05
-5.70325e-05
-5.19933e-05
-7.35796e-05
-4.38279e-05
-1.52345e-05
-5.60872e-06
-4.84069e-05
-1.99767e-05
-3.82429e-05
-4.69117e-05
-2.3791e-05
-5.70127e-05
-3.00052e-05
-2.98772e-05
-9.31823e-05
-3.30438e-05
-0.000114976
-4.67222e-05
-1.16307e-05
-5.4514e-05
-4.71272e-05
-5.21216e-05
-7.35364e-05
-3.31825e-05
-0.000114974
-0.000139671
-4.34084e-05
-4.33728e-05
6.16626e-05
-4.38073e-05
-4.98531e-05
3.31289e-05
-3.73989e-05
-5.54851e-05
2.02344e-05
-2.19805e-05
-6.15503e-05
-1.76126e-06
-6.69685e-05
-1.10057e-05
-4.98865e-05
-4.37681e-05
3.31389e-05
-5.26901e-05
-5.26533e-05
-1.25058e-06
-4.68382e-05
-6.04694e-05
-2.04503e-05
-2.84586e-05
-7.21338e-05
-4.60539e-05
-7.81449e-05
-6.34803e-05
-5.55112e-05
-3.73641e-05
2.02438e-05
-6.04899e-05
-4.68032e-05
-2.04527e-05
-5.51989e-05
-5.51469e-05
-4.57563e-05
-3.36514e-05
-6.07217e-05
-8.99921e-05
-6.43095e-05
-0.000119906
-6.15874e-05
-2.19355e-05
-1.73867e-06
-7.21769e-05
-2.84146e-05
-4.60419e-05
-6.07685e-05
-3.36052e-05
-8.99629e-05
-3.73972e-05
-3.73575e-05
-0.000139918
-4.00253e-05
-0.000174288
-6.70232e-05
-1.09792e-05
-7.82131e-05
-6.34411e-05
-6.43608e-05
-0.000119873
-4.00706e-05
-0.000174284
-0.000214634
-5.72392e-05
-5.71479e-05
8.35294e-05
-6.04797e-05
-7.01574e-05
5.43825e-05
-5.28849e-05
-8.24242e-05
3.7389e-05
-3.18413e-05
-9.21528e-05
7.59305e-06
-0.000101675
-7.61457e-06
-7.02491e-05
-6.0368e-05
5.43874e-05
-7.69177e-05
-7.6808e-05
1.20687e-05
-7.06936e-05
-9.2205e-05
-1.68935e-05
-4.38266e-05
-0.000102211
-6.28632e-05
-0.000108301
-9.99348e-05
-8.25068e-05
-5.27505e-05
3.73826e-05
-9.22835e-05
-7.05763e-05
-1.69076e-05
-7.84694e-05
-7.83685e-05
-7.34069e-05
-4.95017e-05
-8.51654e-05
-0.000136005
-9.28795e-05
-0.000183939
-9.22342e-05
-3.16961e-05
7.60822e-06
-0.000102304
-4.36981e-05
-6.28501e-05
-8.52554e-05
-4.93985e-05
-0.000135982
-5.59e-05
-5.58101e-05
-0.000198628
-6.28921e-05
-0.000258263
-0.000101803
-7.64085e-06
-0.000108394
-9.99491e-05
-9.29702e-05
-0.000183953
-6.29875e-05
-0.000258294
-0.000336271
-7.9862e-05
-7.98382e-05
0.000117694
-7.9092e-05
-8.82691e-05
7.41217e-05
-6.49561e-05
-0.000103392
5.06641e-05
-3.91465e-05
-0.000116972
1.68365e-05
-0.000129605
-6.72111e-06
-8.82902e-05
-7.90706e-05
7.41203e-05
-9.65138e-05
-9.65015e-05
2.85246e-05
-8.45086e-05
-0.000115896
-1.63951e-05
-5.24684e-05
-0.000129458
-8.24173e-05
-0.000144746
-0.000136447
-0.000103418
-6.49348e-05
5.06492e-05
-0.000115911
-8.45086e-05
-1.64076e-05
-9.90258e-05
-9.90148e-05
-0.000107173
-6.36212e-05
-0.000112473
-0.000188394
-0.000127817
-0.000263509
-0.000116994
-3.91278e-05
1.68405e-05
-0.000129468
-5.24686e-05
-8.24166e-05
-0.000112476
-6.36112e-05
-0.000188378
-7.56693e-05
-7.56714e-05
-0.000272237
-8.62599e-05
-0.000372832
-0.000129634
-6.75568e-06
-0.000144768
-0.000136474
-0.000127834
-0.000263531
-8.62739e-05
-0.000372865
-0.000502926
-0.000117937
-0.000117834
0.000177215
-0.000123191
-0.000134556
0.000116952
-0.000104264
-0.000159251
7.93996e-05
-6.32505e-05
-0.000176465
3.31232e-05
-0.000204446
2.55164e-07
-0.000134663
-0.000123069
0.000116938
-0.000146891
-0.000146773
5.29684e-05
-0.000129533
-0.000185162
-7.84157e-06
-8.58986e-05
-0.000210783
-9.17344e-05
-0.000250321
-0.000175684
-0.000159351
-0.000104116
7.93636e-05
-0.000185278
-0.000129399
-7.85534e-06
-0.000166903
-0.000166772
-0.000143936
-0.000115953
-0.000193997
-0.00025613
-0.000239597
-0.000389317
-0.000176586
-6.30624e-05
3.30934e-05
-0.000210904
-8.57409e-05
-9.17567e-05
-0.000194132
-0.000115786
-0.000256136
-0.000140343
-0.000140193
-0.000379829
-0.000179117
-0.000571035
-0.000204558
1.67196e-07
-0.000250444
-0.000175734
-0.000239728
-0.000389371
-0.000179289
-0.000571054
-0.000856093
-0.000149985
-0.00015
0.000254006
-0.000160874
-0.000173099
0.000179346
-0.000139749
-0.000212598
0.000125437
-8.66281e-05
-0.000235306
6.06039e-05
-0.000279108
1.18069e-05
-0.00017308
-0.000160905
0.000179319
-0.000196412
-0.000196448
9.96493e-05
-0.000173857
-0.000251703
8.70855e-06
-0.000120746
-0.00029484
-8.53106e-05
-0.000360485
-0.00021437
-0.000212586
-0.000139794
0.000125386
-0.000251677
-0.000173906
8.69336e-06
-0.000235349
-0.000235385
-0.000176583
-0.000167075
-0.000284833
-0.000334412
-0.000361237
-0.000554784
-0.00023529
-8.66755e-05
6.0539e-05
-0.000294798
-0.000120802
-8.53523e-05
-0.00028478
-0.00016711
-0.000334429
-0.000216189
-0.000216245
-0.000517008
-0.000273465
-0.00087162
-0.0002791
1.16884e-05
-0.000360458
-0.00021443
-0.000361206
-0.000554842
-0.000273437
-0.000871637
-0.00139529
-0.000215118
-0.00021503
0.00037788
-0.000245114
-0.00025549
0.000297367
-0.000222688
-0.000339063
0.000229581
-0.000150525
-0.000385369
0.000146275
-0.000487636
7.10043e-05
-0.000255589
-0.000245011
0.00029731
-0.000311364
-0.000311258
0.000211192
-0.000288619
-0.000431502
7.8403e-05
-0.000211011
-0.000519952
-2.8336e-05
-0.000693453
-0.00021891
-0.000339135
-0.000222573
0.000229499
-0.000431603
-0.000288493
7.83968e-05
-0.000435793
-0.000435687
-0.000168208
-0.000339239
-0.00055145
-0.000399467
-0.000806955
-0.000779852
-0.000385489
-0.000150361
0.000146142
-0.000520066
-0.000210849
-2.84192e-05
-0.000551582
-0.000339059
-0.000399541
-0.000457569
-0.000457395
-0.000705076
-0.000731484
-0.00140109
-0.000487709
7.07754e-05
-0.000693554
-0.000218993
-0.000807037
-0.000779993
-0.000731685
-0.00140103
-0.00285118
-0.000255073
-0.000255161
0.000526657
-0.000296755
-0.000307131
0.000452207
-0.000279794
-0.000432362
0.000384835
-0.000198748
-0.000500688
0.000291416
-0.000676473
0.00018557
-0.000307038
-0.000296888
0.000452139
-0.000389709
-0.000389845
0.000376577
-0.000378854
-0.000581178
0.000216364
-0.000299354
-0.000719744
0.000111219
-0.00103757
-0.000156828
-0.000432271
-0.000279967
0.000384735
-0.000581058
-0.000379021
0.000216359
-0.000614212
-0.000614357
-0.000101876
-0.000516093
-0.000829501
-0.000387829
-0.00127289
-0.00105982
-0.00050059
-0.000198945
0.000291234
-0.000719597
-0.000299536
0.000111103
-0.000829324
-0.000516248
-0.000387924
-0.000782943
-0.000783072
-0.000797887
-0.00121458
-0.00223827
-0.000676398
0.000185291
-0.00103745
-0.000156929
-0.0012727
-0.00106001
-0.00121449
-0.00223812
-0.00527011
-0.000338818
-0.000338785
0.000740265
-0.000407512
-0.000424138
0.000691126
-0.000397062
-0.000645407
0.000655533
-0.000292447
-0.00079025
0.000580081
-0.00116171
0.000497298
-0.000424204
-0.000407472
0.00069102
-0.000564088
-0.000564033
0.000656355
-0.000591749
-0.000928468
0.000527086
-0.000503685
-0.00123647
0.000469378
-0.00198877
0.00016714
-0.000645401
-0.000397056
0.000655422
-0.000928496
-0.000591686
0.000527106
-0.00110525
-0.00110529
0.000251705
-0.00100123
-0.00163452
-9.37974e-05
-0.00318542
-0.000863747
-0.000790355
-0.000292411
0.000579828
-0.00123653
-0.000503597
0.00046919
-0.00163462
-0.00100114
-9.39843e-05
-0.00172919
-0.00172888
-0.000608964
-0.00362155
-0.000759437
-0.000721451
-0.000949178
-0.00109526
-0.00116168
0.000496901
-0.00198879
0.000167028
-0.00318518
-0.000864251
-0.00362188
-0.000759374
-0.00094909
-0.00072127
-0.00109499
-0.00236538
-0.00298016
-0.0029792
-0.00416929
-0.000350316
-0.000350524
0.00095115
-0.000426792
-0.000423246
0.000949081
-0.000437037
-0.00071733
0.000998996
-0.000348387
-0.000879174
0.000986771
-0.00151827
0.00103396
-0.000423037
-0.000427078
0.000948969
-0.000586952
-0.000587241
0.000984267
-0.000666012
-0.0010981
0.000986911
-0.000640941
-0.00146402
0.00102915
-0.00295949
0.000966649
-0.000717122
-0.000437395
0.000998877
-0.00109782
-0.000666387
0.000986951
-0.00148446
-0.00148482
0.00102507
-0.00156984
-0.00243533
0.000962894
-0.00148343
0.000873794
-0.00146419
-0.00157569
-0.00174306
-0.000878971
-0.000348824
0.000986513
-0.00146373
-0.000641395
0.00102896
-0.00243491
-0.00157025
0.000962628
-0.000746016
-0.000746001
0.000193098
0.000339445
0.000339488
0.000271409
-0.00077113
-0.000716038
-0.00107835
-0.000771096
-0.000715991
-0.00107802
-0.000549235
-0.00177377
-0.000665877
-0.00151811
0.00103357
-0.00295918
0.000966575
-0.00148323
0.000872869
-0.0014639
-0.00157552
-0.00174273
-0.00177362
-0.000549225
-0.000665757
-0.00142999
-0.00142958
0.00172992
0.00173002
-0.000794098
-0.000721744
-0.000725053
-0.000724852
-0.00037961
-0.000379663
0.00116752
-0.000462276
-0.000498225
0.00124525
-0.000479984
-0.000848416
0.0013902
-0.000371527
-0.00112047
0.00150195
-0.00185703
0.00168182
-0.00049824
-0.000462324
0.00124511
-0.000692552
-0.000692581
0.00137293
-0.000795834
-0.00132043
0.0015622
-0.000762885
-0.0018741
0.00174983
-0.00360619
0.00195338
-0.000848296
-0.000480139
0.00139016
-0.00132035
-0.000795855
0.00156227
-0.00180331
-0.00180384
0.00199144
-0.0017623
-0.000863423
0.00251022
-0.00103806
-0.000723527
-0.000837436
-0.00191563
0.00327419
-0.00235597
-0.00157868
-0.00191879
-0.00112061
-0.000371676
0.00150169
-0.00187414
-0.000762998
0.00174963
-0.00086338
-0.00176295
0.00250983
-0.00103804
-0.00072347
-0.000837345
-0.00101276
-0.00101227
0.000491333
-0.00087564
-0.00288643
0.000558448
0.00104397
0.000244022
-0.00185708
0.00168177
-0.00360592
0.00195323
-0.00191572
0.00327412
-0.00235638
-0.00157838
-0.0019186
-0.00288352
-0.00087628
0.000557288
0.00104265
0.000244135
0.000964196
0.000963536
0.000475591
-0.00109293
-0.00109293
-0.000217467
-0.000268566
-0.000268897
0.0012611
-0.000295618
-0.000284166
0.00138447
-0.000291682
-0.000504994
0.00158005
-0.000220741
-0.000555217
0.00172138
-0.00102406
0.0019605
-0.000283845
-0.000296061
0.00138436
-0.000380932
-0.000381366
0.00156722
-0.000442577
-0.000717684
0.00183654
-0.000480522
-0.000816533
0.00204909
-0.00187037
0.0023161
-0.00050466
-0.000292236
0.00158005
-0.000717255
-0.000443135
0.00183664
-0.000942423
-0.00094326
0.00244219
-0.00100359
-0.00115476
0.00290961
-0.00113536
0.00398004
-0.00151534
-0.000357392
-0.000579993
-0.000554967
-0.000221451
0.00172128
-0.000816234
-0.000481233
0.00204899
-0.00115454
-0.00100458
0.00290945
-0.00051161
-0.000511145
0.00358211
-0.000379941
-0.000291896
0.000244863
-0.000378946
-0.000292075
0.000244776
-0.000770873
-0.000914762
-0.000914725
-0.00141507
-0.000432197
-0.00112311
0.000985084
-0.00107674
-0.00102387
0.00196057
-0.00186978
0.00231599
-0.00113482
0.00398047
-0.00151562
-0.000356784
-0.000579937
-0.00112183
-0.000432465
0.000984118
-0.00107578
0.000393641
0.000393286
7.37415e-05
-0.000253107
-0.000253465
-0.000354096
-0.000194863
-0.000194975
0.00127225
-0.000165695
-0.000234843
0.00142207
-0.000126213
-0.000340401
0.00158313
-2.60336e-05
-0.000374591
0.0017199
-0.000573471
0.0018772
-0.00023478
-0.000165743
0.0014219
-0.000269405
-0.000269507
0.00163651
-0.000334244
-0.000325803
0.00188678
-0.000394679
-0.000368965
0.0021039
-0.00109821
0.00244451
-0.000340252
-0.000126166
0.00158303
-0.000325679
-0.000334395
0.00188695
-0.000268954
-0.000269026
0.00232869
-0.000106327
-0.000339693
0.00271771
-0.000389054
0.00316311
-0.000374795
-2.56471e-05
0.00171954
-0.000369103
-0.000394934
0.00210384
-0.00033977
-0.000106168
0.00271726
0.000154023
0.000154925
0.000693558
0.000672118
0.000672135
0.000555889
0.00123081
-0.00065079
0.000592907
0.000942439
0.000122908
-0.000228216
-0.000280877
9.46336e-05
0.00280693
-0.000871983
-0.00148857
-0.00250675
-0.000573242
0.00187725
-0.00109822
0.00244466
-0.000388442
0.00316308
0.00123118
-0.000650564
0.00059365
0.000943053
0.000123855
-0.000227497
9.37743e-05
-0.000280745
0.00280606
-0.00148802
-0.00087188
-0.00250639
0.00108025
0.00108005
-0.00831114
0.00131911
0.0021168
0.00211648
0.00306044
-6.36937e-05
-6.41105e-05
0.00117028
-2.02702e-06
1.16678e-05
0.00133503
4.04425e-05
-1.99301e-05
0.00146276
6.50158e-05
0.00010495
0.00161861
-4.24435e-05
0.00176889
1.21421e-05
-2.53784e-06
0.00133483
5.2447e-05
5.18735e-05
0.001556
1.54201e-05
9.74335e-05
0.00180644
-9.44987e-05
0.000251976
0.00206679
-0.000149873
0.00245422
-1.95497e-05
3.98511e-05
0.00146272
9.81432e-05
1.46634e-05
0.00180647
0.000146132
0.000145321
0.00223281
9.23376e-05
0.000121704
0.00275391
-2.15267e-05
0.000176691
-7.2946e-06
0.000130022
0.00324933
-0.000202003
-5.55207e-06
-7.00377e-05
0.000105283
6.43873e-05
0.00161837
0.000252311
-9.53924e-05
0.00206687
0.000121777
9.12367e-05
0.00275379
-2.14562e-05
0.000176764
-7.21873e-06
0.000123439
0.000123356
0.000690243
0.000116966
5.3973e-07
-0.000493793
-0.00014448
-4.23139e-05
0.00176892
-0.000149664
0.00245448
0.000130021
0.00324925
-0.000201915
-5.3529e-06
-6.98148e-05
5.73275e-07
0.000116998
-0.000493681
-0.000144433
0.00173197
-7.65311e-05
-7.65305e-05
1.74566e-05
1.74192e-05
-0.00161378
-6.65256e-06
-6.89079e-06
0.00104453
8.30575e-05
5.84371e-05
0.00118543
0.000119519
0.000105571
0.00126668
0.000142142
0.000218827
0.00141868
0.000278449
0.00150875
5.87224e-05
8.28868e-05
0.00118538
0.000136755
0.000136618
0.00139979
0.000135592
0.000305816
0.00160736
4.5445e-05
0.000531263
0.0018445
0.000622182
0.00215319
0.000105919
0.000119388
0.0012666
0.000306185
0.000135542
0.00160728
0.000471018
0.000470726
0.00190307
0.000517271
0.000145547
0.00242025
-1.58356e-05
0.000363641
0.000325314
0.000238066
0.00267933
0.000112224
0.000673458
0.000683794
0.000218869
0.000142169
0.0014185
0.000531277
4.55508e-05
0.00184445
0.000145356
0.000517226
0.00242047
-1.59528e-05
0.000363512
0.000325184
0.000166341
0.00016668
0.00072591
-0.000768028
8.23964e-05
2.70535e-06
-0.0001454
0.000139721
7.65364e-06
-6.26991e-05
0.000104145
0.000109544
0.000278859
0.00150866
0.000622861
0.00215302
0.000238113
0.00267928
0.00011223
0.000673455
0.000683731
8.31274e-05
2.71911e-06
-0.00014588
0.000139683
7.60501e-06
-6.27457e-05
0.000104099
0.000109505
0.000844932
5.50934e-05
5.51943e-05
-0.000151346
-0.000151296
-0.000652577
0.000144831
0.000144364
0.000807786
0.000260786
0.000368769
0.000929861
0.000298368
0.000558666
0.000938788
0.000275549
0.000938542
0.00103714
0.0012946
0.0010173
0.000369227
0.000260318
0.000929853
0.000540824
0.000540324
0.00105664
0.000601912
0.000966804
0.00113814
0.000418944
0.00175102
0.00121499
0.00257261
0.00129002
0.000559095
0.000297872
0.000938762
0.000967319
0.000601314
0.00113806
0.00132937
0.00132878
0.00117903
0.00122275
0.00290125
0.00137664
0.00127331
0.00110556
0.00127683
0.00129982
0.00151496
0.000938993
0.000274975
0.0010371
0.0017515
0.000418279
0.00121498
0.00290186
0.00122203
0.00137687
0.000756592
0.000756311
0.000951342
0.00106133
0.000668354
0.00123093
0.00106111
0.000668179
0.00123075
-0.00055183
-0.000587946
-0.000587939
-0.000854064
0.000489603
0.00165639
-0.000429678
0.000313587
0.00129488
0.00101725
0.00257296
0.00128986
0.00127345
0.0011056
0.0012769
0.00129994
0.00151502
0.00165656
0.000489217
-0.000429584
0.000313573
-0.00703122
0.000998945
-0.00233434
-0.00233462
0.000571161
0.000596381
0.000447255
0.0005711
0.000571069
0.000596256
0.000447151
0.000570995
0.00159527
0.00159523
0.00313937
0.000145615
0.000145254
0.000623371
0.00025565
0.000300183
0.000708777
0.000285183
0.00046807
0.000674568
0.000262239
0.000733193
0.000728044
0.00100261
0.000657173
0.000300544
0.000255317
0.000708792
0.000440559
0.000440249
0.000776555
0.000450008
0.000819438
0.000777319
0.000313251
0.0012981
0.000786841
0.0018232
0.000776608
0.00046845
0.000284917
0.000674538
0.000819759
0.000449746
0.000777259
0.00106623
0.00106594
0.000686057
0.000965469
0.00206883
0.000706681
0.00365096
0.000236953
0.000733574
0.000262
0.000728038
0.00129841
0.00031305
0.000786836
0.00206922
0.000965214
0.000706786
0.00246137
0.00246087
0.000167152
0.00602053
-0.00366342
0.000556093
0.000505611
0.000930363
0.0017649
0.00100295
0.000657053
0.00182338
0.000776528
0.00365106
0.000236906
0.00602095
-0.00366316
0.000555938
0.000930217
0.000505427
0.00176467
-0.0304327
0.00744763
0.0108067
0.0108065
0.0134158
0.000197958
0.000197521
0.000468502
0.000282356
0.00041574
0.000515816
0.000293434
0.000597056
0.000461787
0.000242415
0.000915919
0.000479004
0.00118245
0.000395629
0.000416204
0.000281892
0.000515865
0.000545905
0.000545429
0.000517166
0.000558865
0.000891428
0.000469987
0.000400159
0.0014503
0.000411167
0.0020064
0.000348204
0.00059748
0.000292949
0.000461786
0.000891883
0.000558359
0.000469926
0.00107305
0.00107256
0.000323758
0.000919018
0.00208476
0.000226257
0.00328181
-0.000126857
0.000916422
0.000241863
0.00047907
0.00145082
0.000399624
0.000411174