/*--------------------------------*- C++ -*----------------------------------*\
| =========                 |                                                 |
| \\      /  F ield         | OpenFOAM: The Open Source CFD Toolbox           |
|  \\    /   O peration     | Version:  5.x                                   |
|   \\  /    A nd           | Web:      www.OpenFOAM.org                      |
|    \\/     M anipulation  |                                                 |
\*---------------------------------------------------------------------------*/
FoamFile
{
    version     2.0;
    format      ascii;
    class       volScalarField;
    location    "0.096";
    object      phiIB;
}
// * * * * * * * * * * * * * * * * * * * * * * * * * * * * * * * * * * * * * //

dimensions      [0 2 -1 0 0 0 0];

internalField   nonuniform List<scalar> 
1560
(
-0.00040799
-0.000407729
-0.000407718
-0.000407603
-0.000407652
-0.000407733
-0.000407408
-0.000407383
-0.000407234
-0.000407264
-0.000407721
-0.000407383
-0.000407364
-0.000407211
-0.000407241
-0.00040761
-0.000407237
-0.000407214
-0.000407046
-0.000407073
-0.000407659
-0.000407267
-0.000407244
-0.000407073
-0.000407104
-0.000787045
-0.000786906
-0.000786798
-0.000786717
-0.000786674
-0.00078691
-0.000786789
-0.000786683
-0.0007866
-0.000786551
-0.000786803
-0.000786685
-0.000786586
-0.000786507
-0.000786459
-0.000786726
-0.000786606
-0.000786511
-0.000786435
-0.000786388
-0.000786685
-0.00078656
-0.000786465
-0.00078639
-0.000786342
-0.00191255
-0.00191218
-0.00191203
-0.00191181
-0.00191175
-0.00191219
-0.00191177
-0.00191159
-0.00191135
-0.00191128
-0.00191204
-0.0019116
-0.00191142
-0.00191117
-0.00191109
-0.00191183
-0.00191136
-0.00191118
-0.0019109
-0.00191082
-0.00191177
-0.00191129
-0.0019111
-0.00191082
-0.00191073
-0.00243892
-0.00243857
-0.00243835
-0.00243812
-0.00243802
-0.00243857
-0.0024382
-0.00243797
-0.00243773
-0.00243762
-0.00243836
-0.00243798
-0.00243774
-0.00243749
-0.00243736
-0.00243814
-0.00243774
-0.00243749
-0.00243723
-0.00243709
-0.00243804
-0.00243763
-0.00243738
-0.0024371
-0.00243696
-0.0035014
-0.00350083
-0.00350054
-0.00350021
-0.00350008
-0.00350084
-0.00350023
-0.00349992
-0.00349955
-0.0034994
-0.00350056
-0.00349992
-0.0034996
-0.00349921
-0.00349905
-0.00350023
-0.00349957
-0.00349922
-0.00349881
-0.00349863
-0.00350011
-0.00349942
-0.00349907
-0.00349864
-0.00349845
-0.00409713
-0.00409646
-0.00409607
-0.00409567
-0.0040955
-0.00409647
-0.00409575
-0.00409534
-0.00409491
-0.00409471
-0.00409609
-0.00409535
-0.00409493
-0.00409447
-0.00409427
-0.00409571
-0.00409493
-0.00409449
-0.004094
-0.00409377
-0.00409555
-0.00409475
-0.00409429
-0.00409378
-0.00409355
-0.00509552
-0.00509457
-0.00509407
-0.00509354
-0.00509332
-0.00509459
-0.00509357
-0.00509303
-0.00509244
-0.0050922
-0.00509409
-0.00509304
-0.00509248
-0.00509187
-0.0050916
-0.00509358
-0.00509247
-0.00509188
-0.00509122
-0.00509093
-0.00509338
-0.00509224
-0.00509163
-0.00509095
-0.00509065
-0.00574598
-0.00574474
-0.00574407
-0.0057434
-0.00574313
-0.00574476
-0.00574343
-0.00574272
-0.00574197
-0.00574166
-0.00574411
-0.00574274
-0.00574199
-0.0057412
-0.00574087
-0.00574345
-0.00574201
-0.00574123
-0.00574038
-0.00574001
-0.00574321
-0.00574172
-0.00574091
-0.00574003
-0.00573965
-0.00669038
-0.0066887
-0.00668783
-0.00668695
-0.00668662
-0.00668872
-0.00668691
-0.00668598
-0.006685
-0.00668462
-0.00668787
-0.006686
-0.00668502
-0.00668399
-0.00668358
-0.00668702
-0.00668505
-0.00668403
-0.00668291
-0.00668245
-0.00668671
-0.0066847
-0.00668364
-0.00668248
-0.00668199
-0.00738134
-0.00737907
-0.00737789
-0.00737674
-0.00737632
-0.0073791
-0.00737664
-0.00737538
-0.00737408
-0.00737359
-0.00737795
-0.00737541
-0.00737408
-0.00737272
-0.00737217
-0.00737684
-0.00737415
-0.00737276
-0.00737128
-0.00737068
-0.00737645
-0.0073737
-0.00737226
-0.00737072
-0.00737008
-0.00827964
-0.0082766
-0.0082751
-0.00827364
-0.00827314
-0.00827663
-0.00827335
-0.00827174
-0.00827009
-0.00826951
-0.00827517
-0.00827177
-0.00827007
-0.00826834
-0.00826769
-0.00827375
-0.00827018
-0.00826839
-0.00826652
-0.0082658
-0.00827331
-0.00826964
-0.00826779
-0.00826585
-0.00826508
-0.00899571
-0.00899157
-0.00898961
-0.0089877
-0.00898708
-0.00899162
-0.00898709
-0.00898493
-0.00898274
-0.00898198
-0.0089897
-0.00898498
-0.00898268
-0.00898036
-0.0089795
-0.00898787
-0.00898286
-0.00898044
-0.00897789
-0.00897693
-0.00898732
-0.00898217
-0.00897965
-0.008977
-0.00897596
-0.00984966
-0.00984435
-0.00984212
-0.00983991
-0.00983929
-0.0098444
-0.00983863
-0.00983616
-0.00983365
-0.00983288
-0.00984222
-0.00983622
-0.0098336
-0.00983093
-0.00983006
-0.00984011
-0.00983381
-0.00983102
-0.00982815
-0.00982715
-0.00983959
-0.00983313
-0.00983025
-0.00982724
-0.00982612
-0.0105695
-0.0105626
-0.0105603
-0.0105578
-0.0105572
-0.0105627
-0.0105551
-0.0105524
-0.0105495
-0.0105487
-0.0105604
-0.0105525
-0.0105499
-0.0105469
-0.0105459
-0.0105581
-0.0105497
-0.010547
-0.0105434
-0.0105424
-0.0105577
-0.0105491
-0.0105461
-0.0105425
-0.0105413
-0.0113647
-0.0113569
-0.0113555
-0.0113536
-0.0113536
-0.011357
-0.0113487
-0.0113475
-0.0113458
-0.0113459
-0.0113557
-0.0113476
-0.0113473
-0.0113461
-0.0113469
-0.0113539
-0.011346
-0.0113462
-0.0113459
-0.011347
-0.0113542
-0.0113464
-0.0113473
-0.0113472
-0.0113489
-0.0120423
-0.0120322
-0.0120319
-0.0120307
-0.0120312
-0.0120323
-0.0120223
-0.0120232
-0.0120227
-0.0120245
-0.0120322
-0.0120234
-0.0120257
-0.0120277
-0.0120326
-0.0120312
-0.0120231
-0.012028
-0.0120395
-0.0120512
-0.0120319
-0.0120251
-0.0120331
-0.0120515
-0.012066
-0.0127235
-0.0127078
-0.012707
-0.0127051
-0.0127063
-0.0127079
-0.0126961
-0.0126978
-0.0126984
-0.0127012
-0.0127073
-0.012698
-0.0127013
-0.0127068
-0.0127124
-0.0127057
-0.0126989
-0.0127071
-0.0127137
-0.0127179
-0.0127073
-0.0127021
-0.0127131
-0.0127182
-0.0127223
-0.0132758
-0.0132392
-0.0132261
-0.0132191
-0.0132169
-0.0132394
-0.0132121
-0.0132074
-0.0132044
-0.0132036
-0.0132266
-0.0132077
-0.0132064
-0.0132003
-0.013196
-0.01322
-0.0132051
-0.0132008
-0.0131928
-0.0131871
-0.0132183
-0.0132048
-0.013197
-0.0131876
-0.0131799
-0.0137255
-0.0136842
-0.0136586
-0.0136361
-0.0136284
-0.0136844
-0.0136354
-0.0136122
-0.0135993
-0.013591
-0.0136592
-0.0136126
-0.0135938
-0.0135752
-0.0135637
-0.0136373
-0.0136003
-0.0135758
-0.0135551
-0.013538
-0.0136302
-0.0135927
-0.013565
-0.0135388
-0.0135142
-0.0140017
-0.0139507
-0.0139183
-0.0138897
-0.0138725
-0.013951
-0.0138903
-0.0138421
-0.0138099
-0.0137897
-0.0139191
-0.0138426
-0.0137909
-0.0137507
-0.0137217
-0.0138914
-0.0138113
-0.0137515
-0.0137052
-0.0136643
-0.0138752
-0.013792
-0.0137235
-0.0136653
-0.0136042
-0.0141504
-0.0140917
-0.0140642
-0.0140423
-0.0140296
-0.0140921
-0.0140266
-0.0139772
-0.0139436
-0.0139144
-0.0140652
-0.0139779
-0.0139094
-0.0138643
-0.0138137
-0.0140444
-0.0139454
-0.0138653
-0.0138263
-0.0137508
-0.014033
-0.0139175
-0.0138162
-0.0137523
-0.0136127
-0.0142076
-0.0141319
-0.0141059
-0.0140887
-0.0140845
-0.0141324
-0.0140447
-0.0139955
-0.0139565
-0.0139219
-0.0141073
-0.0139964
-0.0139229
-0.0138715
-0.013826
-0.0140916
-0.0139589
-0.013873
-0.0138207
-0.0137361
-0.0140891
-0.013926
-0.0138293
-0.0137382
-0.0136473
-0.0141858
-0.0141058
-0.0140769
-0.0140604
-0.01404
-0.0141063
-0.0140301
-0.0139711
-0.0139586
-0.013897
-0.0140785
-0.0139722
-0.0138785
-0.0138403
-0.0137095
-0.0140639
-0.0139615
-0.013842
-0.0138758
-0.0136572
-0.0140458
-0.0139024
-0.0137138
-0.0136599
-0.0131698
-0.0142405
-0.0141412
-0.0141271
-0.0141036
-0.0141191
-0.0141419
-0.0140223
-0.0139657
-0.0139245
-0.0138767
-0.0141291
-0.0139671
-0.0139406
-0.0138949
-0.0138852
-0.0141081
-0.0139283
-0.0138972
-0.0138861
-0.0138245
-0.0141265
-0.0138838
-0.0138908
-0.0138276
-0.0134864
-0.0141193
-0.0140205
-0.013975
-0.0139507
-0.0139185
-0.0140211
-0.0139257
-0.0138283
-0.0138167
-0.0137096
-0.0139772
-0.01383
-0.0136704
-0.0135935
-0.013409
-0.0139556
-0.0138211
-0.013596
-0.0136439
-0.0130939
-0.0139273
-0.0137186
-0.0134165
-0.0130979
-0.012643
-0.0141902
-0.0140695
-0.014077
-0.0140423
-0.0140967
-0.0140702
-0.0139388
-0.0138797
-0.0138272
-0.0138197
-0.0140792
-0.0138813
-0.0138608
-0.0137464
-0.0138514
-0.0140477
-0.0138318
-0.013749
-0.0136345
-0.0134636
-0.0141059
-0.0138289
-0.0138587
-0.0134667
-0.0132877
-0.0139114
-0.013831
-0.0138164
-0.0138464
-0.0138574
-0.0138316
-0.0137535
-0.0137437
-0.0137385
-0.0136768
-0.0138185
-0.0137454
-0.0136846
-0.0138344
-0.0139234
-0.0138512
-0.0137428
-0.0138362
-0.0139661
-0.0137272
-0.0138663
-0.0136855
-0.0139303
-0.0137283
-0.0139864
-0.0139595
-0.0138612
-0.0138833
-0.0138296
-0.0139546
-0.0138618
-0.0137651
-0.0137133
-0.0136806
-0.0136145
-0.0138852
-0.0137147
-0.0137467
-0.0135251
-0.0136113
-0.0138342
-0.0136846
-0.0135275
-0.0134668
-0.0132001
-0.0139627
-0.013622
-0.013617
-0.013201
-0.0131668
-0.0134448
-0.0133732
-0.0133155
-0.0132908
-0.0132706
-0.0133736
-0.0133493
-0.0133021
-0.0133868
-0.0133989
-0.0133171
-0.0133032
-0.0131275
-0.0130836
-0.0127811
-0.0132943
-0.0133899
-0.0130854
-0.0134464
-0.0136218
-0.0132769
-0.0134044
-0.0127854
-0.0136229
-0.0132811
-0.0135119
-0.013467
-0.0134777
-0.0134658
-0.0135436
-0.0134676
-0.0134797
-0.0134846
-0.0135064
-0.0135334
-0.013479
-0.0134855
-0.0135433
-0.0134974
-0.0136976
-0.0134688
-0.0135088
-0.013499
-0.0132954
-0.0135053
-0.0135483
-0.0135376
-0.0137008
-0.0135068
-0.0136866
-0.0127542
-0.0127559
-0.0127453
-0.0127337
-0.0127449
-0.0127562
-0.0127931
-0.0127788
-0.0128368
-0.0128167
-0.0127463
-0.0127795
-0.0127545
-0.0127367
-0.0127943
-0.0127358
-0.0128385
-0.0127378
-0.0130163
-0.0128616
-0.0127483
-0.0128197
-0.0127967
-0.0128628
-0.0126029
-0.0128017
-0.0128173
-0.012816
-0.0128166
-0.0128065
-0.0128176
-0.0128506
-0.0128384
-0.0128884
-0.0128542
-0.0128168
-0.0128389
-0.0128237
-0.0128641
-0.0127538
-0.0128184
-0.0128898
-0.0128649
-0.0130794
-0.0129926
-0.0128091
-0.0128564
-0.0127555
-0.0129934
-0.012422
-0.0117444
-0.0117583
-0.0117711
-0.0117797
-0.0117821
-0.0117584
-0.0117904
-0.0118001
-0.0118379
-0.0118233
-0.0117716
-0.0118004
-0.011806
-0.0118327
-0.0117917
-0.0117809
-0.0118389
-0.0118333
-0.0119267
-0.0118866
-0.0117839
-0.011825
-0.0117929
-0.0118872
-0.0117809
-0.011396
-0.0114083
-0.0113993
-0.0114084
-0.0114014
-0.0114085
-0.0114225
-0.0114058
-0.0114266
-0.0114091
-0.0113996
-0.011406
-0.0113659
-0.011382
-0.0113586
-0.0114092
-0.0114273
-0.0113824
-0.0114717
-0.0114708
-0.0114027
-0.0114101
-0.0113595
-0.0114712
-0.0113138
-0.00965756
-0.00965112
-0.0096278
-0.00961224
-0.00960389
-0.00965114
-0.00964567
-0.00961529
-0.00960296
-0.00959799
-0.00962788
-0.00961535
-0.00958084
-0.0095893
-0.00958196
-0.00961251
-0.00960318
-0.00958949
-0.00964553
-0.00964456
-0.00960451
-0.00959862
-0.00958251
-0.00964489
-0.00958458
-0.00865474
-0.00866141
-0.00865768
-0.00867005
-0.00867557
-0.00866139
-0.00866935
-0.00866322
-0.00868011
-0.00868694
-0.00865775
-0.00866327
-0.00865686
-0.00869635
-0.00872108
-0.00867021
-0.00868019
-0.00869643
-0.0088059
-0.00889597
-0.00867602
-0.00868738
-0.00872142
-0.00889617
-0.00899961
-0.00618223
-0.00618705
-0.00620564
-0.00623602
-0.00625361
-0.00618709
-0.00619061
-0.00621266
-0.00624973
-0.00627362
-0.00620578
-0.00621278
-0.00624872
-0.00628792
-0.00631407
-0.00623629
-0.00625001
-0.00628807
-0.00634292
-0.00638236
-0.00625397
-0.00627392
-0.00631436
-0.00638258
-0.00642942
-0.00505196
-0.00506619
-0.00508172
-0.00510964
-0.00511946
-0.00506613
-0.00508474
-0.00510424
-0.00514066
-0.00514973
-0.00508177
-0.00510436
-0.00513205
-0.00518076
-0.00521329
-0.00510969
-0.00514083
-0.00518079
-0.00526396
-0.00533559
-0.0051196
-0.00514993
-0.00521343
-0.00533572
-0.00541942
-0.00208438
-0.00208676
-0.00210175
-0.00212376
-0.00213519
-0.00208681
-0.00209482
-0.00211489
-0.00213271
-0.00213571
-0.00210183
-0.00211492
-0.00214541
-0.00216743
-0.00215762
-0.00212382
-0.00213277
-0.0021675
-0.00214646
-0.00212773
-0.00213529
-0.00213578
-0.00215772
-0.00212778
-0.00208899
-0.00110901
-0.00111903
-0.00112237
-0.00113386
-0.00113609
-0.00111891
-0.0011345
-0.00114177
-0.00115931
-0.00116478
-0.00112233
-0.00114184
-0.00115829
-0.00119302
-0.00120238
-0.00113369
-0.00115927
-0.00119292
-0.0012762
-0.00133828
-0.00113603
-0.00116484
-0.0012024
-0.00133841
-0.00144091
-0.0132573
-0.0132582
-0.0132812
-0.0125318
-0.0123295
-0.0123301
-0.0124423
-0.0153882
-0.015389
-0.0134822
-0.0121383
-0.0138356
-0.0138364
-0.0141937
-0.0114091
-0.0114098
-0.00788027
-0.0129789
-0.0116467
-0.011647
-0.0125621
-0.0128936
-0.012891
-0.01226
-0.0123886
-0.0121517
-0.0121512
-0.00926198
-0.0128675
-0.0129483
-0.0133058
-0.0125108
-0.0126223
-0.0130007
-0.0129778
-0.0129489
-0.0128693
-0.013307
-0.0125119
-0.0130013
-0.0126239
-0.0129788
-0.0158642
-0.01584
-0.0152117
-0.012307
-0.0131637
-0.0131541
-0.0144504
-0.0130779
-0.0133135
-0.0133138
-0.0133594
-0.013264
-0.0132615
-0.0132617
-0.01375
-0.0131311
-0.0133191
-0.0125988
-0.0136363
-0.0125575
-0.0135266
-0.0137504
-0.0131317
-0.0133197
-0.0125996
-0.0136367
-0.0125581
-0.0135272
-0.0138329
-0.0138271
-0.0130414
-0.0139006
-0.0144058
-0.0143073
-0.0142981
-0.0141137
-0.014466
-0.0147875
-0.0127908
-0.0129776
-0.0141023
-0.0143908
-0.0144629
-0.0141122
-0.0147676
-0.0127917
-0.0141007
-0.0129773
-0.0143838
-0.0124791
-0.0147598
-0.0140712
-0.0143944
-0.0142627
-0.0139297
-0.0146126
-0.0124741
-0.0147507
-0.0140677
-0.0143894
-0.0142492
-0.0139231
-0.014599
-0.013557
-0.0135555
-0.0147854
-0.0146562
-0.0135222
-0.0141318
-0.0141296
-0.0139154
-0.0139157
-0.0136406
-0.0143338
-0.0141677
-0.0142638
-0.0142641
-0.0136463
-0.013562
-0.0135763
-0.0132049
-0.0134023
-0.0137254
-0.0139318
-0.0135624
-0.0136486
-0.0135777
-0.0132063
-0.0137262
-0.0134044
-0.0139331
-0.0135448
-0.014272
-0.0140965
-0.014428
-0.0146349
-0.0143658
-0.0144036
-0.0135455
-0.0142726
-0.0140969
-0.0144285
-0.0146355
-0.0143661
-0.0144042
-0.013019
-0.0130174
-0.00628087
-0.0142974
-0.0169164
-0.0168907
-0.0149794
-0.0148943
-0.0155122
-0.0154965
-0.0148615
-0.0156874
-0.0149943
-0.0149815
-0.0134629
-0.0134631
-0.0154491
-0.0152728
-0.0135792
-0.0138324
-0.0138325
-0.0153552
-0.0155974
-0.0161013
-0.014896
-0.0158935
-0.0145408
-0.0158207
-0.0153486
-0.0155878
-0.0160769
-0.0148764
-0.0158855
-0.0145313
-0.0158014
-0.0155155
-0.0145403
-0.0145376
-0.0139733
-0.0161453
-0.0146673
-0.0146646
-0.0143937
-0.0137149
-0.0137151
-0.0139915
-0.0140149
-0.0141668
-0.014167
-0.0145714
-0.0147749
-0.0141723
-0.0156383
-0.0145776
-0.0153259
-0.0143813
-0.0145716
-0.0147753
-0.0141726
-0.015639
-0.014578
-0.0153262
-0.0143817
-0.013342
-0.0139011
-0.0131935
-0.013669
-0.0136938
-0.0136846
-0.0137401
-0.0139021
-0.0133437
-0.0131948
-0.0136703
-0.0136947
-0.0136859
-0.0137418
-0.0154537
-0.015437
-0.0158654
-0.0153529
-0.0138005
-0.0145621
-0.014548
-0.0134681
-0.0135019
-0.013201
-0.0138306
-0.0141417
-0.0140026
-0.0149216
-0.0135011
-0.0134716
-0.0131971
-0.0138309
-0.0140007
-0.0141402
-0.0149008
-0.0155592
-0.0141699
-0.0141699
-0.0136242
-0.015743
-0.0140211
-0.0140213
-0.0146551
-0.0154093
-0.0151454
-0.0132769
-0.0144792
-0.0143109
-0.0134862
-0.0146442
-0.0153934
-0.0151362
-0.0132698
-0.0144667
-0.0143031
-0.0134757
-0.0160463
-0.0163301
-0.0165244
-0.017033
-0.0149029
-0.0143518
-0.0160574
-0.0160361
-0.0163042
-0.0165159
-0.017025
-0.0148821
-0.0143416
-0.016035
-0.0149952
-0.0149916
-0.0170872
-0.0161835
-0.0137784
-0.0150031
-0.0150012
-0.0134434
-0.0134442
-0.013395
-0.0133258
-0.0134399
-0.0134405
-0.0132412
-0.0127521
-0.0127523
-0.0129836
-0.0114043
-0.0114176
-0.0116856
-0.0116857
-0.0135232
-0.0122469
-0.0107869
-0.0127726
-0.0127952
-0.0130038
-0.012858
-0.0122476
-0.0135255
-0.0107883
-0.0127744
-0.0130043
-0.0127978
-0.0128593
-0.0122108
-0.0128419
-0.0135072
-0.0110061
-0.010249
-0.0117153
-0.0113588
-0.0122113
-0.0128423
-0.0135078
-0.0110061
-0.0102499
-0.011716
-0.011359
-0.013702
-0.0137505
-0.0137178
-0.0135876
-0.0135075
-0.0137226
-0.0137577
-0.0137031
-0.0137518
-0.0137187
-0.0135895
-0.0135091
-0.0137241
-0.0137595
-0.0118856
-0.0118864
-0.0106712
-0.0126765
-0.0115095
-0.0115099
-0.00571601
-0.0129819
-0.00728185
-0.00727922
-0.0110908
-0.0101134
-0.0121284
-0.0121201
-0.0131665
-0.0131665
-0.0128612
-0.00947529
-0.0129618
-0.0124346
-0.0124349
-0.0143036
-0.0135168
-0.0106892
-0.0121173
-0.011833
-0.0129873
-0.0148099
-0.0142961
-0.0135112
-0.0106869
-0.0121079
-0.0118034
-0.0129884
-0.014795
-0.0146997
-0.0141015
-0.0138374
-0.0156163
-0.0154399
-0.0137063
-0.0138074
-0.014689
-0.0140887
-0.0138299
-0.0155992
-0.0154294
-0.0137004
-0.0137977
-0.0130317
-0.0133441
-0.0133484
-0.0134254
-0.0122173
-0.014144
-0.0141443
-0.0135692
-0.0135268
-0.0137434
-0.0134655
-0.0136114
-0.0136339
-0.0134621
-0.0135697
-0.0135271
-0.0137439
-0.0134663
-0.0136125
-0.0136348
-0.0134628
-0.0118302
-0.00717343
-0.00717355
-0.0101806
-0.00759606
-0.011927
-0.011927
-0.0091283
-0.0121381
-0.00844843
-0.0109135
-0.0092314
-0.0117694
-0.00933952
-0.00912804
-0.0121384
-0.0084486
-0.0109145
-0.00923133
-0.01177
-0.00933956
-0.0129928
-0.0123077
-0.0124588
-0.0120641
-0.0121642
-0.0125928
-0.0123842
-0.0129937
-0.0123096
-0.0124605
-0.0120651
-0.0121651
-0.0125944
-0.012386
-0.0136538
-0.0136546
-0.0134866
-0.0137416
-0.0138216
-0.0138222
-0.0137166
-0.0148403
-0.0134912
-0.0137316
-0.0141653
-0.0146459
-0.0140505
-0.0137859
-0.0148361
-0.0134894
-0.0137282
-0.0141631
-0.0146418
-0.0140483
-0.0137851
-0.00978787
-0.0120026
-0.0120029
-0.0126075
-0.0102994
-0.0119784
-0.0119788
-0.00828828
-0.00828958
-0.00832049
-0.0104808
-0.00764714
-0.00916063
-0.00915645
-0.0129901
-0.0133259
-0.0132023
-0.0135641
-0.0134874
-0.0129816
-0.0125222
-0.0133279
-0.0129959
-0.0132058
-0.0135675
-0.0129833
-0.0134956
-0.0125232
-0.012974
-0.014597
-0.0140512
-0.0136406
-0.0132788
-0.0133107
-0.0134712
-0.0129625
-0.0145885
-0.0140456
-0.0136395
-0.0132799
-0.0133096
-0.0134688
-0.0117717
-0.00888278
-0.00966381
-0.0118098
-0.0124496
-0.0124904
-0.0114057
-0.0117896
-0.00887069
-0.0096625
-0.0118262
-0.0124468
-0.0124856
-0.0114051
-0.0131692
-0.0131699
-0.012323
-0.0131873
-0.013403
-0.0134039
-0.0125879
-0.0123353
-0.0129458
-0.0129202
-0.0127003
-0.0117044
-0.0127774
-0.0129601
-0.0123361
-0.0129469
-0.0129214
-0.0127007
-0.0117051
-0.0127785
-0.0129609
-0.012448
-0.0124476
-0.0111035
-0.0127623
-0.0125284
-0.0128837
-0.0128741
-0.00817687
-0.00817685
-0.0083104
-0.0152788
-0.0125443
-0.0150253
-0.0150253
)
;

boundaryField
{
    inlet
    {
        type            fixedValue;
        value           uniform 0;
    }
    wall
    {
        type            zeroGradient;
    }
    outlet
    {
        type            fixedValue;
        value           uniform 0;
    }
    procBoundary0to1
    {
        type            processor;
        value           nonuniform List<scalar> 
320
(
-0.000407598
-0.000407192
-0.000407167
-0.000406987
-0.000407016
-0.000786641
-0.000786512
-0.000786418
-0.000786344
-0.000786297
-0.00191166
-0.00191116
-0.00191096
-0.00191067
-0.00191058
-0.00243792
-0.0024375
-0.00243723
-0.00243695
-0.00243681
-0.00349994
-0.00349923
-0.00349886
-0.00349841
-0.00349821
-0.00409535
-0.00409453
-0.00409407
-0.00409354
-0.00409329
-0.00509315
-0.00509196
-0.00509134
-0.00509063
-0.00509032
-0.00574294
-0.00574141
-0.00574058
-0.00573967
-0.00573927
-0.00668641
-0.00668432
-0.00668324
-0.00668202
-0.00668151
-0.00737609
-0.00737326
-0.00737179
-0.0073702
-0.00736954
-0.00827289
-0.00826912
-0.00826723
-0.00826521
-0.00826442
-0.0089868
-0.00898154
-0.00897898
-0.00897625
-0.00897521
-0.009839
-0.00983235
-0.00982941
-0.00982627
-0.00982516
-0.0105569
-0.0105481
-0.0105451
-0.0105414
-0.0105402
-0.0113532
-0.011345
-0.0113458
-0.0113459
-0.0113479
-0.0120305
-0.0120234
-0.0120318
-0.0120505
-0.0120652
-0.0127054
-0.0126999
-0.0127111
-0.0127161
-0.0127204
-0.0132154
-0.0132013
-0.013193
-0.0131828
-0.0131751
-0.0136273
-0.0135887
-0.0135605
-0.0135336
-0.013509
-0.0138713
-0.0137868
-0.0137177
-0.0136585
-0.013597
-0.0140285
-0.0139111
-0.0138092
-0.0137446
-0.0136056
-0.0140822
-0.0139166
-0.0138191
-0.0137259
-0.0136341
-0.0140374
-0.0138917
-0.0137022
-0.0136483
-0.0131584
-0.0141145
-0.0138674
-0.0138712
-0.0138046
-0.0134616
-0.0139138
-0.0137014
-0.0133934
-0.0129865
-0.0118787
-0.0140899
-0.0138143
-0.0138285
-0.0134688
-0.0130096
-0.01385
-0.0136654
-0.0139095
-0.0141005
-0.0158731
-0.0139481
-0.0136109
-0.013596
-0.0131855
-0.0128746
-0.013267
-0.013395
-0.0127729
-0.0135112
-0.0113963
-0.0135426
-0.0135314
-0.0136923
-0.0136368
-0.015376
-0.0127462
-0.0128178
-0.0127898
-0.012863
-0.0132607
-0.0128074
-0.0128551
-0.012753
-0.0129876
-0.0124463
-0.0117894
-0.0118312
-0.011805
-0.011896
-0.0117841
-0.0114113
-0.0114243
-0.0113756
-0.0114817
-0.0113123
-0.00961581
-0.00961358
-0.00960275
-0.00965543
-0.00959143
-0.00868769
-0.00870045
-0.00873145
-0.00890612
-0.00900257
-0.00625398
-0.00627379
-0.00632363
-0.00639359
-0.00643578
-0.00511699
-0.00514383
-0.00521734
-0.0053509
-0.00542633
-0.00213437
-0.00213213
-0.00214783
-0.00212985
-0.0020913
-0.00113967
-0.00116569
-0.00119392
-0.0013245
-0.00143755
-0.0132804
-0.0124522
-0.0123373
-0.0134547
-0.0141918
-0.0138394
-0.00768077
-0.0124842
-0.0116588
-0.012335
-0.00897244
-0.0121293
-0.0132995
-0.0129785
-0.0126259
-0.0152205
-0.0144187
-0.0131538
-0.0133608
-0.013262
-0.0133138
-0.0133242
-0.0135363
-0.0126016
-0.0138014
-0.014275
-0.0143661
-0.0147847
-0.0143771
-0.0129558
-0.0142554
-0.0146047
-0.0147518
-0.0139154
-0.0142627
-0.0141644
-0.0135705
-0.0139309
-0.0133979
-0.014632
-0.0144043
-0.0142718
-0.00632421
-0.0149984
-0.0169329
-0.0148472
-0.0149741
-0.0155194
-0.0161104
-0.0158197
-0.0148954
-0.0139825
-0.014163
-0.0137011
-0.0141684
-0.014385
-0.0156453
-0.0133423
-0.0137357
-0.0136656
-0.0154727
-0.01458
-0.013821
-0.0132027
-0.0149333
-0.0141148
-0.0154029
-0.0134939
-0.0144859
-0.014921
-0.016077
-0.0163513
-0.0127245
-0.0116172
-0.0111958
-0.0107903
-0.0128651
-0.0127839
-0.0102635
-0.0113808
-0.0128633
-0.0137539
-0.0137568
-0.013579
-0.0106583
-0.00576888
-0.0115048
-0.0111125
-0.0121378
-0.00728201
-0.0106872
-0.0148157
-0.0121298
-0.0141105
-0.0138205
-0.0156245
-0.0096594
-0.0118461
-0.00708328
-0.00846294
-0.00939416
-0.0109398
-0.0123061
-0.0123806
-0.012066
-0.00828092
-0.00916592
-0.0076807
-0.0131898
-0.0125159
-0.0134705
-0.0145999
-0.0134627
-0.0132828
-0.0124422
-0.0114123
-0.00888131
-0.00808379
-0.0149983
-0.012325
)
;
    }
    procBoundary0to2
    {
        type            processor;
        value           nonuniform List<scalar> 
320
(
-0.000407608
-0.000407198
-0.000407172
-0.000406989
-0.000407019
-0.000786656
-0.000786524
-0.000786427
-0.00078635
-0.0007863
-0.00191168
-0.00191118
-0.00191098
-0.00191068
-0.00191058
-0.00243795
-0.00243753
-0.00243726
-0.00243696
-0.00243681
-0.00349998
-0.00349926
-0.00349889
-0.00349843
-0.00349822
-0.00409542
-0.00409459
-0.00409411
-0.00409357
-0.00409331
-0.00509323
-0.00509203
-0.0050914
-0.00509067
-0.00509034
-0.00574305
-0.0057415
-0.00574066
-0.00573972
-0.0057393
-0.00668654
-0.00668443
-0.00668333
-0.00668209
-0.00668155
-0.00737628
-0.00737342
-0.00737192
-0.00737029
-0.00736959
-0.00827312
-0.00826932
-0.0082674
-0.00826532
-0.00826448
-0.00898713
-0.00898183
-0.00897922
-0.00897641
-0.0089753
-0.00983941
-0.00983271
-0.00982972
-0.00982648
-0.00982527
-0.0105575
-0.0105486
-0.0105455
-0.0105417
-0.0105404
-0.0113539
-0.0113456
-0.0113464
-0.0113463
-0.0113481
-0.0120316
-0.0120244
-0.0120326
-0.0120511
-0.0120655
-0.0127069
-0.0127012
-0.0127122
-0.0127169
-0.0127208
-0.0132176
-0.0132032
-0.0131947
-0.0131841
-0.0131759
-0.01363
-0.0135912
-0.0135628
-0.0135352
-0.0135099
-0.0138752
-0.0137904
-0.0137208
-0.0136609
-0.0135984
-0.0140334
-0.0139157
-0.0138133
-0.0137479
-0.0136076
-0.014089
-0.013923
-0.0138249
-0.0137308
-0.0136378
-0.014046
-0.0139001
-0.0137098
-0.0136552
-0.0131647
-0.0141262
-0.0138791
-0.0138826
-0.0138145
-0.0134742
-0.0139274
-0.0137168
-0.0134116
-0.0129978
-0.0118892
-0.0141046
-0.0138301
-0.0138501
-0.0134845
-0.0130099
-0.0138636
-0.0136803
-0.0139289
-0.0141035
-0.0158269
-0.0139604
-0.0136234
-0.013608
-0.0131888
-0.0128683
-0.0132764
-0.0134039
-0.0127803
-0.0135139
-0.011397
-0.0135499
-0.013538
-0.0136975
-0.0136399
-0.0153768
-0.0127513
-0.0128224
-0.0127936
-0.0128657
-0.0132621
-0.0128115
-0.0128586
-0.0127559
-0.0129895
-0.0124474
-0.011792
-0.0118335
-0.011807
-0.0118973
-0.0117849
-0.0114133
-0.0114261
-0.0113771
-0.0114827
-0.0113128
-0.009617
-0.00961473
-0.00960374
-0.00965611
-0.00959177
-0.00868853
-0.00870123
-0.00873209
-0.00890655
-0.00900275
-0.00625467
-0.00627442
-0.00632409
-0.00639381
-0.00643587
-0.0051172
-0.0051441
-0.00521753
-0.00535104
-0.00542637
-0.00213459
-0.00213231
-0.00214798
-0.00212989
-0.00209134
-0.00113948
-0.00116563
-0.0011938
-0.00132443
-0.00143745
-0.0123384
-0.0124528
-0.0132809
-0.0138407
-0.0141922
-0.0134548
-0.0116596
-0.0124843
-0.00768037
-0.0121283
-0.00897182
-0.0123302
-0.0126283
-0.0129803
-0.0133015
-0.0131374
-0.0144105
-0.0151986
-0.0133145
-0.0132625
-0.0133612
-0.0126029
-0.0135372
-0.0133252
-0.0143535
-0.0142526
-0.013787
-0.0129586
-0.0143635
-0.0147513
-0.0147353
-0.0145786
-0.0142315
-0.0141646
-0.0142631
-0.013916
-0.0134011
-0.0139326
-0.0135723
-0.0142728
-0.0144051
-0.014633
-0.0168822
-0.014975
-0.00632261
-0.0154788
-0.0149427
-0.0148299
-0.0148602
-0.0157811
-0.0160596
-0.0137015
-0.0141634
-0.0139827
-0.0156464
-0.0143855
-0.0141689
-0.0136673
-0.0137379
-0.0133445
-0.0138017
-0.0145427
-0.0154284
-0.0141186
-0.0148957
-0.0132002
-0.0144673
-0.0134782
-0.0153768
-0.0162949
-0.016027
-0.0148771
-0.0111958
-0.0116172
-0.0127248
-0.0127876
-0.0128666
-0.0107922
-0.0128638
-0.011381
-0.0102647
-0.0135814
-0.0137592
-0.0137557
-0.0115172
-0.00577013
-0.0106647
-0.00727952
-0.0121196
-0.0111025
-0.0121144
-0.0147939
-0.0106848
-0.0155939
-0.0138041
-0.014089
-0.00708339
-0.0118455
-0.00965909
-0.0109412
-0.00939402
-0.00846296
-0.0120672
-0.0123826
-0.0123083
-0.00768663
-0.00917095
-0.00828436
-0.0134846
-0.0125228
-0.0131979
-0.0132871
-0.0134613
-0.0145886
-0.00888729
-0.0114245
-0.0124505
-0.012324
-0.014997
-0.00808318
)
;
    }
}


// ************************************************************************* //
