/*--------------------------------*- C++ -*----------------------------------*\
| =========                 |                                                 |
| \\      /  F ield         | OpenFOAM: The Open Source CFD Toolbox           |
|  \\    /   O peration     | Version:  5.x                                   |
|   \\  /    A nd           | Web:      www.OpenFOAM.org                      |
|    \\/     M anipulation  |                                                 |
\*---------------------------------------------------------------------------*/
FoamFile
{
    version     2.0;
    format      ascii;
    class       volVectorField;
    location    "0.096";
    object      U;
}
// * * * * * * * * * * * * * * * * * * * * * * * * * * * * * * * * * * * * * //

dimensions      [0 1 -1 0 0 0 0];

internalField   nonuniform List<vector> 
1560
(
(-8.46044e-05 -8.40235e-05 0.0607445)
(-8.92567e-05 -9.98298e-05 0.060698)
(-6.64232e-05 -0.000105178 0.060707)
(-6.62619e-05 -0.000112702 0.0606853)
(-3.22904e-05 -0.000116105 0.0606956)
(-0.000100411 -8.83284e-05 0.0606983)
(-0.000109822 -0.000108893 0.060619)
(-7.89543e-05 -0.000116062 0.0606158)
(-7.69173e-05 -0.000125829 0.0605912)
(-4.0291e-05 -0.0001301 0.060599)
(-0.000105758 -6.54581e-05 0.0607072)
(-0.000116991 -7.79885e-05 0.0606157)
(-8.33605e-05 -8.23927e-05 0.0606069)
(-8.0299e-05 -9.01164e-05 0.0605813)
(-4.27109e-05 -9.33503e-05 0.060589)
(-0.000113282 -6.50986e-05 0.0606858)
(-0.000126755 -7.57544e-05 0.0605914)
(-9.10822e-05 -7.91344e-05 0.0605816)
(-8.78749e-05 -8.67097e-05 0.0605555)
(-4.91953e-05 -8.97297e-05 0.0605633)
(-0.000116686 -3.10994e-05 0.060696)
(-0.000131027 -3.9102e-05 0.0605992)
(-9.43157e-05 -4.15201e-05 0.0605892)
(-9.08943e-05 -4.80109e-05 0.0605633)
(-5.17601e-05 -5.05747e-05 0.0605722)
(-2.25835e-05 -2.201e-05 -0.0384887)
(-3.45834e-05 -9.56394e-06 -0.0384841)
(-3.60974e-05 -5.91576e-06 -0.0384882)
(-3.90698e-05 -2.52598e-06 -0.0384873)
(-3.18932e-05 -1.30166e-06 -0.0384911)
(-1.01375e-05 -3.36266e-05 -0.038484)
(-1.91114e-05 -1.81707e-05 -0.0384712)
(-2.93505e-05 -1.35775e-05 -0.0384726)
(-3.46459e-05 -9.75823e-06 -0.0384696)
(-3.05287e-05 -8.64185e-06 -0.0384726)
(-6.50554e-06 -3.50533e-05 -0.0384881)
(-1.45343e-05 -2.83332e-05 -0.0384725)
(-2.76937e-05 -2.66694e-05 -0.0384727)
(-3.41401e-05 -2.55821e-05 -0.0384692)
(-3.0967e-05 -2.59102e-05 -0.0384719)
(-3.12657e-06 -3.78692e-05 -0.0384871)
(-1.07187e-05 -3.34649e-05 -0.0384695)
(-2.65994e-05 -3.29485e-05 -0.0384691)
(-3.38868e-05 -3.26994e-05 -0.0384651)
(-3.20193e-05 -3.3622e-05 -0.0384678)
(-1.91116e-06 -3.06453e-05 -0.0384909)
(-9.60755e-06 -2.92934e-05 -0.0384724)
(-2.69281e-05 -2.97303e-05 -0.0384718)
(-3.48136e-05 -3.07867e-05 -0.0384678)
(-3.35569e-05 -3.23248e-05 -0.0384707)
(-8.17473e-05 -8.11177e-05 0.0481276)
(-9.09607e-05 -8.82948e-05 0.0480843)
(-7.14378e-05 -9.06556e-05 0.0480832)
(-7.08843e-05 -9.63107e-05 0.0480558)
(-3.57846e-05 -9.88222e-05 0.0480572)
(-8.89243e-05 -8.99352e-05 0.0480845)
(-0.000100254 -9.92288e-05 0.0480299)
(-7.92598e-05 -0.000102304 0.0480253)
(-7.88598e-05 -0.000109655 0.0479933)
(-4.25942e-05 -0.000112858 0.0479928)
(-9.12855e-05 -7.03467e-05 0.0480835)
(-0.000103329 -7.81692e-05 0.0480254)
(-8.18633e-05 -8.07717e-05 0.0480197)
(-8.14379e-05 -8.75687e-05 0.0479864)
(-4.48433e-05 -9.05681e-05 0.0479856)
(-9.69407e-05 -6.95916e-05 0.0480564)
(-0.000110679 -7.75692e-05 0.0479936)
(-8.86593e-05 -8.0148e-05 0.0479867)
(-8.86563e-05 -8.73677e-05 0.0479508)
(-5.14248e-05 -9.05202e-05 0.0479491)
(-9.94541e-05 -3.4451e-05 0.0480579)
(-0.000113887 -4.12647e-05 0.0479932)
(-9.16619e-05 -4.35135e-05 0.047986)
(-9.181e-05 -5.00996e-05 0.0479492)
(-5.43964e-05 -5.30711e-05 0.0479475)
(-6.78218e-05 -6.70141e-05 -0.0260532)
(-7.92559e-05 -6.60431e-05 -0.0260817)
(-6.46449e-05 -6.60142e-05 -0.0260872)
(-6.51756e-05 -6.71351e-05 -0.0261067)
(-3.59056e-05 -6.78372e-05 -0.0261105)
(-6.68509e-05 -7.79985e-05 -0.0260815)
(-7.83554e-05 -7.71034e-05 -0.0261096)
(-6.57661e-05 -7.71471e-05 -0.0261149)
(-6.70036e-05 -7.891e-05 -0.026135)
(-3.86427e-05 -7.99482e-05 -0.0261391)
(-6.68272e-05 -6.32917e-05 -0.0260869)
(-7.84045e-05 -6.44246e-05 -0.0261148)
(-6.64537e-05 -6.51089e-05 -0.0261201)
(-6.79786e-05 -6.7862e-05 -0.0261404)
(-3.98865e-05 -6.93984e-05 -0.0261445)
(-6.79546e-05 -6.36012e-05 -0.0261062)
(-8.01705e-05 -6.54404e-05 -0.0261347)
(-6.92035e-05 -6.64092e-05 -0.0261402)
(-7.12932e-05 -6.97321e-05 -0.0261618)
(-4.37238e-05 -7.15578e-05 -0.0261664)
(-6.86614e-05 -3.42684e-05 -0.0261098)
(-8.12106e-05 -3.70239e-05 -0.0261386)
(-7.07453e-05 -3.82685e-05 -0.0261441)
(-7.31271e-05 -4.2111e-05 -0.0261663)
(-4.58341e-05 -4.42166e-05 -0.0261711)
(-0.000111464 -0.000110619 0.0374713)
(-0.000124683 -0.000117677 0.0374086)
(-9.63538e-05 -0.000119898 0.0374013)
(-9.40674e-05 -0.000126483 0.0373594)
(-4.11319e-05 -0.000129291 0.037356)
(-0.000118522 -0.000123354 0.0374089)
(-0.000133729 -0.000132402 0.0373396)
(-0.00010495 -0.000135233 0.0373303)
(-0.000103243 -0.00014375 0.0372836)
(-4.92472e-05 -0.000147318 0.0372785)
(-0.000120745 -9.49309e-05 0.0374018)
(-0.000136562 -0.000103531 0.0373304)
(-0.0001077 -0.000106278 0.0373207)
(-0.000106151 -0.000114677 0.0372727)
(-5.19327e-05 -0.000118251 0.0372672)
(-0.000127332 -9.23979e-05 0.0373603)
(-0.000145078 -0.000101581 0.0372842)
(-0.000116096 -0.000104488 0.0372731)
(-0.000115216 -0.000113558 0.0372215)
(-6.04259e-05 -0.000117405 0.0372146)
(-0.000130146 -3.94116e-05 0.0373571)
(-0.000148654 -4.75318e-05 0.0372793)
(-0.000119677 -5.02134e-05 0.0372678)
(-0.000119067 -5.87168e-05 0.0372149)
(-6.42172e-05 -6.25091e-05 0.0372077)
(-0.000133751 -0.000132613 -0.0166461)
(-0.0001497 -0.000138186 -0.016719)
(-0.000113926 -0.000140099 -0.0167305)
(-0.000110553 -0.000145792 -0.0167784)
(-4.41568e-05 -0.00014822 -0.016785)
(-0.000139324 -0.000147959 -0.0167187)
(-0.000157018 -0.00015528 -0.0167955)
(-0.000121368 -0.000157689 -0.016808)
(-0.0001185 -0.000165186 -0.0168594)
(-5.14856e-05 -0.00016825 -0.0168674)
(-0.00014124 -0.00011204 -0.01673)
(-0.000159429 -0.000119498 -0.0168078)
(-0.000123831 -0.000121956 -0.0168206)
(-0.000121113 -0.00012964 -0.0168731)
(-5.38789e-05 -0.000132895 -0.0168815)
(-0.000146947 -0.000108363 -0.0167774)
(-0.000166935 -0.000116318 -0.0168588)
(-0.00013151 -0.00011893 -0.0168727)
(-0.000129439 -0.000127266 -0.0169291)
(-6.18529e-05 -0.000130778 -0.0169387)
(-0.000149369 -4.18473e-05 -0.0167838)
(-0.000169997 -4.92298e-05 -0.0168666)
(-0.000134779 -5.16156e-05 -0.0168809)
(-0.00013296 -5.96028e-05 -0.0169385)
(-6.53493e-05 -6.30718e-05 -0.0169486)
(-0.000187682 -0.000186475 0.0294255)
(-0.000208722 -0.000197864 0.0293136)
(-0.000155556 -0.000201308 0.0292971)
(-0.000148573 -0.000211919 0.0292229)
(-5.06424e-05 -0.00021611 0.029214)
(-0.000199071 -0.000206885 0.0293142)
(-0.000223152 -0.000221318 0.0291939)
(-0.000169251 -0.000225671 0.0291746)
(-0.000163009 -0.000239204 0.0290936)
(-6.27983e-05 -0.000244508 0.0290821)
(-0.000202519 -0.000153571 0.0292978)
(-0.000227509 -0.000167281 0.0291748)
(-0.000173437 -0.000171458 0.0291547)
(-0.000167406 -0.000184795 0.0290717)
(-6.66636e-05 -0.000190033 0.0290595)
(-0.000213142 -0.000146271 0.0292243)
(-0.000241044 -0.000160719 0.0290945)
(-0.000186764 -0.000165117 0.0290723)
(-0.000181584 -0.000179297 0.0289836)
(-7.97416e-05 -0.000184887 0.0289692)
(-0.000217334 -4.823e-05 0.0292157)
(-0.000246359 -6.04345e-05 0.0290833)
(-0.000192014 -6.42578e-05 0.0290605)
(-0.000187176 -7.74046e-05 0.0289695)
(-8.52067e-05 -8.28418e-05 0.0289545)
(-0.000251561 -0.000249902 -0.00960937)
(-0.000278771 -0.000263627 -0.00975866)
(-0.000204703 -0.000268232 -0.00978311)
(-0.000193613 -0.000280561 -0.00987956)
(-5.78321e-05 -0.00028557 -0.00989302)
(-0.000265286 -0.00027627 -0.00975814)
(-0.0002966 -0.000294104 -0.009917)
(-0.000221196 -0.000299839 -0.00994437)
(-0.000210513 -0.000315873 -0.0100492)
(-7.14863e-05 -0.000322097 -0.0100655)
(-0.000269896 -0.000201961 -0.00978238)
(-0.000302339 -0.000218475 -0.00994417)
(-0.000226466 -0.000223738 -0.0099726)
(-0.000215866 -0.000239185 -0.0100799)
(-7.55755e-05 -0.000245313 -0.0100972)
(-0.000282241 -0.000190435 -0.00987824)
(-0.000318383 -0.000207359 -0.0100484)
(-0.000241906 -0.000212707 -0.0100793)
(-0.000232089 -0.000228947 -0.0101944)
(-8.98616e-05 -0.000235348 -0.0102144)
(-0.000287257 -5.44415e-05 -0.00989137)
(-0.000324617 -6.81523e-05 -0.0100644)
(-0.000248054 -7.22316e-05 -0.0100963)
(-0.000238506 -8.65717e-05 -0.0102141)
(-9.55208e-05 -9.21459e-05 -0.0102351)
(-0.000343835 -0.000342106 0.0235752)
(-0.00038204 -0.000364074 0.0233623)
(-0.00027645 -0.000370731 0.023326)
(-0.000258598 -0.000390354 0.0231865)
(-6.70603e-05 -0.00039753 0.0231668)
(-0.000365803 -0.000379472 0.0233631)
(-0.000409797 -0.000407238 0.0231341)
(-0.000301979 -0.000415757 0.0230915)
(-0.00028466 -0.000440539 0.0229394)
(-8.72843e-05 -0.000449706 0.0229146)
(-0.000372469 -0.000273654 0.0233271)
(-0.000418325 -0.000299211 0.0230918)
(-0.000309739 -0.00030696 0.0230473)
(-0.000292537 -0.000330607 0.0228905)
(-9.34742e-05 -0.000339474 0.0228642)
(-0.00039211 -0.000255374 0.0231887)
(-0.000443115 -0.000281472 0.0229407)
(-0.000333375 -0.000289339 0.0228915)
(-0.000317175 -0.000313998 0.0227242)
(-0.000114577 -0.000323277 0.0226934)
(-0.000399304 -6.36514e-05 0.0231695)
(-0.000452301 -8.39425e-05 0.0229164)
(-0.000342264 -9.01219e-05 0.0228657)
(-0.000326475 -0.000111283 0.022694)
(-0.000123047 -0.000119726 0.0226617)
(-0.0004757 -0.000473243 -0.00443474)
(-0.000528907 -0.000502877 -0.00472758)
(-0.000380473 -0.000513719 -0.00478126)
(-0.000352607 -0.000538699 -0.00496824)
(-8.14022e-05 -0.000548934 -0.00499763)
(-0.000505333 -0.000525257 -0.00472689)
(-0.000568179 -0.000564538 -0.00504107)
(-0.000415272 -0.00057824 -0.00510237)
(-0.000386846 -0.000611228 -0.00530744)
(-0.000106149 -0.000624017 -0.00534296)
(-0.000516184 -0.000376404 -0.00478029)
(-0.00058189 -0.000411242 -0.00510211)
(-0.000427145 -0.000423103 -0.00516681)
(-0.000398369 -0.000453697 -0.00537753)
(-0.000113314 -0.000465727 -0.00541577)
(-0.000541196 -0.000347902 -0.00496646)
(-0.000614896 -0.000382196 -0.00530638)
(-0.000457726 -0.000393712 -0.00537672)
(-0.000429471 -0.000424842 -0.0056033)
(-0.000138383 -0.000437152 -0.00564616)
(-0.000551454 -7.62784e-05 -0.00499542)
(-0.000627715 -0.000101135 -0.0053415)
(-0.00046979 -0.000108286 -0.00541456)
(-0.000441809 -0.000133442 -0.0056458)
(-0.000147884 -0.000142901 -0.00569099)
(-0.000650547 -0.000648128 0.0195075)
(-0.000728085 -0.000693279 0.0190964)
(-0.000517204 -0.000708147 0.0190137)
(-0.000475265 -0.000746886 0.018746)
(-9.72819e-05 -0.000760435 0.0187005)
(-0.000695699 -0.000724553 0.0190976)
(-0.000786077 -0.00078257 0.0186505)
(-0.000569089 -0.00080242 0.0185503)
(-0.000525933 -0.00085134 0.0182557)
(-0.000132684 -0.000869386 0.0181969)
(-0.00071059 -0.000513319 0.0190154)
(-0.000805951 -0.000565263 0.0185508)
(-0.000585943 -0.000582089 0.0184441)
(-0.000542206 -0.000627304 0.0181368)
(-0.000143672 -0.000643527 0.0180734)
(-0.000749364 -0.000470792 0.0187492)
(-0.000854878 -0.000521547 0.0182576)
(-0.00063113 -0.000537795 0.0181383)
(-0.000587373 -0.000583021 0.0178088)
(-0.000179297 -0.000599271 0.0177339)
(-0.000762965 -9.24999e-05 0.0187045)
(-0.000872979 -0.000128041 0.0181996)
(-0.000647415 -0.000139004 0.0180756)
(-0.000603683 -0.000174742 0.0177346)
(-0.000193124 -0.000188506 0.0176555)
(-0.000908514 -0.000904882 -0.000626344)
(-0.00102415 -0.000970634 -0.00119441)
(-0.000730753 -0.000999109 -0.00131597)
(-0.000665384 -0.00105148 -0.00167524)
(-0.000127812 -0.00107541 -0.00174362)
(-0.000974265 -0.00101882 -0.00119359)
(-0.00111542 -0.00111011 -0.00180825)
(-0.00080914 -0.00114741 -0.00195165)
(-0.000739434 -0.00121957 -0.00234969)
(-0.00017551 -0.00125029 -0.00243299)
(-0.00100276 -0.000724688 -0.0013148)
(-0.00115273 -0.000803155 -0.00195134)
(-0.000840157 -0.000834138 -0.00210704)
(-0.000768227 -0.000899576 -0.00251966)
(-0.000189546 -0.000927703 -0.00261258)
(-0.00105519 -0.000658371 -0.00167307)
(-0.00122492 -0.000732547 -0.00234841)
(-0.000905562 -0.000761331 -0.00251863)
(-0.000833005 -0.000826187 -0.00296275)
(-0.00023645 -0.000854086 -0.00306377)
(-0.00107919 -0.000119968 -0.00174085)
(-0.00125573 -0.000167907 -0.00243119)
(-0.000933792 -0.000181899 -0.00261105)
(-0.000860982 -0.000229001 -0.00306337)
(-0.000253312 -0.000245757 -0.00317139)
(-0.00124623 -0.001243 0.0169222)
(-0.00141725 -0.00133818 0.0161315)
(-0.000998219 -0.00137628 0.015937)
(-0.000903442 -0.00145578 0.0154208)
(-0.000160593 -0.00148491 0.0153095)
(-0.00134142 -0.00141255 0.0161332)
(-0.00154556 -0.00154093 0.0152571)
(-0.00111159 -0.00159545 0.0150099)
(-0.00100825 -0.0016982 0.0144317)
(-0.000226311 -0.00174085 0.0142797)
(-0.00137958 -0.000992982 0.0159393)
(-0.00160015 -0.00110649 0.0150106)
(-0.0011554 -0.0011502 0.0147392)
(-0.00104878 -0.00124159 0.0141251)
(-0.000249554 -0.00127558 0.0139549)
(-0.00145914 -0.000897363 0.0154254)
(-0.00170288 -0.00100238 0.0144345)
(-0.00124669 -0.00104283 0.0141273)
(-0.00113363 -0.00112785 0.013456)
(-0.000311075 -0.00115925 0.0132479)
(-0.00148842 -0.00015404 0.0153153)
(-0.00174569 -0.00022006 0.0142837)
(-0.00128086 -0.000243227 0.0139581)
(-0.0011652 -0.00030499 0.0132488)
(-0.000335808 -0.000329551 0.0130244)
(-0.00174115 -0.00173586 0.00231093)
(-0.0020116 -0.00188847 0.00122009)
(-0.00144117 -0.00197079 0.000937476)
(-0.00129224 -0.0020868 0.000249679)
(-0.000233208 -0.00215256 8.26585e-05)
(-0.00189375 -0.00200394 0.00122089)
(-0.00223885 -0.00223122 3.17421e-05)
(-0.00163318 -0.00234472 -0.00031943)
(-0.00146842 -0.0025143 -0.00108868)
(-0.00033733 -0.00260386 -0.00130007)
(-0.0019761 -0.00143223 0.000938723)
(-0.00235238 -0.00162435 -0.000319069)
(-0.0017241 -0.0017152 -0.000714142)
(-0.00155128 -0.00187369 -0.00153008)
(-0.000372612 -0.00195783 -0.00177578)
(-0.0020922 -0.0012818 0.000251956)
(-0.00252198 -0.00145828 -0.00108735)
(-0.00188252 -0.00154115 -0.00152892)
(-0.00171108 -0.00170117 -0.00239131)
(-0.000474265 -0.00178318 -0.00264931)
(-0.00215818 -0.000221155 8.58823e-05)
(-0.00261184 -0.000325794 -0.00129801)
(-0.00196697 -0.000360896 -0.00177397)
(-0.00179331 -0.000463028 -0.00264894)
(-0.000511362 -0.00049981 -0.00293198)
(-0.00239156 -0.00238752 0.0156982)
(-0.00279043 -0.00258772 0.0142042)
(-0.00196875 -0.00269819 0.0137314)
(-0.00175904 -0.00286363 0.0127325)
(-0.00031091 -0.0029392 0.0124425)
(-0.00259176 -0.00278449 0.0142064)
(-0.00308834 -0.00308254 0.0125075)
(-0.00223359 -0.00325056 0.0118701)
(-0.00199041 -0.00348225 0.0107228)
(-0.00044613 -0.00360378 0.0103048)
(-0.00270238 -0.00196203 0.0137345)
(-0.0032565 -0.00222715 0.011871)
(-0.00236816 -0.00236144 0.011132)
(-0.00211209 -0.00254613 0.00989501)
(-0.000505707 -0.00262686 0.00939256)
(-0.00286795 -0.00175099 0.0127387)
(-0.00348805 -0.00198284 0.0107269)
(-0.00255257 -0.00210433 0.00989817)
(-0.00225588 -0.00224857 0.00848937)
(-0.000612618 -0.00231748 0.00786109)
(-0.00294388 -0.000302265 0.0124507)
(-0.00361003 -0.000438103 0.0103102)
(-0.00263384 -0.000497533 0.00939704)
(-0.00232524 -0.000604923 0.00786198)
(-0.000665288 -0.000657138 0.00715362)
(-0.00331604 -0.00330853 0.00497662)
(-0.0039823 -0.00367207 0.00291752)
(-0.00291259 -0.00392371 0.00223306)
(-0.00258027 -0.0041925 0.0009038)
(-0.000502381 -0.00439045 0.000476461)
(-0.00367958 -0.00397156 0.00291798)
(-0.00457612 -0.00456542 0.000667104)
(-0.0034154 -0.00494392 -0.000244736)
(-0.00303184 -0.0053507 -0.00175327)
(-0.000760983 -0.00565255 -0.00235886)
(-0.00393124 -0.0028997 0.00223399)
(-0.00495466 -0.00340247 -0.000244331)
(-0.00369731 -0.00368439 -0.00130328)
(-0.0032886 -0.00410404 -0.00303149)
(-0.000884411 -0.00439816 -0.00379452)
(-0.00419996 -0.00256469 0.000905643)
(-0.00536137 -0.0030171 -0.00175223)
(-0.00411698 -0.003274 -0.00303043)
(-0.00374568 -0.00373173 -0.00490484)
(-0.00114187 -0.00401939 -0.00581414)
(-0.00439883 -0.000484037 0.000479468)
(-0.00566427 -0.000743689 -0.00235702)
(-0.00441187 -0.000866222 -0.00379298)
(-0.004034 -0.00112489 -0.00581396)
(-0.00126401 -0.00124607 -0.00686062)
(-0.00455658 -0.00455209 0.0161559)
(-0.00553417 -0.00495732 0.0134257)
(-0.00398177 -0.00530701 0.0122427)
(-0.00351641 -0.00566275 0.0102697)
(-0.000702663 -0.00592379 0.00948117)
(-0.00496182 -0.00552729 0.0134286)
(-0.00625478 -0.00624811 0.0102503)
(-0.00465626 -0.00679283 0.00860287)
(-0.00410695 -0.00742533 0.00636386)
(-0.00106107 -0.00788308 0.00519225)
(-0.00531171 -0.00397367 0.0122464)
(-0.00679971 -0.00464878 0.00860371)
(-0.00515794 -0.00514976 0.00651867)
(-0.00460632 -0.00570083 0.00391581)
(-0.00128049 -0.00608609 0.00234712)
(-0.00566788 -0.00350627 0.0102783)
(-0.00743191 -0.00409794 0.00636916)
(-0.00570831 -0.00459701 0.00392048)
(-0.00504359 -0.00503503 0.00114829)
(-0.0015838 -0.00538799 -0.000768549)
(-0.00592963 -0.000691711 0.00949159)
(-0.00789079 -0.00105095 0.00519907)
(-0.00609473 -0.00127035 0.00235317)
(-0.0053973 -0.00157434 -0.000766658)
(-0.00176945 -0.00175925 -0.00317379)
(-0.00619689 -0.00618642 0.00834397)
(-0.00790238 -0.00701719 0.00465623)
(-0.00606907 -0.00774974 0.00312224)
(-0.00534137 -0.00829527 0.00062436)
(-0.0012469 -0.00889045 -0.000469614)
(-0.00702765 -0.00788793 0.00465577)
(-0.00940533 -0.00939084 0.000767193)
(-0.00729709 -0.010669 -0.00150393)
(-0.00643902 -0.0117026 -0.00441498)
(-0.00192556 -0.0127841 -0.00614569)
(-0.00776015 -0.00605056 0.0031223)
(-0.0106835 -0.00727886 -0.00150382)
(-0.00837923 -0.00836079 -0.00450221)
(-0.00745525 -0.00931211 -0.00799879)
(-0.00244114 -0.0103523 -0.0103611)
(-0.008306 -0.00531907 0.000624532)
(-0.0117171 -0.0064183 -0.00441466)
(-0.00933034 -0.0074346 -0.00799845)
(-0.00843025 -0.00840973 -0.0119153)
(-0.0030826 -0.00953963 -0.0150353)
(-0.00890243 -0.00121933 -0.000468639)
(-0.0128002 -0.00190048 -0.00614456)
(-0.0103709 -0.00241451 -0.0103596)
(-0.00956029 -0.00305865 -0.0150348)
(-0.00369847 -0.00367205 -0.0188198)
(-0.00843689 -0.00843288 0.0204094)
(-0.0107565 -0.00906053 0.015051)
(-0.00800952 -0.0101826 0.0122771)
(-0.00710735 -0.0109763 0.00845922)
(-0.00173049 -0.0118978 0.00635816)
(-0.00906454 -0.0107496 0.0150543)
(-0.0124183 -0.012412 0.00937501)
(-0.00984081 -0.0144257 0.00540714)
(-0.00875315 -0.0160626 0.00113307)
(-0.00278339 -0.0177894 -0.00225074)
(-0.0101873 -0.00800079 0.0122796)
(-0.0144326 -0.00983303 0.00540701)
(-0.0116571 -0.0116485 -0.000279202)
(-0.0104692 -0.013204 -0.00599068)
(-0.00362435 -0.0149777 -0.0113133)
(-0.0109812 -0.00709629 0.00847038)
(-0.016069 -0.00874313 0.00113926)
(-0.0132118 -0.0104584 -0.00598385)
(-0.0120824 -0.012073 -0.0122826)
(-0.00475647 -0.0138475 -0.0193156)
(-0.0119035 -0.00171692 0.0063654)
(-0.0177966 -0.00277203 -0.00224494)
(-0.0149869 -0.00361215 -0.0113086)
(-0.0138583 -0.00474569 -0.0193159)
(-0.00559405 -0.0055816 -0.0293544)
(-0.0118451 -0.0118312 0.0149585)
(-0.0160468 -0.0130015 0.0088217)
(-0.0126623 -0.0149767 0.00540043)
(-0.0112628 -0.0160033 0.000596044)
(-0.00329147 -0.0179241 -0.00216721)
(-0.0130153 -0.0160298 0.00881922)
(-0.0190622 -0.0190444 0.00203924)
(-0.0155325 -0.0232308 -0.00341142)
(-0.0140933 -0.0261567 -0.00860162)
(-0.00531839 -0.030463 -0.0136919)
(-0.0149898 -0.012636 0.00539838)
(-0.0232479 -0.015508 -0.0034111)
(-0.0197722 -0.019747 -0.01117)
(-0.0184907 -0.0227295 -0.0189113)
(-0.00776667 -0.0274201 -0.0268559)
(-0.016019 -0.0112358 0.000592883)
(-0.0261756 -0.0140666 -0.00860261)
(-0.0227539 -0.0184653 -0.0189121)
(-0.0217635 -0.0217365 -0.0273481)
(-0.0102155 -0.0275812 -0.0390268)
(-0.0179375 -0.00324901 -0.00216922)
(-0.0304816 -0.00528191 -0.0136921)
(-0.0274448 -0.00772651 -0.0268558)
(-0.0276065 -0.010181 -0.0390262)
(-0.0138128 -0.013772 -0.0548147)
(-0.0149451 -0.0149437 0.0304759)
(-0.0203168 -0.0162467 0.0223127)
(-0.0162256 -0.0194775 0.0168808)
(-0.0146707 -0.0206929 0.0101843)
(-0.00437341 -0.024022 0.00500987)
(-0.0162482 -0.0203119 0.0223142)
(-0.0246502 -0.0246461 0.013456)
(-0.020479 -0.0310056 0.00408636)
(-0.0190338 -0.0355826 -0.00359721)
(-0.00785722 -0.0424949 -0.0132478)
(-0.0194797 -0.0162175 0.0168805)
(-0.0310105 -0.0204722 0.00408664)
(-0.0271601 -0.0271519 -0.0103628)
(-0.0261547 -0.0319557 -0.0232654)
(-0.0115342 -0.0403253 -0.0410524)
(-0.0206956 -0.0146596 0.0101932)
(-0.0355866 -0.0190243 -0.00359152)
(-0.0319625 -0.0261438 -0.0232596)
(-0.0321937 -0.0321844 -0.0383907)
(-0.0165357 -0.0418035 -0.0652136)
(-0.0240257 -0.00435831 0.00501219)
(-0.0424999 -0.00784506 -0.013241)
(-0.0403338 -0.0115195 -0.0410507)
(-0.0418144 -0.0165219 -0.0652097)
(-0.0214724 -0.021454 -0.111401)
(-0.0205198 -0.0205045 0.0276475)
(-0.0296678 -0.0224266 0.0190353)
(-0.0247935 -0.028493 0.0129454)
(-0.0231393 -0.0305623 0.00539086)
(-0.00837085 -0.0371175 -0.00123066)
(-0.022442 -0.0296511 0.0190289)
(-0.0373085 -0.0372889 0.0101079)
(-0.032586 -0.0504914 -0.00143729)
(-0.0314207 -0.0596127 -0.00950312)
(-0.0149754 -0.0765297 -0.0240572)
(-0.0285054 -0.0247599 0.0129398)
(-0.0505081 -0.0325559 -0.00143637)
(-0.0471251 -0.0470939 -0.0208576)
(-0.0491654 -0.057534 -0.0374698)
(-0.0255485 -0.0794122 -0.0660405)
(-0.0305812 -0.0231096 0.00537971)
(-0.0596348 -0.0313875 -0.009508)
(-0.0575641 -0.0491383 -0.0374753)
(-0.0636823 -0.0636457 -0.0549556)
(-0.0372443 -0.0979152 -0.104128)
(-0.0371262 -0.00830956 -0.00123853)
(-0.076549 -0.0149259 -0.024059)
(-0.0794399 -0.0254886 -0.0660431)
(-0.0979423 -0.037193 -0.104123)
(-0.0602652 -0.0601935 -0.184578)
(-0.0241527 -0.0241579 0.0522502)
(-0.0349999 -0.025829 0.0425818)
(-0.0298339 -0.0347707 0.0350089)
(-0.0288205 -0.036614 0.025523)
(-0.0108052 -0.0481834 0.0164846)
(-0.0258238 -0.0350006 0.0425797)
(-0.045088 -0.0450894 0.0319566)
(-0.0400848 -0.0648 0.0160302)
(-0.0416335 -0.0784221 0.00427953)
(-0.0223984 -0.107262 -0.0189189)
(-0.0347662 -0.0298306 0.0350033)
(-0.0647992 -0.0400829 0.0160319)
(-0.0632047 -0.0632011 -0.0124776)
(-0.0712729 -0.0774588 -0.0405492)
(-0.0401396 -0.120472 -0.0916023)
(-0.0366101 -0.0288116 0.0255258)
(-0.0784204 -0.0416266 0.00428139)
(-0.0774608 -0.0712645 -0.0405496)
(-0.0986989 -0.0986902 -0.0787836)
(-0.0662062 -0.159848 -0.183047)
(-0.0481809 -0.0107917 0.0164729)
(-0.107261 -0.0223872 -0.0189087)
(-0.120474 -0.0401218 -0.0916169)
(-0.159856 -0.066179 -0.183027)
(-0.103708 -0.103657 -0.41706)
(-0.0309984 -0.0309854 0.0502032)
(-0.0469505 -0.0339343 0.0426262)
(-0.0418677 -0.0487892 0.0364039)
(-0.0416744 -0.0533042 0.0277381)
(-0.0173052 -0.0746459 0.0162122)
(-0.0339474 -0.0469395 0.0426142)
(-0.0638861 -0.0638669 0.0373079)
(-0.060312 -0.0980085 0.0214659)
(-0.0663248 -0.12566 0.0150255)
(-0.0383179 -0.184502 -0.0167201)
(-0.048794 -0.0418292 0.0363929)
(-0.0980196 -0.0602801 0.0214678)
(-0.103765 -0.103733 -0.0128425)
(-0.128074 -0.140683 -0.0441577)
(-0.0770804 -0.243817 -0.136241)
(-0.053324 -0.0416508 0.0277135)
(-0.125685 -0.0662832 0.0150129)
(-0.140714 -0.128061 -0.0441737)
(-0.205891 -0.205836 -0.069327)
(-0.144887 -0.426645 -0.287733)
(-0.0746323 -0.0172215 0.0161927)
(-0.184524 -0.0382558 -0.0167243)
(-0.243836 -0.0769906 -0.13625)
(-0.426657 -0.144795 -0.287712)
(-0.311237 -0.311042 -0.741882)
(-0.0325758 -0.0325934 0.0910832)
(-0.0487549 -0.0319881 0.0868071)
(-0.044668 -0.0510668 0.0864584)
(-0.0489073 -0.0509011 0.0797504)
(-0.0221355 -0.083734 0.0771992)
(-0.0319704 -0.0487666 0.0867989)
(-0.0660917 -0.0661034 0.0838401)
(-0.0623164 -0.113865 0.0736375)
(-0.0795426 -0.150059 0.0688633)
(-0.0544483 -0.259137 0.0444694)
(-0.0510488 -0.0446773 0.0864469)
(-0.113853 -0.0623271 0.0736428)
(-0.128862 -0.128872 0.0558874)
(-0.194072 -0.161264 0.019019)
(-0.134751 -0.372721 -0.0408504)
(-0.0508847 -0.0489071 0.0797398)
(-0.150049 -0.0795419 0.068852)
(-0.161254 -0.194072 0.0190011)
(-0.363091 -0.363095 -0.0655865)
(-0.290123 -0.679716 -0.280477)
(-0.0837156 -0.0221349 0.0771621)
(-0.259125 -0.0544422 0.0444856)
(-0.372671 -0.134722 -0.040949)
(-0.679742 -0.290068 -0.280483)
(-0.739657 -0.739557 -1.11402)
(-0.036147 -0.0361425 0.0814987)
(-0.0515593 -0.0378245 0.0854169)
(-0.0489256 -0.0632758 0.0961467)
(-0.0508563 -0.0661538 0.101389)
(-0.0198809 -0.110939 0.114634)
(-0.037829 -0.0515596 0.0854011)
(-0.0770147 -0.0769983 0.0953969)
(-0.0753419 -0.128487 0.107692)
(-0.0949392 -0.185556 0.118939)
(-0.0635196 -0.295708 0.133066)
(-0.0632634 -0.0488896 0.0961323)
(-0.128486 -0.0753212 0.107696)
(-0.157986 -0.157966 0.136642)
(-0.219839 -0.217729 0.16435)
(-0.140737 -0.459398 0.211337)
(-0.066174 -0.0508584 0.101351)
(-0.185588 -0.0948868 0.118916)
(-0.217756 -0.219923 0.164303)
(-0.425785 -0.425798 0.133904)
(-0.467919 -1.00665 0.050169)
(-0.110872 -0.0197914 0.114602)
(-0.295792 -0.0634837 0.13305)
(-0.459269 -0.14069 0.211285)
(-1.00698 -0.467673 0.049911)
(-1.76237 -1.76212 -0.501948)
(-0.0291899 -0.0292239 0.132903)
(-0.0340748 -0.0225098 0.144052)
(-0.028711 -0.0406759 0.162863)
(-0.0303256 -0.0346184 0.177586)
(-0.00877453 -0.0680079 0.204379)
(-0.0224759 -0.0341009 0.144039)
(-0.0438121 -0.043835 0.159678)
(-0.0389593 -0.0734325 0.186877)
(-0.0538464 -0.0866267 0.207716)
(-0.0412694 -0.150226 0.233644)
(-0.0406386 -0.0287423 0.162859)
(-0.0734062 -0.0389927 0.186881)
(-0.0720269 -0.0720817 0.251693)
(-0.109345 -0.0854017 0.311773)
(-0.0869383 -0.240899 0.442009)
(-0.0345864 -0.0303435 0.177566)
(-0.0866258 -0.0538651 0.207699)
(-0.0853645 -0.10938 0.311751)
(-0.135598 -0.135554 0.44628)
(-0.240477 -0.510996 0.412415)
(-0.0679714 -0.00880637 0.204394)
(-0.150222 -0.0412962 0.233618)
(-0.24082 -0.0869912 0.442085)
(-0.510726 -0.240294 0.412133)
(-0.61639 -0.616922 -0.355636)
(-0.0250796 -0.025089 0.0864937)
(-0.0216257 -0.0221735 0.100226)
(-0.0153789 -0.0396742 0.117838)
(-0.00928306 -0.0364066 0.130582)
(0.00713577 -0.0832168 0.151375)
(-0.0221641 -0.0216298 0.100212)
(-0.0342357 -0.0342286 0.121155)
(-0.0274377 -0.0399838 0.145807)
(-0.0485401 -0.0534343 0.168486)
(-0.03808 -0.052034 0.197176)
(-0.0396535 -0.0153497 0.117829)
(-0.03998 -0.0274339 0.145809)
(-0.0352559 -0.0352519 0.196222)
(-0.0196192 -0.0339997 0.231027)
(-0.00226858 -0.199415 0.298878)
(-0.0364236 -0.00926658 0.130553)
(-0.0534699 -0.0485186 0.168465)
(-0.0340262 -0.0195891 0.231)
(-0.0488401 -0.0488065 0.265012)
(0.0685887 0.0937709 -0.479887)
(-0.083192 0.0072333 0.151363)
(-0.0520264 -0.0380614 0.197136)
(-0.199459 -0.00220647 0.298865)
(0.0938807 0.068693 -0.479723)
(0.688304 0.688157 -3.58653)
(-0.0149561 -0.0150037 0.14031)
(-0.00277351 -0.000713155 0.155438)
(0.00171963 -0.0118908 0.168282)
(0.00331163 0.00439759 0.181164)
(0.0125606 -0.0229105 0.192221)
(-0.000665534 -0.00280849 0.155415)
(0.0017527 0.00171892 0.176526)
(0.0083306 0.00466344 0.199785)
(-0.00458021 0.0102446 0.221074)
(-0.0134292 0.00761441 0.259135)
(-0.0118417 0.00167227 0.168271)
(0.00469849 0.00827657 0.199797)
(0.00999122 0.00991758 0.234293)
(0.00826444 0.0461934 0.270879)
(0.0016363 -0.0263009 0.292641)
(0.00443872 0.0032911 0.181111)
(0.0102524 -0.00463836 0.221069)
(0.0462289 0.00823375 0.270832)
(0.0401573 0.0401546 0.260902)
(0.0657747 0.0477458 -0.231002)
(-0.0228998 0.0125106 0.192201)
(0.00763316 -0.0134994 0.259155)
(-0.0263123 0.00152819 0.292616)
(0.0477365 0.065814 -0.23091)
(0.111938 0.111942 -2.59113)
(-0.00894783 -0.00898152 0.0516434)
(0.00638576 0.000265319 0.0686)
(0.0104031 -0.00645575 0.0794082)
(0.0147464 0.00585301 0.0963805)
(0.0187347 -0.0138363 0.109929)
(0.000298958 0.00636995 0.068595)
(0.0101395 0.0101352 0.0930167)
(0.0173239 0.0263377 0.118463)
(0.0100652 0.0360123 0.147939)
(0.000336962 0.0719572 0.186895)
(-0.0064098 0.0104031 0.0794059)
(0.0263535 0.017321 0.11846)
(0.0360327 0.0359999 0.162468)
(0.0622062 0.0688454 0.22729)
(0.0472416 0.061048 0.296035)
(0.00588433 0.0147536 0.0963713)
(0.0359847 0.0100939 0.147941)
(0.0688442 0.0622163 0.227307)
(0.0434705 0.0435947 0.352505)
(0.0587187 0.0999352 0.0365462)
(-0.0137679 0.0187871 0.109918)
(0.0719704 0.000381145 0.186897)
(0.0611281 0.0472767 0.296023)
(0.0998856 0.0589622 0.0365608)
(-0.115541 -0.115386 -1.02666)
(0.00319837 0.00314558 0.126699)
(0.0246042 0.0254204 0.139922)
(0.029047 0.029831 0.144849)
(0.0330637 0.0593529 0.157128)
(0.0263019 0.0595652 0.15967)
(0.0254733 0.0245671 0.139916)
(0.0507598 0.0507183 0.1575)
(0.0622002 0.0856824 0.171903)
(0.0618491 0.135492 0.188453)
(0.0250361 0.210917 0.203939)
(0.0298797 0.0289959 0.144841)
(0.0857195 0.0621493 0.171892)
(0.114118 0.114061 0.189113)
(0.159173 0.23051 0.229226)
(0.0971365 0.315461 0.226762)
(0.0594062 0.0330347 0.157103)
(0.135528 0.0617995 0.188437)
(0.230563 0.159132 0.229246)
(0.355583 0.355534 0.206523)
(0.278436 0.64015 -0.270572)
(0.0595931 0.0262478 0.159651)
(0.210942 0.0249799 0.203894)
(0.315497 0.0970641 0.226755)
(0.640206 0.278312 -0.270561)
(1.23034 1.23021 -2.96299)
(0.0060831 0.0060427 -0.00905695)
(0.0248377 0.0205413 -0.000585582)
(0.0279911 0.0248711 -0.00371423)
(0.0299315 0.0430079 0.00185843)
(0.0221337 0.0397215 -0.0053713)
(0.0205817 0.0248135 -0.000581676)
(0.0426713 0.0426497 0.00456106)
(0.049041 0.0712873 0.00497655)
(0.0432785 0.107856 0.00296769)
(0.0172688 0.156133 0.000191351)
(0.0249147 0.0279732 -0.00371404)
(0.0713115 0.049022 0.00497265)
(0.0931481 0.0931255 -0.00444429)
(0.116953 0.161986 -0.00478961)
(0.0719373 0.200034 -0.0556599)
(0.0430479 0.0299275 0.00186576)
(0.107873 0.0432712 0.0029729)
(0.162007 0.116943 -0.00477429)
(0.260301 0.260274 -0.0537596)
(0.246067 0.494652 -0.497014)
(0.0397626 0.0221484 -0.00537686)
(0.156153 0.0172676 0.000193916)
(0.200032 0.0719343 -0.0556588)
(0.494651 0.246027 -0.496963)
(0.743574 0.743522 -3.75558)
(0.0129224 0.0128735 0.107152)
(0.0296246 0.0325769 0.114049)
(0.031133 0.0415521 0.111199)
(0.0310562 0.0648854 0.115353)
(0.0193708 0.071473 0.109709)
(0.0326259 0.0295878 0.114047)
(0.0559893 0.055948 0.120775)
(0.0602878 0.0844292 0.120558)
(0.0567621 0.127477 0.12292)
(0.0221098 0.169946 0.12346)
(0.0415971 0.0310853 0.11119)
(0.084466 0.0602422 0.12055)
(0.10303 0.102983 0.112872)
(0.117546 0.176767 0.114896)
(0.0626309 0.229055 0.0827815)
(0.0649371 0.0310215 0.115337)