/*--------------------------------*- C++ -*----------------------------------*\
| =========                 |                                                 |
| \\      /  F ield         | OpenFOAM: The Open Source CFD Toolbox           |
|  \\    /   O peration     | Version:  5.x                                   |
|   \\  /    A nd           | Web:      www.OpenFOAM.org                      |
|    \\/     M anipulation  |                                                 |
\*---------------------------------------------------------------------------*/
FoamFile
{
    version     2.0;
    format      ascii;
    class       volScalarField;
    location    "0.06";
    object      Ksl;
}
// * * * * * * * * * * * * * * * * * * * * * * * * * * * * * * * * * * * * * //

dimensions      [1 -3 -1 0 0 0 0];

internalField   nonuniform List<scalar> 
160
(
0.000418186
0.000798507
0.000595646
0.000132596
2.29609e-05
5.21956e-05
3.9686e-05
7.12032e-06
0
0
0
0
0
0
0
0
0
0
0
0
0
0
0
0
0
0
0
0
0
0
0
0
0
0
0
0
0
0
0
0
0.000798507
0.00792451
0.00494482
0.000608233
5.21956e-05
0.000205273
0.000139842
4.08944e-05
0
9.45667e-06
5.9192e-06
0
0
0
0
0
0
0
0
0
0
0
0
0
0
0
0
0
0
0
0
0
0
0
0
0
0
0
0
0
0.000595646
0.00494482
0.00414128
0.000341909
3.9686e-05
0.000139842
8.62638e-05
2.96494e-05
0
5.9192e-06
4.65396e-06
0
0
0
0
0
0
0
0
0
0
0
0
0
0
0
0
0
0
0
0
0
0
0
0
0
0
0
0
0
0.000132596
0.000608233
0.000341909
0.000166512
7.12032e-06
4.08944e-05
2.96494e-05
0
0
0
0
0
0
0
0
0
0
0
0
0
0
0
0
0
0
0
0
0
0
0
0
0
0
0
0
0
0
0
0
0
)
;

boundaryField
{
    inlet
    {
        type            zeroGradient;
    }
    outlet
    {
        type            zeroGradient;
    }
    walls
    {
        type            zeroGradient;
    }
    procBoundary1to0
    {
        type            processor;
        value           nonuniform List<scalar> 
16
(
0.0163185
0.0336028
0.0323915
0.00638805
0.0336028
0.252142
0.172476
0.0393027
0.0323915
0.172476
0.0978485
0.0340739
0.00638805
0.0393027
0.0340739
0.00563923
)
;
    }
}


// ************************************************************************* //
