/*--------------------------------*- C++ -*----------------------------------*\
| =========                 |                                                 |
| \\      /  F ield         | OpenFOAM: The Open Source CFD Toolbox           |
|  \\    /   O peration     | Version:  5.x                                   |
|   \\  /    A nd           | Web:      www.OpenFOAM.org                      |
|    \\/     M anipulation  |                                                 |
\*---------------------------------------------------------------------------*/
FoamFile
{
    version     2.0;
    format      ascii;
    class       surfaceScalarField;
    location    "0.06";
    object      phi;
}
// * * * * * * * * * * * * * * * * * * * * * * * * * * * * * * * * * * * * * //

dimensions      [0 3 -1 0 0 0 0];

internalField   nonuniform List<scalar> 
384
(
4.34537e-11
1.68476e-11
4.34537e-11
1.0369e-11
-1.66517e-11
4.15119e-10
-4.73916e-11
-1.53399e-11
3.51952e-10
1.05122e-11
7.49261e-11
1.42342e-11
1.11416e-11
1.42342e-11
2.85625e-12
-7.91792e-12
1.09803e-10
-1.19738e-11
-1.18591e-11
8.20134e-11
7.93656e-12
3.23517e-11
1.32471e-11
5.43689e-12
1.32471e-11
2.69929e-12
-2.18332e-12
7.56634e-11
-1.50977e-11
-5.36138e-12
6.22019e-11
5.23619e-12
2.74571e-11
3.77671e-12
3.56356e-12
3.77671e-12
1.0786e-12
-1.48512e-12
2.36292e-11
-4.19564e-12
-3.48158e-12
1.9092e-11
3.7633e-12
1.16919e-11
3.59147e-12
1.81389e-12
3.59147e-12
5.62308e-13
-5.72698e-14
1.30467e-11
-4.03458e-12
-1.20601e-12
1.14008e-11
2.08387e-12
8.33379e-12
1.17326e-12
1.17183e-12
1.17326e-12
4.60304e-13
-2.03695e-13
5.38041e-12
-1.12616e-12
-7.02427e-13
4.84174e-12
1.33797e-12
3.86674e-12
9.97545e-13
6.31637e-13
9.97545e-13
2.09336e-13
1.15794e-13
2.44151e-12
-9.0159e-13
-1.81413e-13
2.41215e-12
6.73105e-13
2.37998e-12
4.0479e-13
3.77759e-13
4.0479e-13
2.2011e-13
-8.6893e-15
1.28385e-12
-2.09546e-13
-1.12692e-13
1.29713e-12
3.7731e-13
1.21589e-12
3.18387e-13
1.75387e-13
3.18387e-13
1.26644e-13
2.95056e-14
5.74976e-13
-1.41657e-13
-3.60875e-14
6.41275e-13
1.59278e-13
7.07269e-13
1.51645e-13
1.51645e-13
1.21395e-13
3.26981e-13
1.6053e-14
3.63083e-13
3.76499e-13
4.15119e-10
-1.66517e-11
1.0369e-11
-5.30027e-11
-4.83774e-10
-5.30027e-11
-3.54552e-10
-3.05578e-10
2.71307e-11
-4.02013e-11
-2.31097e-12
1.09803e-10
-7.91792e-12
2.85625e-12
-1.18063e-11
-2.40555e-10
-1.18063e-11
-6.991e-11
-1.68434e-10
2.97314e-12
-2.76873e-11
2.5591e-12
7.56634e-11
-2.18332e-12
2.69929e-12
-2.28841e-12
-8.46513e-11
-2.28841e-12
-5.32852e-11
-6.03713e-11
5.13627e-12
-1.56523e-11
3.06472e-12
2.36292e-11
-1.48512e-12
1.0786e-12
1.07409e-12
-3.9541e-11
1.07409e-12
-1.21036e-11
-3.03576e-11
2.25602e-12
-9.02453e-12
2.95889e-12
1.30467e-11
-5.72698e-14
5.62308e-13
1.02162e-12
-1.54908e-11
1.02162e-12
-7.43888e-12
-1.24023e-11
1.906e-12
-4.46602e-12
2.48117e-12
5.38041e-12
-2.03695e-13
4.60304e-13
9.35049e-13
-6.60005e-12
9.35049e-13
-2.11058e-12
-5.71179e-12
1.19685e-12
-2.35864e-12
1.62311e-12
2.44151e-12
1.15794e-13
2.09336e-13
5.56902e-13
-2.83083e-12
5.56902e-13
-9.42123e-13
-2.61605e-12
8.15434e-13
-1.17055e-12
1.18098e-12
1.28385e-12
-8.6893e-15
2.2011e-13
4.35549e-13
-1.13421e-12
4.35549e-13
-2.81083e-13
-1.15221e-12
5.49938e-13
-5.93001e-13
7.08056e-13
5.74976e-13
2.95056e-14
1.26644e-13
2.59452e-13
-5.03159e-13
2.59452e-13
-6.6209e-14
-5.40914e-13
3.55635e-13
-2.98052e-13
4.7719e-13
3.26981e-13
1.21395e-13
1.96093e-13
1.96093e-13
3.6709e-14
2.41303e-13
2.90593e-13
3.51952e-10
-1.53399e-11
-4.73916e-11
2.71307e-11
-3.05578e-10
-3.54552e-10
-3.44528e-10
-3.19891e-10
-3.44528e-10
-2.30972e-11
-4.0746e-11
8.20134e-11
-1.18591e-11
-1.19738e-11
2.97314e-12
-1.68434e-10
-6.991e-11
-6.45546e-11
-1.84836e-10
-6.45546e-11
-1.58811e-11
-8.68417e-12
6.22019e-11
-5.36138e-12
-1.50977e-11
5.13627e-12
-6.03713e-11
-5.32852e-11
-5.56888e-11
-6.31857e-11
-5.56888e-11
-8.54231e-12
-8.1838e-12
1.9092e-11
-3.48158e-12
-4.19563e-12
2.25602e-12
-3.03576e-11
-1.21036e-11
-1.30248e-11
-3.2624e-11
-1.30248e-11
-5.74169e-12
-2.57719e-13
1.14008e-11
-1.20601e-12
-4.03458e-12
1.906e-12
-1.24023e-11
-7.43888e-12
-7.81011e-12
-1.31918e-11
-7.81011e-12
-3.20009e-12
-4.60665e-13
4.84174e-12
-7.02427e-13
-1.12616e-12
1.19685e-12
-5.71179e-12
-2.11058e-12
-2.27509e-12
-6.24789e-12
-2.27509e-12
-2.07511e-12
6.18029e-13
2.41215e-12
-1.81413e-13
-9.0159e-13
8.15434e-13
-2.61605e-12
-9.42123e-13
-8.49483e-13
-2.91805e-12
-8.49483e-13
-1.18977e-12
4.16535e-13
1.29713e-12
-1.12692e-13
-2.09546e-13
5.49938e-13
-1.15221e-12
-2.81083e-13
-2.34125e-13
-1.34991e-12
-2.34125e-13
-7.21506e-13
3.59209e-13
6.41275e-13
-3.60875e-14
-1.41657e-13
3.55635e-13
-5.40914e-13
-6.6209e-14
5.14161e-15
-6.48925e-13
5.14162e-15
-4.02208e-13
2.58291e-13
3.63083e-13
1.6053e-14
2.41303e-13
3.6709e-14
7.20055e-14
7.20055e-14
1.7755e-13
7.49261e-11
1.05122e-11
-2.31097e-12
-4.02013e-11
-4.0746e-11
-2.30972e-11
6.89049e-12
3.23517e-11
7.93656e-12
2.5591e-12
-2.76873e-11
-8.68417e-12
-1.58811e-11
4.14459e-13
2.74571e-11
5.23619e-12
3.06472e-12
-1.56523e-11
-8.1838e-12
-8.54231e-12
-2.4442e-12
1.16919e-11
3.7633e-12
2.95889e-12
-9.02453e-12
-2.57719e-13
-5.74169e-12
-3.12513e-12
8.33379e-12
2.08387e-12
2.48117e-12
-4.46602e-12
-4.60665e-13
-3.20009e-12
-2.51426e-12
3.86674e-12
1.33797e-12
1.62311e-12
-2.35864e-12
6.18029e-13
-2.07511e-12
-1.85014e-12
2.37998e-12
6.73105e-13
1.18098e-12
-1.17055e-12
4.16535e-13
-1.18977e-12
-1.22341e-12
1.21589e-12
3.7731e-13
7.08056e-13
-5.93001e-13
3.59209e-13
-7.21506e-13
-7.72249e-13
7.07269e-13
1.59278e-13
4.7719e-13
-2.98052e-13
2.58291e-13
-4.02208e-13
-4.47869e-13
3.76499e-13
2.90593e-13
1.7755e-13
)
;

boundaryField
{
    inlet
    {
        type            calculated;
        value           nonuniform List<scalar> 
16
(
6.22214e-14
-4.91734e-14
-5.8053e-14
6.47793e-14
-4.91734e-14
-2.41389e-13
-2.59755e-13
-1.54129e-13
-5.8053e-14
-2.59755e-13
-3.10331e-13
-2.16155e-13
6.47793e-14
-1.54129e-13
-2.16155e-13
-2.38538e-13
)
;
    }
    outlet
    {
        type            calculated;
        value           nonuniform 0();
    }
    walls
    {
        type            calculated;
        value           nonuniform List<scalar> 
160
(
-3.70194e-11
-1.13812e-11
-1.03947e-11
-2.84005e-12
-2.71664e-12
-8.52229e-13
-7.27446e-13
-2.77852e-13
-2.17199e-13
-9.50606e-14
-4.19222e-10
-1.07159e-10
-7.08502e-11
-2.16294e-11
-1.14454e-11
-4.52102e-12
-1.97279e-12
-9.74681e-13
-4.21419e-13
-2.18053e-13
-2.9028e-10
-7.06641e-11
-5.09026e-11
-1.56976e-11
-9.07946e-12
-3.75886e-12
-1.82223e-12
-9.36185e-13
-4.49574e-13
-2.35778e-13
-7.2027e-11
-2.97024e-11
-2.47694e-11
-9.98795e-12
-6.78022e-12
-2.9943e-12
-1.74441e-12
-8.5062e-13
-4.71155e-13
-2.37648e-13
-4.7653e-11
-1.20475e-11
-1.5085e-11
-4.42674e-12
-3.90872e-12
-1.2527e-12
-8.72293e-13
-2.79014e-13
-1.59738e-13
-2.83027e-14
-2.64454e-10
-5.26314e-11
-4.09279e-11
-9.99836e-12
-6.14478e-12
-1.97433e-12
-9.31202e-13
-3.50798e-13
-1.31081e-13
-2.13083e-14
-3.29661e-10
-6.05274e-11
-5.17791e-11
-1.26089e-11
-7.40987e-12
-2.39499e-12
-9.70371e-13
-3.53537e-13
-9.5257e-14
-1.00248e-15
-3.23861e-11
-5.44615e-12
-6.75447e-12
8.27421e-14
-7.66099e-13
2.85975e-13
1.03169e-13
1.33631e-13
9.61018e-14
7.28842e-14
-3.70194e-11
-1.13812e-11
-1.03947e-11
-2.84005e-12
-2.71664e-12
-8.52229e-13
-7.27446e-13
-2.77852e-13
-2.17199e-13
-9.50606e-14
-4.19222e-10
-1.07159e-10
-7.08502e-11
-2.16294e-11
-1.14454e-11
-4.52102e-12
-1.97279e-12
-9.74681e-13
-4.21419e-13
-2.18053e-13
-2.9028e-10
-7.06641e-11
-5.09026e-11
-1.56976e-11
-9.07946e-12
-3.75886e-12
-1.82223e-12
-9.36185e-13
-4.49574e-13
-2.35778e-13
-7.2027e-11
-2.97024e-11
-2.47694e-11
-9.98795e-12
-6.78022e-12
-2.9943e-12
-1.74441e-12
-8.5062e-13
-4.71155e-13
-2.37648e-13
-4.7653e-11
-1.20475e-11
-1.5085e-11
-4.42674e-12
-3.90872e-12
-1.2527e-12
-8.72293e-13
-2.79014e-13
-1.59738e-13
-2.83027e-14
-2.64454e-10
-5.26314e-11
-4.09279e-11
-9.99836e-12
-6.14478e-12
-1.97433e-12
-9.31202e-13
-3.50798e-13
-1.31081e-13
-2.13083e-14
-3.29661e-10
-6.05274e-11
-5.17791e-11
-1.26089e-11
-7.40987e-12
-2.39499e-12
-9.70371e-13
-3.53537e-13
-9.5257e-14
-1.00248e-15
-3.23861e-11
-5.44615e-12
-6.75447e-12
8.27421e-14
-7.66099e-13
2.85975e-13
1.03169e-13
1.33631e-13
9.61018e-14
7.28842e-14
)
;
    }
    procBoundary1to0
    {
        type            processor;
        value           nonuniform List<scalar> 
16
(
-2.97161e-11
5.38397e-11
1.14284e-11
-1.31499e-11
5.38397e-11
1.42002e-09
9.31949e-10
2.73403e-11
1.14284e-11
9.31949e-10
1.06321e-09
4.66651e-11
-1.31499e-11
2.73403e-11
4.66651e-11
-2.36104e-11
)
;
    }
}


// ************************************************************************* //
