/*--------------------------------*- C++ -*----------------------------------*\
| =========                 |                                                 |
| \\      /  F ield         | OpenFOAM: The Open Source CFD Toolbox           |
|  \\    /   O peration     | Version:  5.x                                   |
|   \\  /    A nd           | Web:      www.OpenFOAM.org                      |
|    \\/     M anipulation  |                                                 |
\*---------------------------------------------------------------------------*/
FoamFile
{
    version     2.0;
    format      ascii;
    class       volVectorField;
    location    "0.06";
    object      U;
}
// * * * * * * * * * * * * * * * * * * * * * * * * * * * * * * * * * * * * * //

dimensions      [0 1 -1 0 0 0 0];

internalField   nonuniform List<vector> 
160
(
(5.99564e-06 3.60646e-06 5.99564e-06)
(8.37449e-06 -3.06445e-06 6.76537e-05)
(-5.75469e-06 -5.15918e-07 4.67531e-05)
(-7.66929e-06 1.46304e-06 1.17766e-05)
(1.86409e-06 1.85542e-06 1.86409e-06)
(2.37252e-06 -2.69845e-06 1.75417e-05)
(-1.58056e-06 -4.1649e-06 1.15217e-05)
(-1.92779e-06 1.39938e-06 4.92319e-06)
(1.67726e-06 1.40693e-06 1.67726e-06)
(2.43569e-06 5.5116e-08 1.15504e-05)
(-1.79501e-06 -1.18538e-07 8.26466e-06)
(-2.42565e-06 1.06633e-06 4.07141e-06)
(4.63342e-07 4.65684e-07 4.63342e-07)
(7.5292e-07 -8.15139e-07 3.54226e-06)
(-4.81727e-07 -1.36169e-06 2.56511e-06)
(-7.08392e-07 5.05465e-07 1.65838e-06)
(4.42624e-07 5.29529e-07 4.42624e-07)
(6.16403e-07 2.15757e-07 1.87759e-06)
(-4.82838e-07 4.2625e-08 1.48741e-06)
(-6.29685e-07 5.48258e-07 1.12244e-06)
(1.3864e-07 1.34809e-07 1.3864e-07)
(2.37442e-07 -1.95869e-07 7.44074e-07)
(-1.19199e-07 -3.21265e-07 6.18491e-07)
(-1.98877e-07 1.79938e-07 4.99474e-07)
(1.20277e-07 1.81317e-07 1.20277e-07)
(1.61046e-07 8.9897e-08 3.25976e-07)
(-1.05435e-07 2.85195e-08 3.01151e-07)
(-1.40309e-07 1.85083e-07 2.9111e-07)
(4.58122e-08 5.17705e-08 4.58122e-08)
(7.76004e-08 -3.25125e-08 1.61716e-07)
(-1.64118e-08 -5.74628e-08 1.55743e-07)
(-4.34279e-08 5.85051e-08 1.42763e-07)
(3.65323e-08 5.15511e-08 3.65323e-08)
(5.08329e-08 2.29123e-08 7.01397e-08)
(-1.26695e-08 5.03927e-09 7.49636e-08)
(-2.53126e-08 4.44799e-08 7.93331e-08)
(1.59556e-08 1.0745e-08 1.59556e-08)
(2.79088e-08 -8.11028e-09 3.67943e-08)
(7.46334e-09 -9.79527e-09 3.99063e-08)
(-3.63447e-09 1.05075e-08 4.02983e-08)
(6.76537e-05 -3.06445e-06 8.37449e-06)
(4.97803e-05 -0.00010525 4.97803e-05)
(-6.28873e-05 -5.89274e-05 5.51426e-05)
(-4.24132e-05 -7.68179e-06 8.63984e-06)
(1.75417e-05 -2.69845e-06 2.37252e-06)
(1.21532e-05 -6.29991e-05 1.21532e-05)
(-1.4361e-05 -4.61534e-05 1.15868e-05)
(-8.46558e-06 -6.65585e-06 3.58283e-06)
(1.15504e-05 5.5116e-08 2.43569e-06)
(9.11069e-06 -1.44804e-05 9.11069e-06)
(-9.34044e-06 -9.51481e-06 9.35314e-06)
(-6.57229e-06 -2.1847e-06 3.30219e-06)
(3.54226e-06 -8.15139e-07 7.5292e-07)
(2.89973e-06 -1.09737e-05 2.89973e-06)
(-2.36962e-06 -8.56631e-06 2.80584e-06)
(-1.59296e-06 -2.52843e-06 1.44595e-06)
(1.87759e-06 2.15757e-07 6.16403e-07)
(1.66906e-06 -2.69547e-06 1.66906e-06)
(-1.22356e-06 -2.00779e-06 1.69512e-06)
(-9.84488e-07 -6.14131e-07 1.11425e-06)
(7.44074e-07 -1.95869e-07 2.37442e-07)
(7.27433e-07 -1.82091e-06 7.27433e-07)
(-3.55759e-07 -1.57408e-06 7.32518e-07)
(-3.10991e-07 -6.67714e-07 5.38575e-07)
(3.25976e-07 8.9897e-08 1.61046e-07)
(3.43012e-07 -5.17601e-07 3.43012e-07)
(-1.32986e-07 -4.58982e-07 3.70485e-07)
(-1.47306e-07 -1.75323e-07 3.52365e-07)
(1.61716e-07 -3.25125e-08 7.76004e-08)
(1.89498e-07 -2.99554e-07 1.89498e-07)
(-3.13058e-08 -2.94228e-07 2.02829e-07)
(-5.41907e-08 -1.55625e-07 1.87496e-07)
(7.01397e-08 2.29123e-08 5.08329e-08)
(8.9726e-08 -1.04862e-07 8.9726e-08)
(-6.65933e-10 -1.13763e-07 1.04042e-07)
(-1.98042e-08 -5.72752e-08 1.13709e-07)
(3.67943e-08 -8.11028e-09 2.79088e-08)
(5.23748e-08 -3.9669e-08 5.23748e-08)
(1.2492e-08 -4.2915e-08 5.93242e-08)
(-2.41749e-09 -2.61876e-08 6.2294e-08)
(4.67531e-05 -5.15918e-07 -5.75469e-06)
(5.51426e-05 -5.89274e-05 -6.28873e-05)
(-4.70328e-05 -4.9039e-05 -4.70328e-05)
(-5.29282e-05 -4.45264e-06 -8.78645e-06)
(1.15217e-05 -4.1649e-06 -1.58056e-06)
(1.15868e-05 -4.61534e-05 -1.4361e-05)
(-1.01629e-05 -5.26195e-05 -1.01629e-05)
(-9.72009e-06 -4.10123e-06 -2.34013e-06)
(8.26466e-06 -1.18538e-07 -1.79501e-06)
(9.35314e-06 -9.51481e-06 -9.34044e-06)
(-7.57477e-06 -9.14493e-06 -7.57477e-06)
(-8.33854e-06 -9.99475e-07 -1.94285e-06)
(2.56511e-06 -1.36169e-06 -4.81727e-07)
(2.80584e-06 -8.56631e-06 -2.36962e-06)
(-1.91301e-06 -9.31299e-06 -1.91301e-06)
(-2.01529e-06 -1.70037e-06 -2.20756e-07)
(1.48741e-06 4.2625e-08 -4.82838e-07)
(1.69512e-06 -2.00779e-06 -1.22356e-06)
(-1.0194e-06 -2.07984e-06 -1.0194e-06)
(-1.19238e-06 -3.3389e-07 -1.33783e-07)
(6.18491e-07 -3.21265e-07 -1.19199e-07)
(7.32518e-07 -1.57408e-06 -3.55759e-07)
(-2.95754e-07 -1.69878e-06 -2.95754e-07)
(-3.78971e-07 -5.82763e-07 8.12459e-08)
(3.01151e-07 2.85195e-08 -1.05435e-07)
(3.70485e-07 -4.58982e-07 -1.32986e-07)
(-8.84023e-08 -5.13452e-07 -8.84023e-08)
(-1.53675e-07 -1.59737e-07 7.99356e-08)
(1.55743e-07 -5.74628e-08 -1.64118e-08)
(2.02829e-07 -2.94228e-07 -3.13058e-08)
(-1.32227e-08 -3.3278e-07 -1.32227e-08)
(-5.44843e-08 -1.78985e-07 6.64438e-08)
(7.49636e-08 5.03927e-09 -1.26695e-08)
(1.04042e-07 -1.13763e-07 -6.65931e-10)
(1.44769e-08 -1.3821e-07 1.44769e-08)
(-1.37706e-08 -7.64729e-08 5.13543e-08)
(3.99063e-08 -9.79527e-09 7.46334e-09)
(5.93242e-08 -4.2915e-08 1.2492e-08)
(1.94529e-08 -5.15104e-08 1.94529e-08)
(9.77684e-10 -3.67694e-08 3.46388e-08)
(1.17766e-05 1.46304e-06 -7.66929e-06)
(8.63984e-06 -7.68179e-06 -4.24132e-05)
(-8.78645e-06 -4.45264e-06 -5.29282e-05)
(-5.17274e-06 1.51688e-06 -5.17274e-06)
(4.92319e-06 1.39938e-06 -1.92779e-06)
(3.58283e-06 -6.65585e-06 -8.46558e-06)
(-2.34013e-06 -4.10123e-06 -9.72009e-06)
(-8.55863e-07 3.11698e-07 -8.55863e-07)
(4.07141e-06 1.06633e-06 -2.42565e-06)
(3.30219e-06 -2.1847e-06 -6.57229e-06)
(-1.94285e-06 -9.99475e-07 -8.33854e-06)
(-1.05154e-06 -1.15124e-07 -1.05154e-06)
(1.65838e-06 5.05465e-07 -7.08392e-07)
(1.44595e-06 -2.52843e-06 -1.59296e-06)
(-2.20756e-07 -1.70037e-06 -2.01529e-06)
(4.84086e-08 -6.75526e-07 4.84086e-08)
(1.12244e-06 5.48258e-07 -6.29685e-07)
(1.11425e-06 -6.14131e-07 -9.84488e-07)
(-1.33783e-07 -3.3389e-07 -1.19238e-06)
(-1.01214e-07 -3.16956e-07 -1.01214e-07)
(4.99474e-07 1.79938e-07 -1.98877e-07)
(5.38575e-07 -6.67714e-07 -3.10991e-07)
(8.12459e-08 -5.82763e-07 -3.78971e-07)
(5.96011e-08 -4.36041e-07 5.96011e-08)
(2.9111e-07 1.85083e-07 -1.40309e-07)
(3.52365e-07 -1.75323e-07 -1.47306e-07)
(7.99356e-08 -1.59737e-07 -1.53675e-07)
(2.33254e-08 -1.86957e-07 2.33254e-08)
(1.42763e-07 5.85051e-08 -4.34279e-08)
(1.87496e-07 -1.55625e-07 -5.41907e-08)
(6.64438e-08 -1.78985e-07 -5.44843e-08)
(2.60119e-08 -1.78418e-07 2.60119e-08)
(7.93331e-08 4.44799e-08 -2.53126e-08)
(1.13709e-07 -5.72752e-08 -1.98042e-08)
(5.13543e-08 -7.64729e-08 -1.37706e-08)
(1.80153e-08 -8.6214e-08 1.80153e-08)
(4.02983e-08 1.05075e-08 -3.63447e-09)
(6.2294e-08 -2.61876e-08 -2.41749e-09)
(3.46388e-08 -3.67694e-08 9.77684e-10)
(1.34057e-08 -4.12379e-08 1.34057e-08)
)
;

boundaryField
{
    inlet
    {
        type            fixedValue;
        value           uniform (0 0 0);
    }
    outlet
    {
        type            zeroGradient;
    }
    walls
    {
        type            fixedValue;
        value           uniform (0 0 0);
    }
    procBoundary1to0
    {
        type            processor;
        value           nonuniform List<vector> 
16
(
(6.534e-06 4.57729e-06 6.534e-06)
(5.17782e-06 -1.77361e-05 8.9558e-05)
(-4.10323e-06 -4.45183e-06 4.7583e-05)
(-2.47144e-06 2.26809e-06 1.25867e-05)
(8.9558e-05 -1.77361e-05 5.17782e-06)
(4.6148e-05 -0.000311797 4.6148e-05)
(-8.22797e-05 -0.00021818 3.21231e-05)
(-3.70231e-05 -3.2084e-07 7.54485e-06)
(4.7583e-05 -4.45183e-06 -4.10323e-06)
(3.21231e-05 -0.00021818 -8.22797e-05)
(-4.32829e-05 -0.000267957 -4.32829e-05)
(-2.66181e-05 -1.05297e-05 -1.02009e-05)
(1.25867e-05 2.26809e-06 -2.47144e-06)
(7.54485e-06 -3.2084e-07 -3.70231e-05)
(-1.02009e-05 -1.05297e-05 -2.66181e-05)
(-4.92424e-06 6.74289e-06 -4.92424e-06)
)
;
    }
}


// ************************************************************************* //
