/*--------------------------------*- C++ -*----------------------------------*\
| =========                 |                                                 |
| \\      /  F ield         | OpenFOAM: The Open Source CFD Toolbox           |
|  \\    /   O peration     | Version:  5.x                                   |
|   \\  /    A nd           | Web:      www.OpenFOAM.org                      |
|    \\/     M anipulation  |                                                 |
\*---------------------------------------------------------------------------*/
FoamFile
{
    version     2.0;
    format      ascii;
    class       volVectorField;
    location    "0.06";
    object      Us;
}
// * * * * * * * * * * * * * * * * * * * * * * * * * * * * * * * * * * * * * //

dimensions      [0 1 -1 0 0 0 0];

internalField   uniform (0 0 0);

boundaryField
{
    inlet
    {
        type            zeroGradient;
    }
    outlet
    {
        type            zeroGradient;
    }
    walls
    {
        type            zeroGradient;
    }
    procBoundary1to0
    {
        type            processor;
        value           nonuniform List<vector> 
16
(
(-5.21773e-12 -1.71961e-08 -5.21773e-12)
(-1.91571e-10 -6.31361e-07 -1.91571e-10)
(-1.9408e-10 -6.3963e-07 -1.9408e-10)
(-7.9302e-12 -2.61356e-08 -7.9302e-12)
(-1.91571e-10 -6.31361e-07 -1.91571e-10)
(-7.0361e-09 -2.31889e-05 -7.0361e-09)
(-7.12578e-09 -2.34845e-05 -7.12578e-09)
(-2.87417e-10 -9.47241e-07 -2.87417e-10)
(-1.9408e-10 -6.3963e-07 -1.9408e-10)
(-7.12578e-09 -2.34845e-05 -7.12578e-09)
(-7.22012e-09 -2.37954e-05 -7.22012e-09)
(-2.94932e-10 -9.72008e-07 -2.94932e-10)
(-7.9302e-12 -2.61356e-08 -7.9302e-12)
(-2.87417e-10 -9.47241e-07 -2.87417e-10)
(-2.94932e-10 -9.72008e-07 -2.94932e-10)
(-1.60676e-11 -5.29539e-08 -1.60676e-11)
)
;
    }
}


// ************************************************************************* //
