/*--------------------------------*- C++ -*----------------------------------*\
| =========                 |                                                 |
| \\      /  F ield         | OpenFOAM: The Open Source CFD Toolbox           |
|  \\    /   O peration     | Version:  5.x                                   |
|   \\  /    A nd           | Web:      www.OpenFOAM.org                      |
|    \\/     M anipulation  |                                                 |
\*---------------------------------------------------------------------------*/
FoamFile
{
    version     2.0;
    format      ascii;
    class       volScalarField;
    location    "0.04";
    object      Ksl;
}
// * * * * * * * * * * * * * * * * * * * * * * * * * * * * * * * * * * * * * //

dimensions      [1 -3 -1 0 0 0 0];

internalField   nonuniform List<scalar> 
160
(
0.0190972
0.0490242
0.0344881
0.00719756
0.00202912
0.00530012
0.00350279
0.000690044
2.81586e-05
0.000113195
7.68635e-05
1.08671e-05
0
0
0
0
0
0
0
0
0
0
0
0
0
0
0
0
0
0
0
0
0
0
0
0
0
0
0
0
0.0490242
1.11828
0.451269
0.0339046
0.00530012
0.0168195
0.0112381
0.00332871
0.000113195
0.00115625
0.00061009
7.48634e-05
0
2.10707e-05
1.30861e-05
0
0
0
0
0
0
0
0
0
0
0
0
0
0
0
0
0
0
0
0
0
0
0
0
0
0.0344881
0.451269
0.380283
0.0180103
0.00350279
0.0112381
0.0063558
0.00214495
7.68635e-05
0.00061009
0.000443177
4.19525e-05
0
1.30861e-05
8.0442e-06
0
0
0
0
0
0
0
0
0
0
0
0
0
0
0
0
0
0
0
0
0
0
0
0
0
0.00719756
0.0339046
0.0180103
0.00698684
0.000690044
0.00332871
0.00214495
0.000925803
1.08671e-05
7.48634e-05
4.19525e-05
0
0
0
0
0
0
0
0
0
0
0
0
0
0
0
0
0
0
0
0
0
0
0
0
0
0
0
0
0
)
;

boundaryField
{
    inlet
    {
        type            zeroGradient;
    }
    outlet
    {
        type            zeroGradient;
    }
    walls
    {
        type            zeroGradient;
    }
    procBoundary1to0
    {
        type            processor;
        value           nonuniform List<scalar> 
16
(
0.677987
2.78771
1.31379
0.369601
2.78771
3.85626
1.75024
1.26933
1.31379
1.75024
1.24091
1.04338
0.369601
1.26933
1.04338
0.237328
)
;
    }
}


// ************************************************************************* //
