/*--------------------------------*- C++ -*----------------------------------*\
| =========                 |                                                 |
| \\      /  F ield         | OpenFOAM: The Open Source CFD Toolbox           |
|  \\    /   O peration     | Version:  5.x                                   |
|   \\  /    A nd           | Web:      www.OpenFOAM.org                      |
|    \\/     M anipulation  |                                                 |
\*---------------------------------------------------------------------------*/
FoamFile
{
    version     2.0;
    format      ascii;
    class       volScalarField;
    location    "0.04";
    object      p;
}
// * * * * * * * * * * * * * * * * * * * * * * * * * * * * * * * * * * * * * //

dimensions      [0 2 -2 0 0 0 0];

internalField   nonuniform List<scalar> 
160
(
-1.30638e-06
-1.44006e-06
-1.82371e-06
-1.37442e-06
-1.49235e-06
-1.72433e-06
-1.73827e-06
-1.49711e-06
-1.62152e-06
-1.73857e-06
-1.85921e-06
-1.58149e-06
-1.59242e-06
-1.62135e-06
-1.65934e-06
-1.58445e-06
-1.69569e-06
-1.73937e-06
-1.76499e-06
-1.67397e-06
-1.66297e-06
-1.67315e-06
-1.68895e-06
-1.66042e-06
-1.6939e-06
-1.70401e-06
-1.70915e-06
-1.68771e-06
-1.6913e-06
-1.69615e-06
-1.69984e-06
-1.69111e-06
-1.69532e-06
-1.69842e-06
-1.69986e-06
-1.69512e-06
-1.69647e-06
-1.69825e-06
-1.69903e-06
-1.69707e-06
-1.44006e-06
-8.994e-06
-6.09905e-06
-2.78164e-06
-1.72433e-06
-3.72114e-06
-2.89751e-06
-2.26005e-06
-1.73857e-06
-3.27208e-06
-2.84769e-06
-2.11519e-06
-1.62135e-06
-1.98377e-06
-1.88423e-06
-1.7944e-06
-1.73937e-06
-1.97495e-06
-1.93902e-06
-1.82216e-06
-1.67315e-06
-1.76116e-06
-1.75285e-06
-1.71797e-06
-1.70401e-06
-1.7403e-06
-1.74054e-06
-1.72322e-06
-1.69615e-06
-1.71439e-06
-1.71622e-06
-1.70663e-06
-1.69842e-06
-1.70625e-06
-1.70783e-06
-1.70377e-06
-1.69825e-06
-1.70193e-06
-1.70309e-06
-1.70157e-06
-1.82371e-06
-6.09905e-06
-6.11599e-06
-2.06245e-06
-1.73827e-06
-2.89751e-06
-2.5668e-06
-2.01503e-06
-1.85921e-06
-2.84769e-06
-2.92308e-06
-1.92983e-06
-1.65934e-06
-1.88423e-06
-1.87321e-06
-1.74182e-06
-1.76499e-06
-1.93902e-06
-1.95925e-06
-1.80755e-06
-1.68895e-06
-1.75285e-06
-1.76432e-06
-1.714e-06
-1.70915e-06
-1.74054e-06
-1.74862e-06
-1.73026e-06
-1.69984e-06
-1.71622e-06
-1.72076e-06
-1.7102e-06
-1.69986e-06
-1.70783e-06
-1.71065e-06
-1.70716e-06
-1.69903e-06
-1.70309e-06
-1.70483e-06
-1.70382e-06
-1.37442e-06
-2.78164e-06
-2.06245e-06
-1.96266e-06
-1.49711e-06
-2.26005e-06
-2.01503e-06
-1.97912e-06
-1.58149e-06
-2.11519e-06
-1.92983e-06
-1.94257e-06
-1.58445e-06
-1.7944e-06
-1.74182e-06
-1.78364e-06
-1.67397e-06
-1.82216e-06
-1.80755e-06
-1.81418e-06
-1.66042e-06
-1.71797e-06
-1.714e-06
-1.72382e-06
-1.68771e-06
-1.72322e-06
-1.73026e-06
-1.73363e-06
-1.69111e-06
-1.70663e-06
-1.7102e-06
-1.71277e-06
-1.69512e-06
-1.70377e-06
-1.70716e-06
-1.70824e-06
-1.69707e-06
-1.70157e-06
-1.70382e-06
-1.70468e-06
)
;

boundaryField
{
    inlet
    {
        type            zeroGradient;
    }
    outlet
    {
        type            totalPressure;
        rho             rho;
        psi             none;
        gamma           1;
        p0              nonuniform 0();
        value           nonuniform 0();
    }
    walls
    {
        type            zeroGradient;
    }
    procBoundary1to0
    {
        type            processor;
        value           nonuniform List<scalar> 
16
(
-1.20365e-06
-2.65703e-06
-2.08909e-06
-1.50916e-06
-2.65703e-06
-2.22597e-05
-1.2229e-05
-3.71078e-06
-2.08909e-06
-1.2229e-05
-8.79563e-06
-2.84623e-06
-1.50916e-06
-3.71078e-06
-2.84623e-06
-1.84938e-06
)
;
    }
}


// ************************************************************************* //
