/*--------------------------------*- C++ -*----------------------------------*\
| =========                 |                                                 |
| \\      /  F ield         | OpenFOAM: The Open Source CFD Toolbox           |
|  \\    /   O peration     | Version:  5.x                                   |
|   \\  /    A nd           | Web:      www.OpenFOAM.org                      |
|    \\/     M anipulation  |                                                 |
\*---------------------------------------------------------------------------*/
FoamFile
{
    version     2.0;
    format      ascii;
    class       surfaceScalarField;
    location    "0.04";
    object      phi;
}
// * * * * * * * * * * * * * * * * * * * * * * * * * * * * * * * * * * * * * //

dimensions      [0 3 -1 0 0 0 0];

internalField   nonuniform List<scalar> 
384
(
4.27401e-11
1.23923e-11
4.27401e-11
4.86078e-12
-8.34818e-12
3.98522e-10
-4.85117e-11
-8.76377e-12
3.49035e-10
1.15821e-11
5.44688e-11
8.18496e-12
8.19109e-12
8.18496e-12
2.70669e-13
-7.18518e-12
6.55903e-11
-1.03861e-11
-9.58435e-12
5.27351e-11
8.46406e-12
1.29383e-11
1.24109e-11
2.9056e-12
1.24109e-11
5.40027e-13
-3.2154e-12
5.49447e-11
-1.56287e-11
-5.23695e-12
4.76773e-11
3.81277e-12
1.69501e-11
2.6146e-12
1.78476e-12
2.6146e-12
2.20065e-14
-2.56413e-12
1.46468e-11
-4.16457e-12
-3.66156e-12
1.23155e-11
2.70696e-12
4.61456e-12
2.6892e-12
6.74333e-13
2.6892e-12
-1.21398e-13
-1.04915e-12
7.48222e-12
-3.74167e-12
-1.61554e-12
6.67861e-12
1.2027e-12
4.02588e-12
8.44928e-13
3.34965e-13
8.44928e-13
-4.59504e-14
-6.97617e-13
2.98004e-12
-1.34137e-12
-8.9668e-13
2.626e-12
7.23082e-13
1.42031e-12
5.28804e-13
1.45775e-13
5.28804e-13
-6.66121e-14
-3.17582e-13
1.18515e-12
-8.13271e-13
-3.95907e-13
1.12097e-12
3.4237e-13
8.68581e-13
2.25452e-13
6.66273e-14
2.25452e-13
-2.97591e-14
-1.69374e-13
5.14417e-13
-3.53919e-13
-1.8566e-13
4.93932e-13
1.75987e-13
3.80484e-13
1.14105e-13
2.77292e-14
1.14105e-13
-1.95637e-14
-8.05177e-14
2.16394e-13
-1.76296e-13
-8.02738e-14
2.19689e-13
8.189e-14
1.91868e-13
4.94362e-14
4.94362e-14
-1.09117e-14
8.52798e-14
-7.74205e-14
9.14057e-14
8.83863e-14
3.98522e-10
-8.34818e-12
4.86078e-12
-6.49629e-11
-3.31649e-10
-6.49629e-11
-3.53897e-10
-2.24679e-10
3.01455e-11
-1.56621e-11
-9.15879e-12
6.55903e-11
-7.18518e-12
2.70669e-13
-1.08015e-11
-1.78865e-10
-1.08015e-11
-5.16772e-11
-1.31187e-10
1.18894e-13
-1.26309e-11
-2.2842e-12
5.49447e-11
-3.2154e-12
5.40027e-13
-5.61299e-12
-5.77501e-11
-5.61299e-12
-4.71469e-11
-4.45e-11
2.52463e-12
-6.66784e-12
-1.1022e-12
1.46468e-11
-2.56413e-12
2.20066e-14
-1.15842e-12
-2.61398e-11
-1.15842e-12
-1.19995e-11
-2.13233e-11
-2.00421e-14
-4.20887e-12
-3.71673e-13
7.48222e-12
-1.04915e-12
-1.21398e-13
-4.10549e-13
-1.03542e-11
-4.10549e-13
-6.44845e-12
-8.83845e-12
2.31617e-13
-1.83564e-12
1.48189e-13
2.98004e-12
-6.97617e-13
-4.59504e-14
-8.34113e-14
-4.22736e-12
-8.34113e-14
-2.54653e-12
-3.74756e-12
-1.7886e-15
-9.98202e-13
3.11887e-14
1.18515e-12
-3.17582e-13
-6.66121e-14
-3.57394e-14
-1.78559e-12
-3.57394e-14
-1.06544e-12
-1.639e-12
4.21011e-14
-4.42583e-13
8.73286e-14
5.14417e-13
-1.69374e-13
-2.97591e-14
-3.2599e-15
-7.5023e-13
-3.25988e-15
-4.63103e-13
-7.02142e-13
1.69152e-14
-2.08032e-13
4.08519e-14
2.16394e-13
-8.05177e-14
-1.95637e-14
-1.91771e-15
-3.1359e-13
-1.9177e-15
-2.01851e-13
-2.96776e-13
1.42669e-14
-9.19152e-14
3.06855e-14
8.52798e-14
-1.09117e-14
1.25782e-16
1.25789e-16
-7.90455e-14
9.47424e-15
1.89809e-14
3.49035e-10
-8.76377e-12
-4.85117e-11
3.01455e-11
-2.24679e-10
-3.53897e-10
-3.59582e-10
-2.6091e-10
-3.59582e-10
-6.5634e-12
-3.93823e-11
5.27351e-11
-9.58435e-12
-1.03861e-11
1.18894e-13
-1.31187e-10
-5.16772e-11
-5.18217e-11
-1.57029e-10
-5.18217e-11
-6.19563e-12
-5.6664e-12
4.76773e-11
-5.23695e-12
-1.56287e-11
2.52463e-12
-4.45e-11
-4.71469e-11
-5.07357e-11
-5.05081e-11
-5.07357e-11
-2.74308e-12
-1.14233e-11
1.23155e-11
-3.66156e-12
-4.16457e-12
-2.00421e-14
-2.13233e-11
-1.19995e-11
-1.32371e-11
-2.40739e-11
-1.32371e-11
-2.52906e-12
-2.00747e-12
6.67861e-12
-1.61554e-12
-3.74167e-12
2.31617e-13
-8.83845e-12
-6.44845e-12
-6.95407e-12
-9.70259e-12
-6.95407e-12
-9.8412e-13
-2.50951e-12
2.626e-12
-8.9668e-13
-1.34137e-12
-1.78863e-15
-3.74756e-12
-2.54653e-12
-2.8405e-12
-4.02519e-12
-2.8405e-12
-7.1562e-13
-7.21546e-13
1.12097e-12
-3.95907e-13
-8.13271e-13
4.2101e-14
-1.639e-12
-1.06544e-12
-1.10424e-12
-1.73252e-12
-1.10424e-12
-3.16946e-13
-4.93169e-13
4.93932e-13
-1.8566e-13
-3.53919e-13
1.69152e-14
-7.02142e-13
-4.63103e-13
-4.85649e-13
-7.27397e-13
-4.85649e-13
-1.74192e-13
-1.99343e-13
2.19689e-13
-8.02738e-14
-1.76296e-13
1.42668e-14
-2.96776e-13
-2.01851e-13
-1.9849e-13
-3.01881e-13
-1.9849e-13
-8.15966e-14
-9.97351e-14
9.14057e-14
-7.74205e-14
9.47424e-15
-7.90455e-14
-7.31569e-14
-7.31569e-14
-4.06221e-14
5.44688e-11
1.15821e-11
-9.15879e-12
-1.56621e-11
-3.93823e-11
-6.5634e-12
1.00132e-11
1.29383e-11
8.46406e-12
-2.2842e-12
-1.26309e-11
-5.6664e-12
-6.19563e-12
6.53917e-12
1.69501e-11
3.81277e-12
-1.1022e-12
-6.66784e-12
-1.14233e-11
-2.74308e-12
1.9652e-12
4.61456e-12
2.70696e-12
-3.71673e-13
-4.20887e-12
-2.00747e-12
-2.52906e-12
1.37667e-12
4.02588e-12
1.2027e-12
1.48189e-13
-1.83564e-12
-2.50951e-12
-9.8412e-13
4.8178e-13
1.42031e-12
7.23082e-13
3.11887e-14
-9.98202e-13
-7.21546e-13
-7.1562e-13
2.5419e-13
8.68581e-13
3.4237e-13
8.73286e-14
-4.42583e-13
-4.93169e-13
-3.16946e-13
1.0161e-13
3.80484e-13
1.75987e-13
4.08519e-14
-2.08032e-13
-1.99343e-13
-1.74192e-13
4.57468e-14
1.91868e-13
8.189e-14
3.06855e-14
-9.19152e-14
-9.97351e-14
-8.15966e-14
1.91983e-14
8.83863e-14
1.89809e-14
-4.06222e-14
)
;

boundaryField
{
    inlet
    {
        type            calculated;
        value           nonuniform List<scalar> 
16
(
1.06526e-14
-3.98165e-14
-3.75201e-14
3.52576e-14
-3.98165e-14
-1.43269e-13
-1.35668e-13
-4.08934e-14
-3.75201e-14
-1.35668e-13
-1.36621e-13
-3.61559e-14
3.52576e-14
-4.08934e-14
-3.61559e-14
1.14882e-14
)
;
    }
    outlet
    {
        type            calculated;
        value           nonuniform 0();
    }
    walls
    {
        type            calculated;
        value           nonuniform List<scalar> 
160
(
-3.52649e-11
-6.08434e-12
-9.76813e-12
-2.05417e-12
-2.13399e-12
-6.75246e-13
-4.34212e-13
-1.85881e-13
-9.46555e-14
-4.0894e-14
-3.6761e-10
-5.8839e-11
-4.70436e-11
-1.27054e-11
-6.1866e-12
-2.44071e-12
-9.69779e-13
-4.07414e-13
-1.71572e-13
-6.56187e-14
-2.63076e-10
-4.12578e-11
-3.5856e-11
-9.70436e-12
-5.10437e-12
-2.04945e-12
-8.75089e-13
-3.80019e-13
-1.68335e-13
-6.76412e-14
-4.92715e-11
-1.09819e-11
-1.43456e-11
-3.94339e-12
-3.20777e-12
-1.16439e-12
-6.66717e-13
-2.94065e-13
-1.42293e-13
-6.2771e-14
-4.48577e-11
-9.2244e-12
-1.35819e-11
-3.72994e-12
-3.05553e-12
-1.11768e-12
-6.34431e-13
-2.73955e-13
-1.31769e-13
-5.64e-14
-2.58521e-10
-3.94859e-11
-3.50577e-11
-9.47223e-12
-4.944e-12
-1.99486e-12
-8.39815e-13
-3.58022e-13
-1.56784e-13
-6.06637e-14
-3.32998e-10
-4.88073e-11
-4.38672e-11
-1.18153e-11
-5.84132e-12
-2.35627e-12
-9.22421e-13
-3.88213e-13
-1.60669e-13
-5.89986e-14
-3.17776e-11
-3.92941e-12
-9.13632e-12
-1.7132e-12
-2.06207e-12
-6.07754e-13
-4.16881e-13
-1.71413e-13
-8.64622e-14
-3.67671e-14
-3.52649e-11
-6.08434e-12
-9.76813e-12
-2.05417e-12
-2.13399e-12
-6.75246e-13
-4.34212e-13
-1.85881e-13
-9.46555e-14
-4.0894e-14
-3.6761e-10
-5.8839e-11
-4.70436e-11
-1.27054e-11
-6.1866e-12
-2.44071e-12
-9.69779e-13
-4.07414e-13
-1.71572e-13
-6.56187e-14
-2.63076e-10
-4.12578e-11
-3.5856e-11
-9.70436e-12
-5.10437e-12
-2.04945e-12
-8.75089e-13
-3.80019e-13
-1.68335e-13
-6.76412e-14
-4.92715e-11
-1.09819e-11
-1.43456e-11
-3.94339e-12
-3.20777e-12
-1.16439e-12
-6.66717e-13
-2.94065e-13
-1.42293e-13
-6.2771e-14
-4.48577e-11
-9.2244e-12
-1.35819e-11
-3.72994e-12
-3.05553e-12
-1.11768e-12
-6.34431e-13
-2.73955e-13
-1.31769e-13
-5.64e-14
-2.58521e-10
-3.94859e-11
-3.50577e-11
-9.47223e-12
-4.944e-12
-1.99486e-12
-8.39815e-13
-3.58022e-13
-1.56784e-13
-6.06637e-14
-3.32998e-10
-4.88073e-11
-4.38672e-11
-1.18153e-11
-5.84132e-12
-2.35627e-12
-9.22421e-13
-3.88213e-13
-1.60669e-13
-5.89986e-14
-3.17776e-11
-3.92941e-12
-9.13632e-12
-1.7132e-12
-2.06207e-12
-6.07754e-13
-4.16881e-13
-1.71413e-13
-8.64622e-14
-3.67671e-14
)
;
    }
    procBoundary1to0
    {
        type            processor;
        value           nonuniform List<scalar> 
16
(
-2.73427e-11
1.53158e-11
-2.38226e-11
-2.04334e-11
1.53158e-11
1.25862e-09
8.32502e-10
-1.60857e-11
-2.38226e-11
8.32502e-10
1.04036e-09
1.02032e-11
-2.04334e-11
-1.60857e-11
1.02032e-11
-2.52227e-11
)
;
    }
}


// ************************************************************************* //
