/*--------------------------------*- C++ -*----------------------------------*\
| =========                 |                                                 |
| \\      /  F ield         | OpenFOAM: The Open Source CFD Toolbox           |
|  \\    /   O peration     | Version:  5.x                                   |
|   \\  /    A nd           | Web:      www.OpenFOAM.org                      |
|    \\/     M anipulation  |                                                 |
\*---------------------------------------------------------------------------*/
FoamFile
{
    version     2.0;
    format      ascii;
    class       volVectorField;
    location    "0.04";
    object      U;
}
// * * * * * * * * * * * * * * * * * * * * * * * * * * * * * * * * * * * * * //

dimensions      [0 1 -1 0 0 0 0];

internalField   nonuniform List<vector> 
160
(
(5.66878e-06 2.65636e-06 5.66878e-06)
(7.09897e-06 -6.29334e-07 6.03117e-05)
(-6.10318e-06 1.32643e-06 4.29378e-05)
(-7.26596e-06 2.11462e-06 8.16132e-06)
(1.0193e-06 1.21944e-06 1.0193e-06)
(1.34691e-06 -2.98249e-06 9.80918e-06)
(-1.28783e-06 -3.93188e-06 6.83053e-06)
(-1.52353e-06 1.24841e-06 1.90776e-06)
(1.58601e-06 1.05402e-06 1.58601e-06)
(1.97011e-06 4.06281e-07 7.83028e-06)
(-1.90864e-06 2.51247e-07 5.93246e-06)
(-2.22795e-06 1.13262e-06 2.40069e-06)
(3.3438e-07 1.00842e-07 3.3438e-07)
(4.82533e-07 -1.15889e-06 2.10455e-06)
(-4.9961e-07 -1.46971e-06 1.59718e-06)
(-6.11579e-07 2.82923e-07 6.72402e-07)
(3.50063e-07 2.96915e-07 3.50063e-07)
(4.01623e-07 7.4265e-08 1.03645e-06)
(-4.683e-07 -3.408e-08 8.51119e-07)
(-5.06859e-07 3.94424e-07 5.42506e-07)
(1.1005e-07 7.64047e-09 1.1005e-07)
(1.38261e-07 -2.74255e-07 4.0792e-07)
(-1.65642e-07 -3.18362e-07 3.40549e-07)
(-1.84464e-07 8.70118e-08 1.97667e-07)
(7.14708e-08 5.59567e-08 7.14708e-08)
(7.47444e-08 -2.45182e-08 1.62342e-07)
(-1.05574e-07 -4.82303e-08 1.46223e-07)
(-1.05742e-07 9.25602e-08 1.13686e-07)
(3.06989e-08 8.44622e-09 3.06989e-08)
(3.19009e-08 -4.76413e-08 6.87939e-08)
(-4.62507e-08 -5.06909e-08 6.40415e-08)
(-4.55576e-08 3.35464e-08 5.01149e-08)
(1.57574e-08 7.27202e-09 1.57574e-08)
(1.49712e-08 -1.63824e-08 2.90007e-08)
(-2.36227e-08 -1.76368e-08 2.85088e-08)
(-2.20191e-08 1.85305e-08 2.44754e-08)
(6.89295e-09 1.93226e-09 6.89295e-09)
(6.08119e-09 -6.40451e-09 1.12259e-08)
(-1.05434e-08 -6.16676e-09 1.16235e-08)
(-9.4115e-09 6.02491e-09 1.09305e-08)
(6.03117e-05 -6.29334e-07 7.09897e-06)
(4.47063e-05 -4.18846e-05 4.47063e-05)
(-5.90195e-05 -2.35408e-05 5.34435e-05)
(-4.20195e-05 -7.45127e-08 5.92401e-06)
(9.80918e-06 -2.98249e-06 1.34691e-06)
(7.22123e-06 -5.75914e-05 7.22123e-06)
(-9.28707e-06 -4.2704e-05 7.64532e-06)
(-6.44382e-06 -4.65528e-06 1.16597e-06)
(7.83028e-06 4.06281e-07 1.97011e-06)
(6.34063e-06 -7.4978e-06 6.34063e-06)
(-7.37954e-06 -5.15237e-06 6.95179e-06)
(-5.7541e-06 -7.19263e-08 1.91813e-06)
(2.10455e-06 -1.15889e-06 4.82533e-07)
(1.76459e-06 -8.16068e-06 1.76459e-06)
(-1.94739e-06 -6.73429e-06 1.80198e-06)
(-1.53332e-06 -1.60803e-06 4.78682e-07)
(1.03645e-06 7.4265e-08 4.01623e-07)
(9.00738e-07 -1.67538e-06 9.00738e-07)
(-9.59756e-07 -1.34006e-06 9.41616e-07)
(-8.14154e-07 -8.20124e-08 4.83778e-07)
(4.0792e-07 -2.74255e-07 1.38261e-07)
(3.7117e-07 -1.1749e-06 3.7117e-07)
(-3.76153e-07 -1.04669e-06 3.68734e-07)
(-3.26076e-07 -3.46484e-07 1.63628e-07)
(1.62342e-07 -2.45182e-08 7.47444e-08)
(1.48829e-07 -3.75463e-07 1.48829e-07)
(-1.5273e-07 -3.35966e-07 1.55252e-07)
(-1.37797e-07 -5.71527e-08 1.10072e-07)
(6.87938e-08 -4.76413e-08 3.19009e-08)
(6.53053e-08 -1.84939e-07 6.53053e-08)
(-6.43941e-08 -1.72033e-07 6.7129e-08)
(-5.91801e-08 -5.63205e-08 4.81394e-08)
(2.90007e-08 -1.63824e-08 1.49712e-08)
(2.75944e-08 -7.53787e-08 2.75944e-08)
(-2.76307e-08 -7.1372e-08 2.95972e-08)
(-2.58868e-08 -2.0619e-08 2.5188e-08)
(1.12259e-08 -6.40451e-09 6.08119e-09)
(1.08097e-08 -2.37782e-08 1.08097e-08)
(-1.06239e-08 -2.26438e-08 1.21759e-08)
(-1.00066e-08 -6.97862e-09 1.18225e-08)
(4.29378e-05 1.32643e-06 -6.10318e-06)
(5.34435e-05 -2.35408e-05 -5.90195e-05)
(-4.49639e-05 -2.19565e-05 -4.49639e-05)
(-5.40814e-05 1.42337e-07 -7.59774e-06)
(6.83053e-06 -3.93188e-06 -1.28783e-06)
(7.64532e-06 -4.2704e-05 -9.28707e-06)
(-7.35592e-06 -5.16901e-05 -7.35592e-06)
(-7.9183e-06 -2.79495e-06 -1.46435e-06)
(5.93246e-06 2.51247e-07 -1.90864e-06)
(6.95179e-06 -5.15237e-06 -7.37954e-06)
(-6.33193e-06 -5.67488e-06 -6.33193e-06)
(-7.2152e-06 5.06578e-07 -2.00558e-06)
(1.59718e-06 -1.46971e-06 -4.9961e-07)
(1.80198e-06 -6.73429e-06 -1.94739e-06)
(-1.78551e-06 -7.60845e-06 -1.78551e-06)
(-1.91644e-06 -1.15396e-06 -4.9513e-07)
(8.51119e-07 -3.408e-08 -4.683e-07)
(9.41616e-07 -1.34006e-06 -9.59756e-07)
(-8.84238e-07 -1.48791e-06 -8.84238e-07)
(-9.64615e-07 9.28416e-08 -3.99959e-07)
(3.40549e-07 -3.18362e-07 -1.65642e-07)
(3.68734e-07 -1.04669e-06 -3.76153e-07)
(-3.72252e-07 -1.12495e-06 -3.72252e-07)
(-3.86957e-07 -2.85503e-07 -1.38752e-07)
(1.46223e-07 -4.82303e-08 -1.05574e-07)
(1.55252e-07 -3.35966e-07 -1.5273e-07)
(-1.43708e-07 -3.55637e-07 -1.43708e-07)
(-1.51218e-07 -2.07874e-08 -7.26098e-08)
(6.40415e-08 -5.06909e-08 -4.62507e-08)
(6.7129e-08 -1.72033e-07 -6.43941e-08)
(-6.29386e-08 -1.7949e-07 -6.29386e-08)
(-6.42015e-08 -5.06444e-08 -3.07557e-08)
(2.85088e-08 -1.76368e-08 -2.36227e-08)
(2.95972e-08 -7.1372e-08 -2.76307e-08)
(-2.57071e-08 -7.30903e-08 -2.57071e-08)
(-2.63955e-08 -1.68102e-08 -1.36779e-08)
(1.16235e-08 -6.16676e-09 -1.05434e-08)
(1.21758e-08 -2.26438e-08 -1.06239e-08)
(-9.32441e-09 -2.30087e-08 -9.32441e-09)
(-9.63991e-09 -6.4452e-09 -5.12525e-09)
(8.16132e-06 2.11462e-06 -7.26596e-06)
(5.92401e-06 -7.45127e-08 -4.20195e-05)
(-7.59774e-06 1.42337e-07 -5.40814e-05)
(-5.10412e-06 2.33977e-06 -5.10412e-06)
(1.90776e-06 1.24841e-06 -1.52353e-06)
(1.16597e-06 -4.65528e-06 -6.44382e-06)
(-1.46435e-06 -2.79495e-06 -7.9183e-06)
(-6.35798e-07 9.5534e-07 -6.35798e-07)
(2.40069e-06 1.13262e-06 -2.22795e-06)
(1.91813e-06 -7.19263e-08 -5.7541e-06)
(-2.00558e-06 5.06578e-07 -7.2152e-06)
(-1.45929e-06 8.34506e-07 -1.45929e-06)
(6.72402e-07 2.82923e-07 -6.11579e-07)
(4.78682e-07 -1.60803e-06 -1.53332e-06)
(-4.9513e-07 -1.15396e-06 -1.91644e-06)
(-2.65854e-07 1.51028e-09 -2.65854e-07)
(5.42506e-07 3.94424e-07 -5.06859e-07)
(4.83778e-07 -8.20124e-08 -8.14154e-07)
(-3.99959e-07 9.28416e-08 -9.64615e-07)
(-3.28623e-07 2.61488e-07 -3.28623e-07)
(1.97667e-07 8.70118e-08 -1.84464e-07)
(1.63628e-07 -3.46484e-07 -3.26076e-07)
(-1.38752e-07 -2.85503e-07 -3.86957e-07)
(-9.53012e-08 -1.88687e-08 -9.53012e-08)
(1.13686e-07 9.25602e-08 -1.05742e-07)
(1.10072e-07 -5.71527e-08 -1.37797e-07)
(-7.26098e-08 -2.07874e-08 -1.51218e-07)
(-6.60362e-08 4.93582e-08 -6.60362e-08)
(5.01149e-08 3.35464e-08 -4.55576e-08)
(4.81394e-08 -5.63205e-08 -5.91801e-08)
(-3.07557e-08 -5.06444e-08 -6.42015e-08)
(-2.69195e-08 2.487e-09 -2.69195e-08)
(2.44754e-08 1.85305e-08 -2.20191e-08)
(2.5188e-08 -2.0619e-08 -2.58868e-08)
(-1.36779e-08 -1.68102e-08 -2.63955e-08)
(-1.36219e-08 4.64411e-09 -1.36219e-08)
(1.09305e-08 6.02491e-09 -9.4115e-09)
(1.18225e-08 -6.97862e-09 -1.00066e-08)
(-5.12525e-09 -6.4452e-09 -9.63991e-09)
(-5.7135e-09 1.13638e-09 -5.7135e-09)
)
;

boundaryField
{
    inlet
    {
        type            fixedValue;
        value           uniform (0 0 0);
    }
    outlet
    {
        type            zeroGradient;
    }
    walls
    {
        type            fixedValue;
        value           uniform (0 0 0);
    }
    procBoundary1to0
    {
        type            processor;
        value           nonuniform List<vector> 
16
(
(3.48833e-06 5.54997e-06 3.48833e-06)
(2.15072e-06 -2.84787e-06 3.11392e-05)
(-3.19163e-06 5.5902e-06 1.71029e-05)
(-1.79968e-06 4.98796e-06 3.58716e-06)
(3.11392e-05 -2.84787e-06 2.15072e-06)
(1.57716e-05 -0.000315964 1.57716e-05)
(-3.09627e-05 -0.000223719 1.15627e-05)
(-1.53088e-05 6.6443e-06 2.34212e-06)
(1.71029e-05 5.5902e-06 -3.19163e-06)
(1.15627e-05 -0.000223719 -3.09627e-05)
(-1.67233e-05 -0.00030162 -1.67233e-05)
(-1.09625e-05 -2.42316e-06 -3.35693e-06)
(3.58716e-06 4.98796e-06 -1.79968e-06)
(2.34212e-06 6.6443e-06 -1.53088e-05)
(-3.35693e-06 -2.42316e-06 -1.09625e-05)
(-2.07605e-06 5.90532e-06 -2.07605e-06)
)
;
    }
}


// ************************************************************************* //
