thermo_log      ../DEM/post/thermo.txt

atom_style      granular
atom_modify     map array sort 0 0
communicate     single vel yes

boundary        f f f
newton          off

units           si

region          reg block 0 0.1 0 0.1 0 0.1 units box
create_box      1 reg
Created orthogonal box = (0 0 0) to (0.1 0.1 0.1)
  1 by 1 by 2 MPI processor grid

neighbor        0.003 bin
neigh_modify    delay 0 binsize 0.01


# Material properties required for granular pair styles
fix         m1 all property/global youngsModulus peratomtype 5.e6
fix         m2 all property/global poissonsRatio peratomtype 0.45
fix         m3 all property/global coefficientRestitution peratomtypepair 1 0.3
fix         m4 all property/global coefficientFriction peratomtypepair 1 0.5
#fix         m5 all property/global characteristicVelocity scalar 2.0

# pair style
pair_style  gran model hertz tangential history # hertz without cohesion
pair_coeff  * *

# timestep, gravity
timestep    0.00001
fix         gravi all gravity 9.81 vector 0.0 -1.0 0.0

# walls
fix     xwalls1 all wall/gran model hertz tangential history primitive type 1 xplane 0.0
fix     xwalls2 all wall/gran model hertz tangential history primitive type 1 xplane 0.1
fix     ywalls1 all wall/gran model hertz tangential history primitive type 1 yplane 0.0
fix     ywalls2 all wall/gran model hertz tangential history primitive type 1 yplane 0.1
fix     zwalls1 all wall/gran model hertz tangential history primitive type 1 zplane 0.0
fix     zwalls2 all wall/gran model hertz tangential history primitive type 1 zplane 0.01

# create single partciles
create_atoms    1 single 0.05 0.025  0.05 units box
Created 1 atoms
set             group all diameter 0.0001 density 3000
  1 settings made for diameter
  1 settings made for density

# cfd coupling
fix     cfd all couple/cfd couple_every 100 mpi
couple_every as specified in LIGGGHTS is overriden by calling external program (../fix_cfd_coupling.cpp:114)
fix     cfd2 all couple/cfd/force

variable    vx equal vx[1]
variable    vy equal vy[1]
variable    vz equal vz[1]
variable    time equal step*dt
fix         extra all print 100 "${time} ${vx} ${vy} ${vz}" file ../DEM/post/velocity.txt title "#" screen no

# apply nve integration to all particles that are inserted as single particles
fix         integr all nve/sphere

# screen output
compute         rke all erotate/sphere
thermo_style    custom step atoms ke c_rke vol
thermo          1000
thermo_modify   lost ignore norm no
compute_modify  thermo_temp dynamic yes
WARNING: Changing thermo_temp compute object. This object is deprecated and will be removed in the future. (../compute.cpp:161)

# insert the first particles so that dump is not empty
run     0
Setting up run at Fri Mar 20 13:10:36 2020

Memory usage per processor = 4.23785 Mbytes
    Step    Atoms         KinEng            rke         Volume 
       0        1              0              0          0.001 
Loop time of 1.04904e-05 on 2 procs for 0 steps with 1 atoms, finish time Fri Mar 20 13:10:36 2020


Pair  time (%) = 0 (0)
Neigh time (%) = 0 (0)
Comm  time (%) = 0 (0)
Outpt time (%) = 0 (0)
Other time (%) = 1.04904e-05 (100)

Nlocal:    0.5 ave 1 max 0 min
Histogram: 1 0 0 0 0 0 0 0 0 1
Nghost:    0.5 ave 1 max 0 min
Histogram: 1 0 0 0 0 0 0 0 0 1
Neighs:    0 ave 0 max 0 min
Histogram: 2 0 0 0 0 0 0 0 0 0

Total # of neighbors = 0
Ave neighs/atom = 0
Neighbor list builds = 0
Dangerous builds = 0
dump    dmp all custom 1000 ../DEM/post/dump.liggghts_run id type x y z ix iy iz vx vy vz fx fy fz omegax omegay omegaz radius

run     0 upto
Setting up run at Fri Mar 20 13:10:36 2020

Memory usage per processor = 4.23805 Mbytes
    Step    Atoms         KinEng            rke         Volume 
       0        1              0              0          0.001 
Loop time of 9.53674e-07 on 2 procs for 0 steps with 1 atoms, finish time Fri Mar 20 13:10:36 2020


Pair  time (%) = 0 (0)
Neigh time (%) = 0 (0)
Comm  time (%) = 0 (0)
Outpt time (%) = 0 (0)
Other time (%) = 9.53674e-07 (100)

Nlocal:    0.5 ave 1 max 0 min
Histogram: 1 0 0 0 0 0 0 0 0 1
Nghost:    0.5 ave 1 max 0 min
Histogram: 1 0 0 0 0 0 0 0 0 1
Neighs:    0 ave 0 max 0 min
Histogram: 2 0 0 0 0 0 0 0 0 0

Total # of neighbors = 0
Ave neighs/atom = 0
Neighbor list builds = 0
Dangerous builds = 0
run 100    
Setting up run at Fri Mar 20 13:10:36 2020

Memory usage per processor = 4.23805 Mbytes
    Step    Atoms         KinEng            rke         Volume 
       0        1              0              0          0.001 
CFD Coupling established at step 100
     100        1  7.5583656e-14              0          0.001 
Loop time of 0.000597477 on 2 procs for 100 steps with 1 atoms, finish time Fri Mar 20 13:10:36 2020


Pair  time (%) = 7.20024e-05 (12.0511)
Neigh time (%) = 0 (0)
Comm  time (%) = 8.4281e-05 (14.1061)
Outpt time (%) = 4.31538e-05 (7.22267)
Other time (%) = 0.00039804 (66.6201)

Nlocal:    0.5 ave 1 max 0 min
Histogram: 1 0 0 0 0 0 0 0 0 1
Nghost:    0.5 ave 1 max 0 min
Histogram: 1 0 0 0 0 0 0 0 0 1
Neighs:    0 ave 0 max 0 min
Histogram: 2 0 0 0 0 0 0 0 0 0

Total # of neighbors = 0
Ave neighs/atom = 0
Neighbor list builds = 0
Dangerous builds = 0
run 100    
Setting up run at Fri Mar 20 13:10:36 2020

Memory usage per processor = 4.23805 Mbytes
    Step    Atoms         KinEng            rke         Volume 
     100        1  7.5583656e-14              0          0.001 
CFD Coupling established at step 200
     200        1  2.8277673e-13              0          0.001 
Loop time of 0.000452995 on 2 procs for 100 steps with 1 atoms, finish time Fri Mar 20 13:10:36 2020


Pair  time (%) = 7.10487e-05 (15.6842)
Neigh time (%) = 0 (0)
Comm  time (%) = 8.10623e-05 (17.8947)
Outpt time (%) = 2.69413e-05 (5.94737)
Other time (%) = 0.000273943 (60.4737)

Nlocal:    0.5 ave 1 max 0 min
Histogram: 1 0 0 0 0 0 0 0 0 1
Nghost:    0.5 ave 1 max 0 min
Histogram: 1 0 0 0 0 0 0 0 0 1
Neighs:    0 ave 0 max 0 min
Histogram: 2 0 0 0 0 0 0 0 0 0

Total # of neighbors = 0
Ave neighs/atom = 0
Neighbor list builds = 0
Dangerous builds = 0
run 100    
Setting up run at Fri Mar 20 13:10:36 2020

Memory usage per processor = 4.23805 Mbytes
    Step    Atoms         KinEng            rke         Volume 
     200        1  2.8277673e-13              0          0.001 
CFD Coupling established at step 300
     300        1  5.9528572e-13              0          0.001 
Loop time of 0.000500917 on 2 procs for 100 steps with 1 atoms, finish time Fri Mar 20 13:10:36 2020


Pair  time (%) = 6.77109e-05 (13.5174)
Neigh time (%) = 0 (0)
Comm  time (%) = 7.03335e-05 (14.0409)
Outpt time (%) = 2.25306e-05 (4.49786)
Other time (%) = 0.000340343 (67.9438)

Nlocal:    0.5 ave 1 max 0 min
Histogram: 1 0 0 0 0 0 0 0 0 1
Nghost:    0.5 ave 1 max 0 min
Histogram: 1 0 0 0 0 0 0 0 0 1
Neighs:    0 ave 0 max 0 min
Histogram: 2 0 0 0 0 0 0 0 0 0

Total # of neighbors = 0
Ave neighs/atom = 0
Neighbor list builds = 0
Dangerous builds = 0
run 100    
Setting up run at Fri Mar 20 13:10:36 2020

Memory usage per processor = 4.23805 Mbytes
    Step    Atoms         KinEng            rke         Volume 
     300        1  5.9528572e-13              0          0.001 
CFD Coupling established at step 400
     400        1  9.8962117e-13              0          0.001 
Loop time of 0.000441074 on 2 procs for 100 steps with 1 atoms, finish time Fri Mar 20 13:10:36 2020


Pair  time (%) = 6.90222e-05 (15.6486)
Neigh time (%) = 0 (0)
Comm  time (%) = 6.48499e-05 (14.7027)
Outpt time (%) = 2.20537e-05 (5)
Other time (%) = 0.000285149 (64.6486)

Nlocal:    0.5 ave 1 max 0 min
Histogram: 1 0 0 0 0 0 0 0 0 1
Nghost:    0.5 ave 1 max 0 min
Histogram: 1 0 0 0 0 0 0 0 0 1
Neighs:    0 ave 0 max 0 min
Histogram: 2 0 0 0 0 0 0 0 0 0

Total # of neighbors = 0
Ave neighs/atom = 0
Neighbor list builds = 0
Dangerous builds = 0
run 100    
Setting up run at Fri Mar 20 13:10:36 2020

Memory usage per processor = 4.23805 Mbytes
    Step    Atoms         KinEng            rke         Volume 
     400        1  9.8962117e-13              0          0.001 
CFD Coupling established at step 500
     500        1  1.4453308e-12              0          0.001 
Loop time of 0.000428915 on 2 procs for 100 steps with 1 atoms, finish time Fri Mar 20 13:10:36 2020


Pair  time (%) = 6.30617e-05 (14.7026)
Neigh time (%) = 0 (0)
Comm  time (%) = 6.60419e-05 (15.3974)
Outpt time (%) = 1.89543e-05 (4.41912)
Other time (%) = 0.000280857 (65.4808)

Nlocal:    0.5 ave 1 max 0 min
Histogram: 1 0 0 0 0 0 0 0 0 1
Nghost:    0.5 ave 1 max 0 min
Histogram: 1 0 0 0 0 0 0 0 0 1
Neighs:    0 ave 0 max 0 min
Histogram: 2 0 0 0 0 0 0 0 0 0

Total # of neighbors = 0
Ave neighs/atom = 0
Neighbor list builds = 0
Dangerous builds = 0
run 100    
Setting up run at Fri Mar 20 13:10:36 2020

Memory usage per processor = 4.23805 Mbytes
    Step    Atoms         KinEng            rke         Volume 
     500        1  1.4453308e-12              0          0.001 
CFD Coupling established at step 600
     600        1  1.9449214e-12              0          0.001 
Loop time of 0.000653505 on 2 procs for 100 steps with 1 atoms, finish time Fri Mar 20 13:10:36 2020


Pair  time (%) = 7.1764e-05 (10.9814)
Neigh time (%) = 0 (0)
Comm  time (%) = 9.59635e-05 (14.6844)
Outpt time (%) = 7.10487e-05 (10.8719)
Other time (%) = 0.000414729 (63.4622)

Nlocal:    0.5 ave 1 max 0 min
Histogram: 1 0 0 0 0 0 0 0 0 1
Nghost:    0.5 ave 1 max 0 min
Histogram: 1 0 0 0 0 0 0 0 0 1
Neighs:    0 ave 0 max 0 min
Histogram: 2 0 0 0 0 0 0 0 0 0

Total # of neighbors = 0
Ave neighs/atom = 0
Neighbor list builds = 0
Dangerous builds = 0
run 100    
Setting up run at Fri Mar 20 13:10:36 2020

Memory usage per processor = 4.23805 Mbytes
    Step    Atoms         KinEng            rke         Volume 
     600        1  1.9449214e-12              0          0.001 
CFD Coupling established at step 700
     700        1  2.4736447e-12              0          0.001 
Loop time of 0.000432014 on 2 procs for 100 steps with 1 atoms, finish time Fri Mar 20 13:10:36 2020


Pair  time (%) = 7.236e-05 (16.7494)
Neigh time (%) = 0 (0)
Comm  time (%) = 7.59363e-05 (17.5773)
Outpt time (%) = 2.5034e-05 (5.7947)
Other time (%) = 0.000258684 (59.8786)

Nlocal:    0.5 ave 1 max 0 min
Histogram: 1 0 0 0 0 0 0 0 0 1
Nghost:    0.5 ave 1 max 0 min
Histogram: 1 0 0 0 0 0 0 0 0 1
Neighs:    0 ave 0 max 0 min
Histogram: 2 0 0 0 0 0 0 0 0 0

Total # of neighbors = 0
Ave neighs/atom = 0
Neighbor list builds = 0
Dangerous builds = 0
run 100    
Setting up run at Fri Mar 20 13:10:36 2020

Memory usage per processor = 4.23805 Mbytes
    Step    Atoms         KinEng            rke         Volume 
     700        1  2.4736447e-12              0          0.001 
CFD Coupling established at step 800
     800        1  3.0189965e-12              0          0.001 
Loop time of 0.000433922 on 2 procs for 100 steps with 1 atoms, finish time Fri Mar 20 13:10:36 2020


Pair  time (%) = 7.18832e-05 (16.5659)
Neigh time (%) = 0 (0)
Comm  time (%) = 6.52075e-05 (15.0275)
Outpt time (%) = 2.59876e-05 (5.98901)
Other time (%) = 0.000270844 (62.4176)

Nlocal:    0.5 ave 1 max 0 min
Histogram: 1 0 0 0 0 0 0 0 0 1
Nghost:    0.5 ave 1 max 0 min
Histogram: 1 0 0 0 0 0 0 0 0 1
Neighs:    0 ave 0 max 0 min
Histogram: 2 0 0 0 0 0 0 0 0 0

Total # of neighbors = 0
Ave neighs/atom = 0
Neighbor list builds = 0
Dangerous builds = 0
run 100    
Setting up run at Fri Mar 20 13:10:36 2020

Memory usage per processor = 4.23805 Mbytes
    Step    Atoms         KinEng            rke         Volume 
     800        1  3.0189965e-12              0          0.001 
CFD Coupling established at step 900
     900        1   3.571137e-12              0          0.001 
Loop time of 0.000442386 on 2 procs for 100 steps with 1 atoms, finish time Fri Mar 20 13:10:36 2020


Pair  time (%) = 7.72476e-05 (17.4616)
Neigh time (%) = 0 (0)
Comm  time (%) = 6.86646e-05 (15.5214)
Outpt time (%) = 2.74181e-05 (6.19779)
Other time (%) = 0.000269055 (60.8192)

Nlocal:    0.5 ave 1 max 0 min
Histogram: 1 0 0 0 0 0 0 0 0 1
Nghost:    0.5 ave 1 max 0 min
Histogram: 1 0 0 0 0 0 0 0 0 1
Neighs:    0 ave 0 max 0 min
Histogram: 2 0 0 0 0 0 0 0 0 0

Total # of neighbors = 0
Ave neighs/atom = 0
Neighbor list builds = 0
Dangerous builds = 0
run 100    
Setting up run at Fri Mar 20 13:10:36 2020

Memory usage per processor = 4.23805 Mbytes
    Step    Atoms         KinEng            rke         Volume 
     900        1   3.571137e-12              0          0.001 
CFD Coupling established at step 1000
    1000        1  4.1219415e-12              0          0.001 
Loop time of 0.000470638 on 2 procs for 100 steps with 1 atoms, finish time Fri Mar 20 13:10:36 2020


Pair  time (%) = 7.49826e-05 (15.9321)
Neigh time (%) = 0 (0)
Comm  time (%) = 6.91414e-05 (14.691)
Outpt time (%) = 6.04391e-05 (12.8419)
Other time (%) = 0.000266075 (56.535)

Nlocal:    0.5 ave 1 max 0 min
Histogram: 1 0 0 0 0 0 0 0 0 1
Nghost:    0.5 ave 1 max 0 min
Histogram: 1 0 0 0 0 0 0 0 0 1
Neighs:    0 ave 0 max 0 min
Histogram: 2 0 0 0 0 0 0 0 0 0

Total # of neighbors = 0
Ave neighs/atom = 0
Neighbor list builds = 0
Dangerous builds = 0
write_restart ../DEM/post/restart/liggghts.restartCFDEM
run 100    
Setting up run at Fri Mar 20 13:10:36 2020

Memory usage per processor = 4.23811 Mbytes
    Step    Atoms         KinEng            rke         Volume 
    1000        1  4.1219415e-12              0          0.001 
CFD Coupling established at step 1100
    1100        1  4.6649276e-12              0          0.001 
Loop time of 0.000438571 on 2 procs for 100 steps with 1 atoms, finish time Fri Mar 20 13:10:36 2020


Pair  time (%) = 5.67436e-05 (12.9383)
Neigh time (%) = 0 (0)
Comm  time (%) = 5.32866e-05 (12.15)
Outpt time (%) = 1.90735e-05 (4.34901)
Other time (%) = 0.000309467 (70.5627)

Nlocal:    0.5 ave 1 max 0 min
Histogram: 1 0 0 0 0 0 0 0 0 1
Nghost:    0.5 ave 1 max 0 min
Histogram: 1 0 0 0 0 0 0 0 0 1
Neighs:    0 ave 0 max 0 min
Histogram: 2 0 0 0 0 0 0 0 0 0

Total # of neighbors = 0
Ave neighs/atom = 0
Neighbor list builds = 0
Dangerous builds = 0
write_restart ../DEM/post/restart/liggghts.restartCFDEM
run 100    
Setting up run at Fri Mar 20 13:10:36 2020

Memory usage per processor = 4.23811 Mbytes
    Step    Atoms         KinEng            rke         Volume 
    1100        1  4.6649276e-12              0          0.001 
CFD Coupling established at step 1200
    1200        1  5.1950893e-12              0          0.001 
Loop time of 0.000418425 on 2 procs for 100 steps with 1 atoms, finish time Fri Mar 20 13:10:36 2020


Pair  time (%) = 6.04391e-05 (14.4444)
Neigh time (%) = 0 (0)
Comm  time (%) = 4.81606e-05 (11.51)
Outpt time (%) = 1.89543e-05 (4.52991)
Other time (%) = 0.000290871 (69.5157)

Nlocal:    0.5 ave 1 max 0 min
Histogram: 1 0 0 0 0 0 0 0 0 1
Nghost:    0.5 ave 1 max 0 min
Histogram: 1 0 0 0 0 0 0 0 0 1
Neighs:    0 ave 0 max 0 min
Histogram: 2 0 0 0 0 0 0 0 0 0

Total # of neighbors = 0
Ave neighs/atom = 0
Neighbor list builds = 0
Dangerous builds = 0
write_restart ../DEM/post/restart/liggghts.restartCFDEM
run 100    
Setting up run at Fri Mar 20 13:10:36 2020

Memory usage per processor = 4.23811 Mbytes
    Step    Atoms         KinEng            rke         Volume 
    1200        1  5.1950893e-12              0          0.001 
CFD Coupling established at step 1300
    1300        1  5.7083293e-12              0          0.001 
Loop time of 0.00063765 on 2 procs for 100 steps with 1 atoms, finish time Fri Mar 20 13:10:36 2020


Pair  time (%) = 8.29697e-05 (13.0118)
Neigh time (%) = 0 (0)
Comm  time (%) = 8.10623e-05 (12.7127)
Outpt time (%) = 2.44379e-05 (3.83249)
Other time (%) = 0.000449181 (70.4431)

Nlocal:    0.5 ave 1 max 0 min
Histogram: 1 0 0 0 0 0 0 0 0 1
Nghost:    0.5 ave 1 max 0 min
Histogram: 1 0 0 0 0 0 0 0 0 1
Neighs:    0 ave 0 max 0 min
Histogram: 2 0 0 0 0 0 0 0 0 0

Total # of neighbors = 0
Ave neighs/atom = 0
Neighbor list builds = 0
Dangerous builds = 0
write_restart ../DEM/post/restart/liggghts.restartCFDEM
run 100    
Setting up run at Fri Mar 20 13:10:36 2020

Memory usage per processor = 4.23811 Mbytes
    Step    Atoms         KinEng            rke         Volume 
    1300        1  5.7083293e-12              0          0.001 
CFD Coupling established at step 1400
    1400        1  6.2021099e-12              0          0.001 
Loop time of 0.000445843 on 2 procs for 100 steps with 1 atoms, finish time Fri Mar 20 13:10:36 2020


Pair  time (%) = 7.05719e-05 (15.8289)
Neigh time (%) = 0 (0)
Comm  time (%) = 6.25849e-05 (14.0374)
Outpt time (%) = 1.9908e-05 (4.46524)
Other time (%) = 0.000292778 (65.6684)

Nlocal:    0.5 ave 1 max 0 min
Histogram: 1 0 0 0 0 0 0 0 0 1
Nghost:    0.5 ave 1 max 0 min
Histogram: 1 0 0 0 0 0 0 0 0 1
Neighs:    0 ave 0 max 0 min
Histogram: 2 0 0 0 0 0 0 0 0 0

Total # of neighbors = 0
Ave neighs/atom = 0
Neighbor list builds = 0
Dangerous builds = 0
write_restart ../DEM/post/restart/liggghts.restartCFDEM
run 100    
Setting up run at Fri Mar 20 13:10:36 2020

Memory usage per processor = 4.23811 Mbytes
    Step    Atoms         KinEng            rke         Volume 
    1400        1  6.2021099e-12              0          0.001 
CFD Coupling established at step 1500
    1500        1  6.6744617e-12              0          0.001 
Loop time of 0.000463486 on 2 procs for 100 steps with 1 atoms, finish time Fri Mar 20 13:10:36 2020


Pair  time (%) = 7.45058e-05 (16.0751)
Neigh time (%) = 0 (0)
Comm  time (%) = 6.7234e-05 (14.5062)
Outpt time (%) = 2.30074e-05 (4.96399)
Other time (%) = 0.000298738 (64.4547)

Nlocal:    0.5 ave 1 max 0 min
Histogram: 1 0 0 0 0 0 0 0 0 1
Nghost:    0.5 ave 1 max 0 min
Histogram: 1 0 0 0 0 0 0 0 0 1
Neighs:    0 ave 0 max 0 min
Histogram: 2 0 0 0 0 0 0 0 0 0

Total # of neighbors = 0
Ave neighs/atom = 0
Neighbor list builds = 0
Dangerous builds = 0
write_restart ../DEM/post/restart/liggghts.restartCFDEM
run 100    
Setting up run at Fri Mar 20 13:10:36 2020

Memory usage per processor = 4.23811 Mbytes
    Step    Atoms         KinEng            rke         Volume 
    1500        1  6.6744617e-12              0          0.001 
CFD Coupling established at step 1600
    1600        1  7.1238367e-12              0          0.001 
Loop time of 0.000644922 on 2 procs for 100 steps with 1 atoms, finish time Fri Mar 20 13:10:36 2020


Pair  time (%) = 6.91414e-05 (10.7209)
Neigh time (%) = 0 (0)
Comm  time (%) = 7.56979e-05 (11.7375)
Outpt time (%) = 3.94583e-05 (6.1183)
Other time (%) = 0.000460625 (71.4233)

Nlocal:    0.5 ave 1 max 0 min
Histogram: 1 0 0 0 0 0 0 0 0 1
Nghost:    0.5 ave 1 max 0 min
Histogram: 1 0 0 0 0 0 0 0 0 1
Neighs:    0 ave 0 max 0 min
Histogram: 2 0 0 0 0 0 0 0 0 0

Total # of neighbors = 0
Ave neighs/atom = 0
Neighbor list builds = 0
Dangerous builds = 0
write_restart ../DEM/post/restart/liggghts.restartCFDEM
run 100    
Setting up run at Fri Mar 20 13:10:36 2020

Memory usage per processor = 4.23811 Mbytes
    Step    Atoms         KinEng            rke         Volume 
    1600        1  7.1238367e-12              0          0.001 
CFD Coupling established at step 1700
    1700        1  7.5498128e-12              0          0.001 
Loop time of 0.00048995 on 2 procs for 100 steps with 1 atoms, finish time Fri Mar 20 13:10:36 2020


Pair  time (%) = 7.62939e-05 (15.5718)
Neigh time (%) = 0 (0)
Comm  time (%) = 5.85318e-05 (11.9465)
Outpt time (%) = 2.80142e-05 (5.71776)
Other time (%) = 0.00032711 (66.764)

Nlocal:    0.5 ave 1 max 0 min
Histogram: 1 0 0 0 0 0 0 0 0 1
Nghost:    0.5 ave 1 max 0 min
Histogram: 1 0 0 0 0 0 0 0 0 1
Neighs:    0 ave 0 max 0 min
Histogram: 2 0 0 0 0 0 0 0 0 0

Total # of neighbors = 0
Ave neighs/atom = 0
Neighbor list builds = 0
Dangerous builds = 0
write_restart ../DEM/post/restart/liggghts.restartCFDEM
run 100    
Setting up run at Fri Mar 20 13:10:36 2020

Memory usage per processor = 4.23811 Mbytes
    Step    Atoms         KinEng            rke         Volume 
    1700        1  7.5498128e-12              0          0.001 
CFD Coupling established at step 1800
    1800        1  7.9521313e-12              0          0.001 
Loop time of 0.000430822 on 2 procs for 100 steps with 1 atoms, finish time Fri Mar 20 13:10:36 2020


Pair  time (%) = 6.13928e-05 (14.2501)
Neigh time (%) = 0 (0)
Comm  time (%) = 6.55651e-05 (15.2186)
Outpt time (%) = 2.30074e-05 (5.34034)
Other time (%) = 0.000280857 (65.1909)

Nlocal:    0.5 ave 1 max 0 min
Histogram: 1 0 0 0 0 0 0 0 0 1
Nghost:    0.5 ave 1 max 0 min
Histogram: 1 0 0 0 0 0 0 0 0 1
Neighs:    0 ave 0 max 0 min
Histogram: 2 0 0 0 0 0 0 0 0 0

Total # of neighbors = 0
Ave neighs/atom = 0
Neighbor list builds = 0
Dangerous builds = 0
write_restart ../DEM/post/restart/liggghts.restartCFDEM
run 100    
Setting up run at Fri Mar 20 13:10:36 2020

Memory usage per processor = 4.23811 Mbytes
    Step    Atoms         KinEng            rke         Volume 
    1800        1  7.9521313e-12              0          0.001 
CFD Coupling established at step 1900
    1900        1   8.330464e-12              0          0.001 
Loop time of 0.000456452 on 2 procs for 100 steps with 1 atoms, finish time Fri Mar 20 13:10:36 2020


Pair  time (%) = 6.81877e-05 (14.9386)
Neigh time (%) = 0 (0)
Comm  time (%) = 5.59092e-05 (12.2486)
Outpt time (%) = 4.25577e-05 (9.32358)
Other time (%) = 0.000289798 (63.4892)

Nlocal:    0.5 ave 1 max 0 min
Histogram: 1 0 0 0 0 0 0 0 0 1
Nghost:    0.5 ave 1 max 0 min
Histogram: 1 0 0 0 0 0 0 0 0 1
Neighs:    0 ave 0 max 0 min
Histogram: 2 0 0 0 0 0 0 0 0 0

Total # of neighbors = 0
Ave neighs/atom = 0
Neighbor list builds = 0
Dangerous builds = 0
write_restart ../DEM/post/restart/liggghts.restartCFDEM
run 100    
Setting up run at Fri Mar 20 13:10:36 2020

Memory usage per processor = 4.23811 Mbytes
    Step    Atoms         KinEng            rke         Volume 
    1900        1   8.330464e-12              0          0.001 
CFD Coupling established at step 2000
    2000        1  8.6856554e-12              0          0.001 
Loop time of 0.000448465 on 2 procs for 100 steps with 1 atoms, finish time Fri Mar 20 13:10:36 2020


Pair  time (%) = 6.06775e-05 (13.53)
Neigh time (%) = 0 (0)
Comm  time (%) = 4.8995e-05 (10.925)
Outpt time (%) = 4.75645e-05 (10.6061)
Other time (%) = 0.000291228 (64.9389)

Nlocal:    0.5 ave 1 max 0 min
Histogram: 1 0 0 0 0 0 0 0 0 1
Nghost:    0.5 ave 1 max 0 min
Histogram: 1 0 0 0 0 0 0 0 0 1
Neighs:    0 ave 0 max 0 min
Histogram: 2 0 0 0 0 0 0 0 0 0

Total # of neighbors = 0
Ave neighs/atom = 0
Neighbor list builds = 0
Dangerous builds = 0
write_restart ../DEM/post/restart/liggghts.restartCFDEM
run 100    
Setting up run at Fri Mar 20 13:10:37 2020

Memory usage per processor = 4.23811 Mbytes
    Step    Atoms         KinEng            rke         Volume 
    2000        1  8.6856554e-12              0          0.001 
CFD Coupling established at step 2100
    2100        1  9.0183036e-12              0          0.001 
Loop time of 0.000401974 on 2 procs for 100 steps with 1 atoms, finish time Fri Mar 20 13:10:37 2020


Pair  time (%) = 5.67436e-05 (14.1163)
Neigh time (%) = 0 (0)
Comm  time (%) = 8.15392e-05 (20.2847)
Outpt time (%) = 1.20401e-05 (2.99526)
Other time (%) = 0.000251651 (62.6038)

Nlocal:    0.5 ave 1 max 0 min
Histogram: 1 0 0 0 0 0 0 0 0 1
Nghost:    0.5 ave 1 max 0 min
Histogram: 1 0 0 0 0 0 0 0 0 1
Neighs:    0 ave 0 max 0 min
Histogram: 2 0 0 0 0 0 0 0 0 0

Total # of neighbors = 0
Ave neighs/atom = 0
Neighbor list builds = 0
Dangerous builds = 0
write_restart ../DEM/post/restart/liggghts.restartCFDEM
run 100    
Setting up run at Fri Mar 20 13:10:37 2020

Memory usage per processor = 4.23811 Mbytes
    Step    Atoms         KinEng            rke         Volume 
    2100        1  9.0183036e-12              0          0.001 
CFD Coupling established at step 2200
    2200        1  9.3287788e-12              0          0.001 
Loop time of 0.000417471 on 2 procs for 100 steps with 1 atoms, finish time Fri Mar 20 13:10:37 2020


Pair  time (%) = 5.61476e-05 (13.4495)
Neigh time (%) = 0 (0)
Comm  time (%) = 6.63996e-05 (15.9052)
Outpt time (%) = 2.30074e-05 (5.51114)
Other time (%) = 0.000271916 (65.1342)

Nlocal:    0.5 ave 1 max 0 min
Histogram: 1 0 0 0 0 0 0 0 0 1
Nghost:    0.5 ave 1 max 0 min
Histogram: 1 0 0 0 0 0 0 0 0 1
Neighs:    0 ave 0 max 0 min
Histogram: 2 0 0 0 0 0 0 0 0 0

Total # of neighbors = 0
Ave neighs/atom = 0
Neighbor list builds = 0
Dangerous builds = 0
write_restart ../DEM/post/restart/liggghts.restartCFDEM
run 100    
Setting up run at Fri Mar 20 13:10:37 2020

Memory usage per processor = 4.23811 Mbytes
    Step    Atoms         KinEng            rke         Volume 
    2200        1  9.3287788e-12              0          0.001 
CFD Coupling established at step 2300
    2300        1  9.6183809e-12              0          0.001 
Loop time of 0.000427008 on 2 procs for 100 steps with 1 atoms, finish time Fri Mar 20 13:10:37 2020


Pair  time (%) = 6.38962e-05 (14.9637)
Neigh time (%) = 0 (0)
Comm  time (%) = 6.52075e-05 (15.2708)
Outpt time (%) = 2.0504e-05 (4.80179)
Other time (%) = 0.0002774 (64.9637)

Nlocal:    0.5 ave 1 max 0 min
Histogram: 1 0 0 0 0 0 0 0 0 1
Nghost:    0.5 ave 1 max 0 min
Histogram: 1 0 0 0 0 0 0 0 0 1
Neighs:    0 ave 0 max 0 min
Histogram: 2 0 0 0 0 0 0 0 0 0

Total # of neighbors = 0
Ave neighs/atom = 0
Neighbor list builds = 0
Dangerous builds = 0
write_restart ../DEM/post/restart/liggghts.restartCFDEM
run 100    
Setting up run at Fri Mar 20 13:10:37 2020

Memory usage per processor = 4.23811 Mbytes
    Step    Atoms         KinEng            rke         Volume 
    2300        1  9.6183809e-12              0          0.001 
CFD Coupling established at step 2400
    2400        1  9.8880602e-12              0          0.001 
Loop time of 0.000415921 on 2 procs for 100 steps with 1 atoms, finish time Fri Mar 20 13:10:37 2020


Pair  time (%) = 6.99759e-05 (16.8243)
Neigh time (%) = 0 (0)
Comm  time (%) = 5.90086e-05 (14.1874)
Outpt time (%) = 1.89543e-05 (4.55718)
Other time (%) = 0.000267982 (64.4311)

Nlocal:    0.5 ave 1 max 0 min
Histogram: 1 0 0 0 0 0 0 0 0 1
Nghost:    0.5 ave 1 max 0 min
Histogram: 1 0 0 0 0 0 0 0 0 1
Neighs:    0 ave 0 max 0 min
Histogram: 2 0 0 0 0 0 0 0 0 0

Total # of neighbors = 0
Ave neighs/atom = 0
Neighbor list builds = 0
Dangerous builds = 0
write_restart ../DEM/post/restart/liggghts.restartCFDEM
run 100    
Setting up run at Fri Mar 20 13:10:37 2020

Memory usage per processor = 4.23811 Mbytes
    Step    Atoms         KinEng            rke         Volume 
    2400        1  9.8880602e-12              0          0.001 
CFD Coupling established at step 2500
    2500        1  1.0138276e-11              0          0.001 
Loop time of 0.000415564 on 2 procs for 100 steps with 1 atoms, finish time Fri Mar 20 13:10:37 2020


Pair  time (%) = 5.68628e-05 (13.6833)
Neigh time (%) = 0 (0)
Comm  time (%) = 4.56572e-05 (10.9868)
Outpt time (%) = 2.15769e-05 (5.1922)
Other time (%) = 0.000291467 (70.1377)

Nlocal:    0.5 ave 1 max 0 min
Histogram: 1 0 0 0 0 0 0 0 0 1
Nghost:    0.5 ave 1 max 0 min
Histogram: 1 0 0 0 0 0 0 0 0 1
Neighs:    0 ave 0 max 0 min
Histogram: 2 0 0 0 0 0 0 0 0 0

Total # of neighbors = 0
Ave neighs/atom = 0
Neighbor list builds = 0
Dangerous builds = 0
write_restart ../DEM/post/restart/liggghts.restartCFDEM
run 100    
Setting up run at Fri Mar 20 13:10:37 2020

Memory usage per processor = 4.23811 Mbytes
    Step    Atoms         KinEng            rke         Volume 
    2500        1  1.0138276e-11              0          0.001 
CFD Coupling established at step 2600
    2600        1  1.0370645e-11              0          0.001 
Loop time of 0.000475168 on 2 procs for 100 steps with 1 atoms, finish time Fri Mar 20 13:10:37 2020


Pair  time (%) = 8.76188e-05 (18.4395)
Neigh time (%) = 0 (0)
Comm  time (%) = 6.05583e-05 (12.7446)
Outpt time (%) = 1.95503e-05 (4.1144)
Other time (%) = 0.000307441 (64.7015)

Nlocal:    0.5 ave 1 max 0 min
Histogram: 1 0 0 0 0 0 0 0 0 1
Nghost:    0.5 ave 1 max 0 min
Histogram: 1 0 0 0 0 0 0 0 0 1
Neighs:    0 ave 0 max 0 min
Histogram: 2 0 0 0 0 0 0 0 0 0

Total # of neighbors = 0
Ave neighs/atom = 0
Neighbor list builds = 0
Dangerous builds = 0
write_restart ../DEM/post/restart/liggghts.restartCFDEM
run 100    
Setting up run at Fri Mar 20 13:10:37 2020

Memory usage per processor = 4.23811 Mbytes
    Step    Atoms         KinEng            rke         Volume 
    2600        1  1.0370645e-11              0          0.001 
CFD Coupling established at step 2700
    2700        1  1.0586193e-11              0          0.001 
Loop time of 0.000466108 on 2 procs for 100 steps with 1 atoms, finish time Fri Mar 20 13:10:37 2020


Pair  time (%) = 7.82013e-05 (16.7775)
Neigh time (%) = 0 (0)
Comm  time (%) = 7.1764e-05 (15.3964)
Outpt time (%) = 3.14713e-05 (6.75192)
Other time (%) = 0.000284672 (61.0742)

Nlocal:    0.5 ave 1 max 0 min
Histogram: 1 0 0 0 0 0 0 0 0 1
Nghost:    0.5 ave 1 max 0 min
Histogram: 1 0 0 0 0 0 0 0 0 1
Neighs:    0 ave 0 max 0 min
Histogram: 2 0 0 0 0 0 0 0 0 0

Total # of neighbors = 0
Ave neighs/atom = 0
Neighbor list builds = 0
Dangerous builds = 0
write_restart ../DEM/post/restart/liggghts.restartCFDEM
run 100    
Setting up run at Fri Mar 20 13:10:37 2020

Memory usage per processor = 4.23811 Mbytes
    Step    Atoms         KinEng            rke         Volume 
    2700        1  1.0586193e-11              0          0.001 
CFD Coupling established at step 2800
    2800        1  1.0785937e-11              0          0.001 
Loop time of 0.000651598 on 2 procs for 100 steps with 1 atoms, finish time Fri Mar 20 13:10:37 2020


Pair  time (%) = 8.45194e-05 (12.9711)
Neigh time (%) = 0 (0)
Comm  time (%) = 8.49962e-05 (13.0443)
Outpt time (%) = 3.89814e-05 (5.98244)
Other time (%) = 0.000443101 (68.0022)

Nlocal:    0.5 ave 1 max 0 min
Histogram: 1 0 0 0 0 0 0 0 0 1
Nghost:    0.5 ave 1 max 0 min
Histogram: 1 0 0 0 0 0 0 0 0 1
Neighs:    0 ave 0 max 0 min
Histogram: 2 0 0 0 0 0 0 0 0 0

Total # of neighbors = 0
Ave neighs/atom = 0
Neighbor list builds = 0
Dangerous builds = 0
write_restart ../DEM/post/restart/liggghts.restartCFDEM
run 100    
Setting up run at Fri Mar 20 13:10:37 2020

Memory usage per processor = 4.23811 Mbytes
    Step    Atoms         KinEng            rke         Volume 
    2800        1  1.0785937e-11              0          0.001 
CFD Coupling established at step 2900
    2900        1  1.0970068e-11              0          0.001 
Loop time of 0.000433922 on 2 procs for 100 steps with 1 atoms, finish time Fri Mar 20 13:10:37 2020


Pair  time (%) = 6.11544e-05 (14.0934)
Neigh time (%) = 0 (0)
Comm  time (%) = 7.35521e-05 (16.9505)
Outpt time (%) = 2.59876e-05 (5.98901)
Other time (%) = 0.000273228 (62.967)

Nlocal:    0.5 ave 1 max 0 min
Histogram: 1 0 0 0 0 0 0 0 0 1
Nghost:    0.5 ave 1 max 0 min
Histogram: 1 0 0 0 0 0 0 0 0 1
Neighs:    0 ave 0 max 0 min
Histogram: 2 0 0 0 0 0 0 0 0 0

Total # of neighbors = 0
Ave neighs/atom = 0
Neighbor list builds = 0
Dangerous builds = 0
write_restart ../DEM/post/restart/liggghts.restartCFDEM
run 100    
Setting up run at Fri Mar 20 13:10:37 2020

Memory usage per processor = 4.23811 Mbytes
    Step    Atoms         KinEng            rke         Volume 
    2900        1  1.0970068e-11              0          0.001 
CFD Coupling established at step 3000
    3000        1  1.1140446e-11              0          0.001 
Loop time of 0.000529528 on 2 procs for 100 steps with 1 atoms, finish time Fri Mar 20 13:10:37 2020


Pair  time (%) = 7.92742e-05 (14.9707)
Neigh time (%) = 0 (0)
Comm  time (%) = 6.13928e-05 (11.5939)
Outpt time (%) = 8.64267e-05 (16.3215)
Other time (%) = 0.000302434 (57.1139)

Nlocal:    0.5 ave 1 max 0 min
Histogram: 1 0 0 0 0 0 0 0 0 1
Nghost:    0.5 ave 1 max 0 min
Histogram: 1 0 0 0 0 0 0 0 0 1
Neighs:    0 ave 0 max 0 min
Histogram: 2 0 0 0 0 0 0 0 0 0

Total # of neighbors = 0
Ave neighs/atom = 0
Neighbor list builds = 0
Dangerous builds = 0
write_restart ../DEM/post/restart/liggghts.restartCFDEM
run 100    
Setting up run at Fri Mar 20 13:10:37 2020

Memory usage per processor = 5.23812 Mbytes
    Step    Atoms         KinEng            rke         Volume 
    3000        1  1.1140446e-11              0          0.001 
CFD Coupling established at step 3100
    3100        1  1.1297994e-11              0          0.001 
Loop time of 0.000486135 on 2 procs for 100 steps with 1 atoms, finish time Fri Mar 20 13:10:37 2020


Pair  time (%) = 6.73532e-05 (13.8548)
Neigh time (%) = 0 (0)
Comm  time (%) = 7.10487e-05 (14.615)
Outpt time (%) = 2.69413e-05 (5.54193)
Other time (%) = 0.000320792 (65.9882)

Nlocal:    0.5 ave 1 max 0 min
Histogram: 1 0 0 0 0 0 0 0 0 1
Nghost:    0.5 ave 1 max 0 min
Histogram: 1 0 0 0 0 0 0 0 0 1
Neighs:    0 ave 0 max 0 min
Histogram: 2 0 0 0 0 0 0 0 0 0

Total # of neighbors = 0
Ave neighs/atom = 0
Neighbor list builds = 0
Dangerous builds = 0
write_restart ../DEM/post/restart/liggghts.restartCFDEM
run 100    
Setting up run at Fri Mar 20 13:10:37 2020

Memory usage per processor = 5.23812 Mbytes
    Step    Atoms         KinEng            rke         Volume 
    3100        1  1.1297994e-11              0          0.001 
CFD Coupling established at step 3200
    3200        1  1.1437845e-11              0          0.001 
Loop time of 0.00047195 on 2 procs for 100 steps with 1 atoms, finish time Fri Mar 20 13:10:37 2020


Pair  time (%) = 8.38041e-05 (17.757)
Neigh time (%) = 0 (0)
Comm  time (%) = 6.83069e-05 (14.4734)
Outpt time (%) = 2.44379e-05 (5.17808)
Other time (%) = 0.000295401 (62.5916)

Nlocal:    0.5 ave 1 max 0 min
Histogram: 1 0 0 0 0 0 0 0 0 1
Nghost:    0.5 ave 1 max 0 min
Histogram: 1 0 0 0 0 0 0 0 0 1
Neighs:    0 ave 0 max 0 min
Histogram: 2 0 0 0 0 0 0 0 0 0

Total # of neighbors = 0
Ave neighs/atom = 0
Neighbor list builds = 0
Dangerous builds = 0
write_restart ../DEM/post/restart/liggghts.restartCFDEM
run 100    
Setting up run at Fri Mar 20 13:10:37 2020

Memory usage per processor = 5.23812 Mbytes
    Step    Atoms         KinEng            rke         Volume 
    3200        1  1.1437845e-11              0          0.001 
CFD Coupling established at step 3300
    3300        1  1.1567115e-11              0          0.001 
Loop time of 0.000462055 on 2 procs for 100 steps with 1 atoms, finish time Fri Mar 20 13:10:37 2020


Pair  time (%) = 7.10487e-05 (15.3767)
Neigh time (%) = 0 (0)
Comm  time (%) = 6.2108e-05 (13.4417)
Outpt time (%) = 2.30074e-05 (4.97936)
Other time (%) = 0.000305891 (66.2023)

Nlocal:    0.5 ave 1 max 0 min
Histogram: 1 0 0 0 0 0 0 0 0 1
Nghost:    0.5 ave 1 max 0 min
Histogram: 1 0 0 0 0 0 0 0 0 1
Neighs:    0 ave 0 max 0 min
Histogram: 2 0 0 0 0 0 0 0 0 0

Total # of neighbors = 0
Ave neighs/atom = 0
Neighbor list builds = 0
Dangerous builds = 0
write_restart ../DEM/post/restart/liggghts.restartCFDEM
run 100    
Setting up run at Fri Mar 20 13:10:37 2020

Memory usage per processor = 5.23812 Mbytes
    Step    Atoms         KinEng            rke         Volume 
    3300        1  1.1567115e-11              0          0.001 
CFD Coupling established at step 3400
    3400        1   1.168656e-11              0          0.001 
Loop time of 0.000462055 on 2 procs for 100 steps with 1 atoms, finish time Fri Mar 20 13:10:37 2020


Pair  time (%) = 7.36713e-05 (15.9443)
Neigh time (%) = 0 (0)
Comm  time (%) = 6.96182e-05 (15.0671)
Outpt time (%) = 2.99215e-05 (6.47575)
Other time (%) = 0.000288844 (62.5129)

Nlocal:    0.5 ave 1 max 0 min
Histogram: 1 0 0 0 0 0 0 0 0 1
Nghost:    0.5 ave 1 max 0 min
Histogram: 1 0 0 0 0 0 0 0 0 1
Neighs:    0 ave 0 max 0 min
Histogram: 2 0 0 0 0 0 0 0 0 0

Total # of neighbors = 0
Ave neighs/atom = 0
Neighbor list builds = 0
Dangerous builds = 0
write_restart ../DEM/post/restart/liggghts.restartCFDEM
run 100    
Setting up run at Fri Mar 20 13:10:37 2020

Memory usage per processor = 5.23812 Mbytes
    Step    Atoms         KinEng            rke         Volume 
    3400        1   1.168656e-11              0          0.001 
CFD Coupling established at step 3500
    3500        1  1.1796901e-11              0          0.001 
Loop time of 0.000455856 on 2 procs for 100 steps with 1 atoms, finish time Fri Mar 20 13:10:37 2020


Pair  time (%) = 7.80821e-05 (17.1287)
Neigh time (%) = 0 (0)
Comm  time (%) = 6.17504e-05 (13.546)
Outpt time (%) = 2.55108e-05 (5.59623)
Other time (%) = 0.000290513 (63.7291)

Nlocal:    0.5 ave 1 max 0 min
Histogram: 1 0 0 0 0 0 0 0 0 1
Nghost:    0.5 ave 1 max 0 min
Histogram: 1 0 0 0 0 0 0 0 0 1
Neighs:    0 ave 0 max 0 min
Histogram: 2 0 0 0 0 0 0 0 0 0

Total # of neighbors = 0
Ave neighs/atom = 0
Neighbor list builds = 0
Dangerous builds = 0
write_restart ../DEM/post/restart/liggghts.restartCFDEM
run 100    
Setting up run at Fri Mar 20 13:10:37 2020

Memory usage per processor = 5.23812 Mbytes
    Step    Atoms         KinEng            rke         Volume 
    3500        1  1.1796901e-11              0          0.001 
CFD Coupling established at step 3600
    3600        1  1.1898818e-11              0          0.001 
Loop time of 0.000472069 on 2 procs for 100 steps with 1 atoms, finish time Fri Mar 20 13:10:37 2020


Pair  time (%) = 7.51019e-05 (15.9091)
Neigh time (%) = 0 (0)
Comm  time (%) = 6.1512e-05 (13.0303)
Outpt time (%) = 2.5034e-05 (5.30303)
Other time (%) = 0.000310421 (65.7576)

Nlocal:    0.5 ave 1 max 0 min
Histogram: 1 0 0 0 0 0 0 0 0 1
Nghost:    0.5 ave 1 max 0 min
Histogram: 1 0 0 0 0 0 0 0 0 1
Neighs:    0 ave 0 max 0 min
Histogram: 2 0 0 0 0 0 0 0 0 0

Total # of neighbors = 0
Ave neighs/atom = 0
Neighbor list builds = 0
Dangerous builds = 0
write_restart ../DEM/post/restart/liggghts.restartCFDEM
run 100    
Setting up run at Fri Mar 20 13:10:37 2020

Memory usage per processor = 5.23812 Mbytes
    Step    Atoms         KinEng            rke         Volume 
    3600        1  1.1898818e-11              0          0.001 
CFD Coupling established at step 3700
    3700        1  1.1992948e-11              0          0.001 
Loop time of 0.000434637 on 2 procs for 100 steps with 1 atoms, finish time Fri Mar 20 13:10:37 2020


Pair  time (%) = 7.09295e-05 (16.3193)
Neigh time (%) = 0 (0)
Comm  time (%) = 5.99623e-05 (13.7959)
Outpt time (%) = 3.00407e-05 (6.91168)
Other time (%) = 0.000273705 (62.9731)

Nlocal:    0.5 ave 1 max 0 min
Histogram: 1 0 0 0 0 0 0 0 0 1
Nghost:    0.5 ave 1 max 0 min
Histogram: 1 0 0 0 0 0 0 0 0 1
Neighs:    0 ave 0 max 0 min
Histogram: 2 0 0 0 0 0 0 0 0 0

Total # of neighbors = 0
Ave neighs/atom = 0
Neighbor list builds = 0
Dangerous builds = 0
write_restart ../DEM/post/restart/liggghts.restartCFDEM
run 100    
Setting up run at Fri Mar 20 13:10:37 2020

Memory usage per processor = 5.23812 Mbytes
    Step    Atoms         KinEng            rke         Volume 
    3700        1  1.1992948e-11              0          0.001 
CFD Coupling established at step 3800
    3800        1  1.2079884e-11              0          0.001 
Loop time of 0.000436068 on 2 procs for 100 steps with 1 atoms, finish time Fri Mar 20 13:10:37 2020


Pair  time (%) = 6.47306e-05 (14.8442)
Neigh time (%) = 0 (0)
Comm  time (%) = 6.34193e-05 (14.5435)
Outpt time (%) = 2.64645e-05 (6.06889)
Other time (%) = 0.000281453 (64.5435)

Nlocal:    0.5 ave 1 max 0 min
Histogram: 1 0 0 0 0 0 0 0 0 1
Nghost:    0.5 ave 1 max 0 min
Histogram: 1 0 0 0 0 0 0 0 0 1
Neighs:    0 ave 0 max 0 min
Histogram: 2 0 0 0 0 0 0 0 0 0

Total # of neighbors = 0
Ave neighs/atom = 0
Neighbor list builds = 0
Dangerous builds = 0
write_restart ../DEM/post/restart/liggghts.restartCFDEM
run 100    
Setting up run at Fri Mar 20 13:10:37 2020

Memory usage per processor = 5.23812 Mbytes
    Step    Atoms         KinEng            rke         Volume 
    3800        1  1.2079884e-11              0          0.001 
CFD Coupling established at step 3900
    3900        1  1.2160183e-11              0          0.001 
Loop time of 0.000452518 on 2 procs for 100 steps with 1 atoms, finish time Fri Mar 20 13:10:37 2020


Pair  time (%) = 8.01086e-05 (17.7028)
Neigh time (%) = 0 (0)
Comm  time (%) = 6.54459e-05 (14.4626)
Outpt time (%) = 2.34842e-05 (5.18967)
Other time (%) = 0.00028348 (62.6449)

Nlocal:    0.5 ave 1 max 0 min
Histogram: 1 0 0 0 0 0 0 0 0 1
Nghost:    0.5 ave 1 max 0 min
Histogram: 1 0 0 0 0 0 0 0 0 1
Neighs:    0 ave 0 max 0 min
Histogram: 2 0 0 0 0 0 0 0 0 0

Total # of neighbors = 0
Ave neighs/atom = 0
Neighbor list builds = 0
Dangerous builds = 0
write_restart ../DEM/post/restart/liggghts.restartCFDEM
run 100    
Setting up run at Fri Mar 20 13:10:37 2020

Memory usage per processor = 5.23812 Mbytes
    Step    Atoms         KinEng            rke         Volume 
    3900        1  1.2160183e-11              0          0.001 
CFD Coupling established at step 4000
    4000        1  1.2234361e-11              0          0.001 
Loop time of 0.00049305 on 2 procs for 100 steps with 1 atoms, finish time Fri Mar 20 13:10:37 2020


Pair  time (%) = 7.1764e-05 (14.5551)
Neigh time (%) = 0 (0)
Comm  time (%) = 6.24657e-05 (12.6692)
Outpt time (%) = 6.68764e-05 (13.5638)
Other time (%) = 0.000291944 (59.2118)

Nlocal:    0.5 ave 1 max 0 min
Histogram: 1 0 0 0 0 0 0 0 0 1
Nghost:    0.5 ave 1 max 0 min
Histogram: 1 0 0 0 0 0 0 0 0 1
Neighs:    0 ave 0 max 0 min
Histogram: 2 0 0 0 0 0 0 0 0 0

Total # of neighbors = 0
Ave neighs/atom = 0
Neighbor list builds = 0
Dangerous builds = 0
write_restart ../DEM/post/restart/liggghts.restartCFDEM
run 100    
Setting up run at Fri Mar 20 13:10:37 2020

Memory usage per processor = 5.23812 Mbytes
    Step    Atoms         KinEng            rke         Volume 
    4000        1  1.2234361e-11              0          0.001 
CFD Coupling established at step 4100
    4100        1  1.2302897e-11              0          0.001 
Loop time of 0.00047946 on 2 procs for 100 steps with 1 atoms, finish time Fri Mar 20 13:10:37 2020


Pair  time (%) = 9.26256e-05 (19.3187)
Neigh time (%) = 0 (0)
Comm  time (%) = 6.60419e-05 (13.7742)
Outpt time (%) = 2.74181e-05 (5.71855)
Other time (%) = 0.000293374 (61.1885)

Nlocal:    0.5 ave 1 max 0 min
Histogram: 1 0 0 0 0 0 0 0 0 1
Nghost:    0.5 ave 1 max 0 min
Histogram: 1 0 0 0 0 0 0 0 0 1
Neighs:    0 ave 0 max 0 min
Histogram: 2 0 0 0 0 0 0 0 0 0

Total # of neighbors = 0
Ave neighs/atom = 0
Neighbor list builds = 0
Dangerous builds = 0
write_restart ../DEM/post/restart/liggghts.restartCFDEM
run 100    
Setting up run at Fri Mar 20 13:10:37 2020

Memory usage per processor = 5.23812 Mbytes
    Step    Atoms         KinEng            rke         Volume 
    4100        1  1.2302897e-11              0          0.001 
CFD Coupling established at step 4200
    4200        1  1.2366237e-11              0          0.001 
Loop time of 0.000376463 on 2 procs for 100 steps with 1 atoms, finish time Fri Mar 20 13:10:37 2020


Pair  time (%) = 5.17368e-05 (13.7429)
Neigh time (%) = 0 (0)
Comm  time (%) = 4.74453e-05 (12.6029)
Outpt time (%) = 1.14441e-05 (3.0399)
Other time (%) = 0.000265837 (70.6143)

Nlocal:    0.5 ave 1 max 0 min
Histogram: 1 0 0 0 0 0 0 0 0 1
Nghost:    0.5 ave 1 max 0 min
Histogram: 1 0 0 0 0 0 0 0 0 1
Neighs:    0 ave 0 max 0 min
Histogram: 2 0 0 0 0 0 0 0 0 0

Total # of neighbors = 0
Ave neighs/atom = 0
Neighbor list builds = 0
Dangerous builds = 0
write_restart ../DEM/post/restart/liggghts.restartCFDEM
run 100    
Setting up run at Fri Mar 20 13:10:37 2020

Memory usage per processor = 5.23812 Mbytes
    Step    Atoms         KinEng            rke         Volume 
    4200        1  1.2366237e-11              0          0.001 
CFD Coupling established at step 4300
    4300        1  1.2424791e-11              0          0.001 
Loop time of 0.000444889 on 2 procs for 100 steps with 1 atoms, finish time Fri Mar 20 13:10:37 2020


Pair  time (%) = 6.22272e-05 (13.9871)
Neigh time (%) = 0 (0)
Comm  time (%) = 7.89165e-05 (17.7385)
Outpt time (%) = 2.06232e-05 (4.63558)
Other time (%) = 0.000283122 (63.6388)

Nlocal:    0.5 ave 1 max 0 min
Histogram: 1 0 0 0 0 0 0 0 0 1
Nghost:    0.5 ave 1 max 0 min
Histogram: 1 0 0 0 0 0 0 0 0 1
Neighs:    0 ave 0 max 0 min
Histogram: 2 0 0 0 0 0 0 0 0 0

Total # of neighbors = 0
Ave neighs/atom = 0
Neighbor list builds = 0
Dangerous builds = 0
write_restart ../DEM/post/restart/liggghts.restartCFDEM
run 100    
Setting up run at Fri Mar 20 13:10:37 2020

Memory usage per processor = 5.23812 Mbytes
    Step    Atoms         KinEng            rke         Volume 
    4300        1  1.2424791e-11              0          0.001 
CFD Coupling established at step 4400
    4400        1  1.2478943e-11              0          0.001 
Loop time of 0.000422955 on 2 procs for 100 steps with 1 atoms, finish time Fri Mar 20 13:10:37 2020


Pair  time (%) = 5.47171e-05 (12.9369)
Neigh time (%) = 0 (0)
Comm  time (%) = 5.71012e-05 (13.5006)
Outpt time (%) = 2.64645e-05 (6.25705)
Other time (%) = 0.000284672 (67.3055)

Nlocal:    0.5 ave 1 max 0 min
Histogram: 1 0 0 0 0 0 0 0 0 1
Nghost:    0.5 ave 1 max 0 min
Histogram: 1 0 0 0 0 0 0 0 0 1
Neighs:    0 ave 0 max 0 min
Histogram: 2 0 0 0 0 0 0 0 0 0

Total # of neighbors = 0
Ave neighs/atom = 0
Neighbor list builds = 0
Dangerous builds = 0
write_restart ../DEM/post/restart/liggghts.restartCFDEM
run 100    
Setting up run at Fri Mar 20 13:10:37 2020

Memory usage per processor = 5.23812 Mbytes
    Step    Atoms         KinEng            rke         Volume 
    4400        1  1.2478943e-11              0          0.001 
CFD Coupling established at step 4500
    4500        1  1.2529045e-11              0          0.001 
Loop time of 0.000456572 on 2 procs for 100 steps with 1 atoms, finish time Fri Mar 20 13:10:37 2020


Pair  time (%) = 7.20024e-05 (15.7702)
Neigh time (%) = 0 (0)
Comm  time (%) = 6.02007e-05 (13.1854)
Outpt time (%) = 2.55108e-05 (5.58747)
Other time (%) = 0.000298858 (65.4569)

Nlocal:    0.5 ave 1 max 0 min
Histogram: 1 0 0 0 0 0 0 0 0 1
Nghost:    0.5 ave 1 max 0 min
Histogram: 1 0 0 0 0 0 0 0 0 1
Neighs:    0 ave 0 max 0 min
Histogram: 2 0 0 0 0 0 0 0 0 0

Total # of neighbors = 0
Ave neighs/atom = 0
Neighbor list builds = 0
Dangerous builds = 0
write_restart ../DEM/post/restart/liggghts.restartCFDEM
run 100    
Setting up run at Fri Mar 20 13:10:37 2020

Memory usage per processor = 5.23812 Mbytes
    Step    Atoms         KinEng            rke         Volume 
    4500        1  1.2529045e-11              0          0.001 
CFD Coupling established at step 4600
    4600        1  1.2575421e-11              0          0.001 
Loop time of 0.000437975 on 2 procs for 100 steps with 1 atoms, finish time Fri Mar 20 13:10:37 2020


Pair  time (%) = 7.27177e-05 (16.6032)
Neigh time (%) = 0 (0)
Comm  time (%) = 5.79357e-05 (13.2281)
Outpt time (%) = 2.74181e-05 (6.26021)
Other time (%) = 0.000279903 (63.9085)

Nlocal:    0.5 ave 1 max 0 min
Histogram: 1 0 0 0 0 0 0 0 0 1
Nghost:    0.5 ave 1 max 0 min
Histogram: 1 0 0 0 0 0 0 0 0 1
Neighs:    0 ave 0 max 0 min
Histogram: 2 0 0 0 0 0 0 0 0 0

Total # of neighbors = 0
Ave neighs/atom = 0
Neighbor list builds = 0
Dangerous builds = 0
write_restart ../DEM/post/restart/liggghts.restartCFDEM
run 100    
Setting up run at Fri Mar 20 13:10:37 2020

Memory usage per processor = 5.23812 Mbytes
    Step    Atoms         KinEng            rke         Volume 
    4600        1  1.2575421e-11              0          0.001 
CFD Coupling established at step 4700
    4700        1  1.2618374e-11              0          0.001 
Loop time of 0.000488639 on 2 procs for 100 steps with 1 atoms, finish time Fri Mar 20 13:10:37 2020


Pair  time (%) = 6.49691e-05 (13.2959)
Neigh time (%) = 0 (0)
Comm  time (%) = 6.67572e-05 (13.6619)
Outpt time (%) = 2.80142e-05 (5.73311)
Other time (%) = 0.000328898 (67.3091)

Nlocal:    0.5 ave 1 max 0 min
Histogram: 1 0 0 0 0 0 0 0 0 1
Nghost:    0.5 ave 1 max 0 min
Histogram: 1 0 0 0 0 0 0 0 0 1
Neighs:    0 ave 0 max 0 min
Histogram: 2 0 0 0 0 0 0 0 0 0

Total # of neighbors = 0
Ave neighs/atom = 0
Neighbor list builds = 0
Dangerous builds = 0
write_restart ../DEM/post/restart/liggghts.restartCFDEM
run 100    
Setting up run at Fri Mar 20 13:10:37 2020

Memory usage per processor = 5.23812 Mbytes
    Step    Atoms         KinEng            rke         Volume 
    4700        1  1.2618374e-11              0          0.001 
CFD Coupling established at step 4800
    4800        1  1.2658179e-11              0          0.001 
Loop time of 0.00046289 on 2 procs for 100 steps with 1 atoms, finish time Fri Mar 20 13:10:37 2020


Pair  time (%) = 6.55651e-05 (14.1643)
Neigh time (%) = 0 (0)
Comm  time (%) = 6.81877e-05 (14.7309)
Outpt time (%) = 2.45571e-05 (5.30518)
Other time (%) = 0.00030458 (65.7996)

Nlocal:    0.5 ave 1 max 0 min
Histogram: 1 0 0 0 0 0 0 0 0 1
Nghost:    0.5 ave 1 max 0 min
Histogram: 1 0 0 0 0 0 0 0 0 1
Neighs:    0 ave 0 max 0 min
Histogram: 2 0 0 0 0 0 0 0 0 0

Total # of neighbors = 0
Ave neighs/atom = 0
Neighbor list builds = 0
Dangerous builds = 0
write_restart ../DEM/post/restart/liggghts.restartCFDEM
run 100    
Setting up run at Fri Mar 20 13:10:37 2020

Memory usage per processor = 5.23812 Mbytes
    Step    Atoms         KinEng            rke         Volume 
    4800        1  1.2658179e-11              0          0.001 
CFD Coupling established at step 4900
    4900        1  1.2695093e-11              0          0.001 
Loop time of 0.000489473 on 2 procs for 100 steps with 1 atoms, finish time Fri Mar 20 13:10:37 2020


Pair  time (%) = 7.25985e-05 (14.832)
Neigh time (%) = 0 (0)
Comm  time (%) = 6.3777e-05 (13.0297)
Outpt time (%) = 2.70605e-05 (5.52849)
Other time (%) = 0.000326037 (66.6098)

Nlocal:    0.5 ave 1 max 0 min
Histogram: 1 0 0 0 0 0 0 0 0 1
Nghost:    0.5 ave 1 max 0 min
Histogram: 1 0 0 0 0 0 0 0 0 1
Neighs:    0 ave 0 max 0 min
Histogram: 2 0 0 0 0 0 0 0 0 0

Total # of neighbors = 0
Ave neighs/atom = 0
Neighbor list builds = 0
Dangerous builds = 0
write_restart ../DEM/post/restart/liggghts.restartCFDEM
run 100    
Setting up run at Fri Mar 20 13:10:37 2020

Memory usage per processor = 5.23812 Mbytes
    Step    Atoms         KinEng            rke         Volume 
    4900        1  1.2695093e-11              0          0.001 
CFD Coupling established at step 5000
    5000        1  1.2729349e-11              0          0.001 
Loop time of 0.000490069 on 2 procs for 100 steps with 1 atoms, finish time Fri Mar 20 13:10:37 2020


Pair  time (%) = 5.85318e-05 (11.9436)
Neigh time (%) = 0 (0)
Comm  time (%) = 6.62804e-05 (13.5247)
Outpt time (%) = 5.85318e-05 (11.9436)
Other time (%) = 0.000306726 (62.5882)

Nlocal:    0.5 ave 1 max 0 min
Histogram: 1 0 0 0 0 0 0 0 0 1
Nghost:    0.5 ave 1 max 0 min
Histogram: 1 0 0 0 0 0 0 0 0 1
Neighs:    0 ave 0 max 0 min
Histogram: 2 0 0 0 0 0 0 0 0 0

Total # of neighbors = 0
Ave neighs/atom = 0
Neighbor list builds = 0
Dangerous builds = 0
write_restart ../DEM/post/restart/liggghts.restartCFDEM
run 100    
Setting up run at Fri Mar 20 13:10:37 2020

Memory usage per processor = 5.23812 Mbytes
    Step    Atoms         KinEng            rke         Volume 
    5000        1  1.2729349e-11              0          0.001 
CFD Coupling established at step 5100
    5100        1  1.2761164e-11              0          0.001 
Loop time of 0.000463963 on 2 procs for 100 steps with 1 atoms, finish time Fri Mar 20 13:10:37 2020


Pair  time (%) = 7.62939e-05 (16.444)
Neigh time (%) = 0 (0)
Comm  time (%) = 6.17504e-05 (13.3094)
Outpt time (%) = 2.5034e-05 (5.39568)
Other time (%) = 0.000300884 (64.851)

Nlocal:    0.5 ave 1 max 0 min
Histogram: 1 0 0 0 0 0 0 0 0 1
Nghost:    0.5 ave 1 max 0 min
Histogram: 1 0 0 0 0 0 0 0 0 1
Neighs:    0 ave 0 max 0 min
Histogram: 2 0 0 0 0 0 0 0 0 0

Total # of neighbors = 0
Ave neighs/atom = 0
Neighbor list builds = 0
Dangerous builds = 0
write_restart ../DEM/post/restart/liggghts.restartCFDEM
run 100    
Setting up run at Fri Mar 20 13:10:37 2020

Memory usage per processor = 5.23812 Mbytes
    Step    Atoms         KinEng            rke         Volume 
    5100        1  1.2761164e-11              0          0.001 
CFD Coupling established at step 5200
    5200        1  1.2781662e-11              0          0.001 
Loop time of 0.000447035 on 2 procs for 100 steps with 1 atoms, finish time Fri Mar 20 13:10:37 2020


Pair  time (%) = 7.05719e-05 (15.7867)
Neigh time (%) = 0 (0)
Comm  time (%) = 6.61612e-05 (14.8)
Outpt time (%) = 2.61068e-05 (5.84)
Other time (%) = 0.000284195 (63.5733)

Nlocal:    0.5 ave 1 max 0 min
Histogram: 1 0 0 0 0 0 0 0 0 1
Nghost:    0.5 ave 1 max 0 min
Histogram: 1 0 0 0 0 0 0 0 0 1
Neighs:    0 ave 0 max 0 min
Histogram: 2 0 0 0 0 0 0 0 0 0

Total # of neighbors = 0
Ave neighs/atom = 0
Neighbor list builds = 0
Dangerous builds = 0
write_restart ../DEM/post/restart/liggghts.restartCFDEM
run 100    
Setting up run at Fri Mar 20 13:10:37 2020

Memory usage per processor = 5.23812 Mbytes
    Step    Atoms         KinEng            rke         Volume 
    5200        1  1.2781662e-11              0          0.001 
CFD Coupling established at step 5300
    5300        1  1.2801022e-11              0          0.001 
Loop time of 0.000475168 on 2 procs for 100 steps with 1 atoms, finish time Fri Mar 20 13:10:37 2020


Pair  time (%) = 6.80685e-05 (14.3251)
Neigh time (%) = 0 (0)
Comm  time (%) = 5.84126e-05 (12.293)
Outpt time (%) = 2.89679e-05 (6.09634)
Other time (%) = 0.000319719 (67.2855)

Nlocal:    0.5 ave 1 max 0 min
Histogram: 1 0 0 0 0 0 0 0 0 1
Nghost:    0.5 ave 1 max 0 min
Histogram: 1 0 0 0 0 0 0 0 0 1
Neighs:    0 ave 0 max 0 min
Histogram: 2 0 0 0 0 0 0 0 0 0

Total # of neighbors = 0
Ave neighs/atom = 0
Neighbor list builds = 0
Dangerous builds = 0
write_restart ../DEM/post/restart/liggghts.restartCFDEM
run 100    
Setting up run at Fri Mar 20 13:10:37 2020

Memory usage per processor = 5.23812 Mbytes
    Step    Atoms         KinEng            rke         Volume 
    5300        1  1.2801022e-11              0          0.001 
CFD Coupling established at step 5400
    5400        1  1.2819326e-11              0          0.001 
Loop time of 0.000454903 on 2 procs for 100 steps with 1 atoms, finish time Fri Mar 20 13:10:37 2020


Pair  time (%) = 7.47442e-05 (16.4308)
Neigh time (%) = 0 (0)
Comm  time (%) = 5.79357e-05 (12.7358)
Outpt time (%) = 2.80142e-05 (6.15828)
Other time (%) = 0.000294209 (64.6751)

Nlocal:    0.5 ave 1 max 0 min
Histogram: 1 0 0 0 0 0 0 0 0 1
Nghost:    0.5 ave 1 max 0 min
Histogram: 1 0 0 0 0 0 0 0 0 1
Neighs:    0 ave 0 max 0 min
Histogram: 2 0 0 0 0 0 0 0 0 0

Total # of neighbors = 0
Ave neighs/atom = 0
Neighbor list builds = 0
Dangerous builds = 0
write_restart ../DEM/post/restart/liggghts.restartCFDEM
run 100    
Setting up run at Fri Mar 20 13:10:37 2020

Memory usage per processor = 5.23812 Mbytes
    Step    Atoms         KinEng            rke         Volume 
    5400        1  1.2819326e-11              0          0.001 
CFD Coupling established at step 5500
    5500        1  1.2836649e-11              0          0.001 
Loop time of 0.000481844 on 2 procs for 100 steps with 1 atoms, finish time Fri Mar 20 13:10:37 2020


Pair  time (%) = 8.39233e-05 (17.4171)
Neigh time (%) = 0 (0)
Comm  time (%) = 6.10352e-05 (12.667)
Outpt time (%) = 2.70605e-05 (5.61603)
Other time (%) = 0.000309825 (64.2999)

Nlocal:    0.5 ave 1 max 0 min
Histogram: 1 0 0 0 0 0 0 0 0 1
Nghost:    0.5 ave 1 max 0 min
Histogram: 1 0 0 0 0 0 0 0 0 1
Neighs:    0 ave 0 max 0 min
Histogram: 2 0 0 0 0 0 0 0 0 0

Total # of neighbors = 0
Ave neighs/atom = 0
Neighbor list builds = 0
Dangerous builds = 0
write_restart ../DEM/post/restart/liggghts.restartCFDEM
run 100    
Setting up run at Fri Mar 20 13:10:37 2020

Memory usage per processor = 5.23812 Mbytes
    Step    Atoms         KinEng            rke         Volume 
    5500        1  1.2836649e-11              0          0.001 
CFD Coupling established at step 5600
    5600        1  1.2853061e-11              0          0.001 
Loop time of 0.000782967 on 2 procs for 100 steps with 1 atoms, finish time Fri Mar 20 13:10:37 2020


Pair  time (%) = 6.91414e-05 (8.83069)
Neigh time (%) = 0 (0)
Comm  time (%) = 8.86917e-05 (11.3276)
Outpt time (%) = 0.000116467 (14.8752)
Other time (%) = 0.000508666 (64.9665)

Nlocal:    0.5 ave 1 max 0 min
Histogram: 1 0 0 0 0 0 0 0 0 1
Nghost:    0.5 ave 1 max 0 min
Histogram: 1 0 0 0 0 0 0 0 0 1
Neighs:    0 ave 0 max 0 min
Histogram: 2 0 0 0 0 0 0 0 0 0

Total # of neighbors = 0
Ave neighs/atom = 0
Neighbor list builds = 0
Dangerous builds = 0
write_restart ../DEM/post/restart/liggghts.restartCFDEM
run 100    
Setting up run at Fri Mar 20 13:10:37 2020

Memory usage per processor = 5.23812 Mbytes
    Step    Atoms         KinEng            rke         Volume 
    5600        1  1.2853061e-11              0          0.001 
CFD Coupling established at step 5700
    5700        1  1.2868629e-11              0          0.001 
Loop time of 0.000466108 on 2 procs for 100 steps with 1 atoms, finish time Fri Mar 20 13:10:37 2020


Pair  time (%) = 7.10487e-05 (15.243)
Neigh time (%) = 0 (0)
Comm  time (%) = 6.36578e-05 (13.6573)
Outpt time (%) = 2.19345e-05 (4.70588)
Other time (%) = 0.000309467 (66.3939)

Nlocal:    0.5 ave 1 max 0 min
Histogram: 1 0 0 0 0 0 0 0 0 1
Nghost:    0.5 ave 1 max 0 min
Histogram: 1 0 0 0 0 0 0 0 0 1
Neighs:    0 ave 0 max 0 min
Histogram: 2 0 0 0 0 0 0 0 0 0

Total # of neighbors = 0
Ave neighs/atom = 0
Neighbor list builds = 0
Dangerous builds = 0
write_restart ../DEM/post/restart/liggghts.restartCFDEM
run 100    
Setting up run at Fri Mar 20 13:10:37 2020

Memory usage per processor = 5.23812 Mbytes
    Step    Atoms         KinEng            rke         Volume 
    5700        1  1.2868629e-11              0          0.001 
CFD Coupling established at step 5800
    5800        1  1.2883415e-11              0          0.001 
Loop time of 0.000468016 on 2 procs for 100 steps with 1 atoms, finish time Fri Mar 20 13:10:37 2020


Pair  time (%) = 7.39098e-05 (15.7922)
Neigh time (%) = 0 (0)
Comm  time (%) = 6.79493e-05 (14.5186)
Outpt time (%) = 2.64645e-05 (5.65461)
Other time (%) = 0.000299692 (64.0346)

Nlocal:    0.5 ave 1 max 0 min
Histogram: 1 0 0 0 0 0 0 0 0 1
Nghost:    0.5 ave 1 max 0 min
Histogram: 1 0 0 0 0 0 0 0 0 1
Neighs:    0 ave 0 max 0 min
Histogram: 2 0 0 0 0 0 0 0 0 0

Total # of neighbors = 0
Ave neighs/atom = 0
Neighbor list builds = 0
Dangerous builds = 0
write_restart ../DEM/post/restart/liggghts.restartCFDEM
run 100    
Setting up run at Fri Mar 20 13:10:37 2020

Memory usage per processor = 5.23812 Mbytes
    Step    Atoms         KinEng            rke         Volume 
    5800        1  1.2883415e-11              0          0.001 
CFD Coupling established at step 5900
    5900        1  1.2897475e-11              0          0.001 
Loop time of 0.000551462 on 2 procs for 100 steps with 1 atoms, finish time Fri Mar 20 13:10:37 2020


Pair  time (%) = 7.95126e-05 (14.4185)
Neigh time (%) = 0 (0)
Comm  time (%) = 6.68764e-05 (12.1271)
Outpt time (%) = 2.80142e-05 (5.07998)
Other time (%) = 0.000377059 (68.3744)

Nlocal:    0.5 ave 1 max 0 min
Histogram: 1 0 0 0 0 0 0 0 0 1
Nghost:    0.5 ave 1 max 0 min
Histogram: 1 0 0 0 0 0 0 0 0 1
Neighs:    0 ave 0 max 0 min
Histogram: 2 0 0 0 0 0 0 0 0 0

Total # of neighbors = 0
Ave neighs/atom = 0
Neighbor list builds = 0
Dangerous builds = 0
write_restart ../DEM/post/restart/liggghts.restartCFDEM
run 100    
Setting up run at Fri Mar 20 13:10:37 2020

Memory usage per processor = 5.23812 Mbytes
    Step    Atoms         KinEng            rke         Volume 
    5900        1  1.2897475e-11              0          0.001 
CFD Coupling established at step 6000
    6000        1  1.2910862e-11              0          0.001 
Loop time of 0.000504971 on 2 procs for 100 steps with 1 atoms, finish time Fri Mar 20 13:10:37 2020


Pair  time (%) = 7.89165e-05 (15.628)
Neigh time (%) = 0 (0)
Comm  time (%) = 6.41346e-05 (12.7007)
Outpt time (%) = 6.38962e-05 (12.6534)
Other time (%) = 0.000298023 (59.0179)

Nlocal:    0.5 ave 1 max 0 min
Histogram: 1 0 0 0 0 0 0 0 0 1
Nghost:    0.5 ave 1 max 0 min
Histogram: 1 0 0 0 0 0 0 0 0 1
Neighs:    0 ave 0 max 0 min
Histogram: 2 0 0 0 0 0 0 0 0 0

Total # of neighbors = 0
Ave neighs/atom = 0
Neighbor list builds = 0
Dangerous builds = 0
write_restart ../DEM/post/restart/liggghts.restartCFDEM
run 100    
Setting up run at Fri Mar 20 13:10:37 2020

Memory usage per processor = 5.23812 Mbytes
    Step    Atoms         KinEng            rke         Volume 
    6000        1  1.2910862e-11              0          0.001 
CFD Coupling established at step 6100
    6100        1  1.2923625e-11              0          0.001 
Loop time of 0.000511885 on 2 procs for 100 steps with 1 atoms, finish time Fri Mar 20 13:10:37 2020


Pair  time (%) = 7.16448e-05 (13.9963)
Neigh time (%) = 0 (0)
Comm  time (%) = 6.41346e-05 (12.5291)
Outpt time (%) = 4.20809e-05 (8.22077)
Other time (%) = 0.000334024 (65.2538)

Nlocal:    0.5 ave 1 max 0 min
Histogram: 1 0 0 0 0 0 0 0 0 1
Nghost:    0.5 ave 1 max 0 min
Histogram: 1 0 0 0 0 0 0 0 0 1
Neighs:    0 ave 0 max 0 min
Histogram: 2 0 0 0 0 0 0 0 0 0

Total # of neighbors = 0
Ave neighs/atom = 0
Neighbor list builds = 0
Dangerous builds = 0
write_restart ../DEM/post/restart/liggghts.restartCFDEM
run 100    
Setting up run at Fri Mar 20 13:10:37 2020

Memory usage per processor = 5.23812 Mbytes
    Step    Atoms         KinEng            rke         Volume 
    6100        1  1.2923625e-11              0          0.001 
CFD Coupling established at step 6200
    6200        1  1.2935808e-11              0          0.001 
Loop time of 0.000420809 on 2 procs for 100 steps with 1 atoms, finish time Fri Mar 20 13:10:37 2020


Pair  time (%) = 4.86374e-05 (11.5581)
Neigh time (%) = 0 (0)
Comm  time (%) = 6.62804e-05 (15.7507)
Outpt time (%) = 2.99215e-05 (7.11048)
Other time (%) = 0.00027597 (65.5807)

Nlocal:    0.5 ave 1 max 0 min
Histogram: 1 0 0 0 0 0 0 0 0 1
Nghost:    0.5 ave 1 max 0 min
Histogram: 1 0 0 0 0 0 0 0 0 1
Neighs:    0 ave 0 max 0 min
Histogram: 2 0 0 0 0 0 0 0 0 0

Total # of neighbors = 0
Ave neighs/atom = 0
Neighbor list builds = 0
Dangerous builds = 0
write_restart ../DEM/post/restart/liggghts.restartCFDEM
run 100    
Setting up run at Fri Mar 20 13:10:37 2020

Memory usage per processor = 5.23812 Mbytes
    Step    Atoms         KinEng            rke         Volume 
    6200        1  1.2935808e-11              0          0.001 
CFD Coupling established at step 6300
    6300        1  1.2947452e-11              0          0.001 
Loop time of 0.000478029 on 2 procs for 100 steps with 1 atoms, finish time Fri Mar 20 13:10:37 2020


Pair  time (%) = 6.60419e-05 (13.8155)
Neigh time (%) = 0 (0)
Comm  time (%) = 8.11815e-05 (16.9825)
Outpt time (%) = 3.65973e-05 (7.65586)
Other time (%) = 0.000294209 (61.5461)

Nlocal:    0.5 ave 1 max 0 min
Histogram: 1 0 0 0 0 0 0 0 0 1
Nghost:    0.5 ave 1 max 0 min
Histogram: 1 0 0 0 0 0 0 0 0 1
Neighs:    0 ave 0 max 0 min
Histogram: 2 0 0 0 0 0 0 0 0 0

Total # of neighbors = 0
Ave neighs/atom = 0
Neighbor list builds = 0
Dangerous builds = 0
write_restart ../DEM/post/restart/liggghts.restartCFDEM
run 100    
Setting up run at Fri Mar 20 13:10:37 2020

Memory usage per processor = 5.23812 Mbytes
    Step    Atoms         KinEng            rke         Volume 
    6300        1  1.2947452e-11              0          0.001 
CFD Coupling established at step 6400
    6400        1  1.2958594e-11              0          0.001 
Loop time of 0.000405431 on 2 procs for 100 steps with 1 atoms, finish time Fri Mar 20 13:10:37 2020


Pair  time (%) = 5.54323e-05 (13.6724)
Neigh time (%) = 0 (0)
Comm  time (%) = 6.42538e-05 (15.8483)
Outpt time (%) = 2.40803e-05 (5.93943)
Other time (%) = 0.000261664 (64.5398)

Nlocal:    0.5 ave 1 max 0 min
Histogram: 1 0 0 0 0 0 0 0 0 1
Nghost:    0.5 ave 1 max 0 min
Histogram: 1 0 0 0 0 0 0 0 0 1
Neighs:    0 ave 0 max 0 min
Histogram: 2 0 0 0 0 0 0 0 0 0

Total # of neighbors = 0
Ave neighs/atom = 0
Neighbor list builds = 0
Dangerous builds = 0
write_restart ../DEM/post/restart/liggghts.restartCFDEM
run 100    
Setting up run at Fri Mar 20 13:10:37 2020

Memory usage per processor = 5.23812 Mbytes
    Step    Atoms         KinEng            rke         Volume 
    6400        1  1.2958594e-11              0          0.001 
CFD Coupling established at step 6500
    6500        1  1.2969274e-11              0          0.001 
Loop time of 0.000466824 on 2 procs for 100 steps with 1 atoms, finish time Fri Mar 20 13:10:37 2020


Pair  time (%) = 7.65324e-05 (16.3943)
Neigh time (%) = 0 (0)
Comm  time (%) = 5.96046e-05 (12.7681)
Outpt time (%) = 2.55108e-05 (5.46476)
Other time (%) = 0.000305176 (65.3728)

Nlocal:    0.5 ave 1 max 0 min
Histogram: 1 0 0 0 0 0 0 0 0 1
Nghost:    0.5 ave 1 max 0 min
Histogram: 1 0 0 0 0 0 0 0 0 1
Neighs:    0 ave 0 max 0 min
Histogram: 2 0 0 0 0 0 0 0 0 0

Total # of neighbors = 0
Ave neighs/atom = 0
Neighbor list builds = 0
Dangerous builds = 0
write_restart ../DEM/post/restart/liggghts.restartCFDEM
run 100    
Setting up run at Fri Mar 20 13:10:37 2020

Memory usage per processor = 5.23812 Mbytes
    Step    Atoms         KinEng            rke         Volume 
    6500        1  1.2969274e-11              0          0.001 
CFD Coupling established at step 6600
    6600        1  1.2979526e-11              0          0.001 
Loop time of 0.000455856 on 2 procs for 100 steps with 1 atoms, finish time Fri Mar 20 13:10:37 2020


Pair  time (%) = 7.28369e-05 (15.978)
Neigh time (%) = 0 (0)
Comm  time (%) = 7.49826e-05 (16.4487)
Outpt time (%) = 2.86102e-05 (6.27615)
Other time (%) = 0.000279427 (61.2971)

Nlocal:    0.5 ave 1 max 0 min
Histogram: 1 0 0 0 0 0 0 0 0 1
Nghost:    0.5 ave 1 max 0 min
Histogram: 1 0 0 0 0 0 0 0 0 1
Neighs:    0 ave 0 max 0 min
Histogram: 2 0 0 0 0 0 0 0 0 0

Total # of neighbors = 0
Ave neighs/atom = 0
Neighbor list builds = 0
Dangerous builds = 0
write_restart ../DEM/post/restart/liggghts.restartCFDEM
run 100    
Setting up run at Fri Mar 20 13:10:37 2020

Memory usage per processor = 5.23812 Mbytes
    Step    Atoms         KinEng            rke         Volume 
    6600        1  1.2979526e-11              0          0.001 
CFD Coupling established at step 6700
    6700        1   1.298938e-11              0          0.001 
Loop time of 0.000462532 on 2 procs for 100 steps with 1 atoms, finish time Fri Mar 20 13:10:37 2020


Pair  time (%) = 7.39098e-05 (15.9794)
Neigh time (%) = 0 (0)
Comm  time (%) = 5.56707e-05 (12.0361)
Outpt time (%) = 2.8491e-05 (6.15979)
Other time (%) = 0.000304461 (65.8247)

Nlocal:    0.5 ave 1 max 0 min
Histogram: 1 0 0 0 0 0 0 0 0 1
Nghost:    0.5 ave 1 max 0 min
Histogram: 1 0 0 0 0 0 0 0 0 1
Neighs:    0 ave 0 max 0 min
Histogram: 2 0 0 0 0 0 0 0 0 0

Total # of neighbors = 0
Ave neighs/atom = 0
Neighbor list builds = 0
Dangerous builds = 0
write_restart ../DEM/post/restart/liggghts.restartCFDEM
run 100    
Setting up run at Fri Mar 20 13:10:37 2020

Memory usage per processor = 5.23812 Mbytes
    Step    Atoms         KinEng            rke         Volume 
    6700        1   1.298938e-11              0          0.001 
CFD Coupling established at step 6800
    6800        1  1.2998867e-11              0          0.001 
Loop time of 0.000459909 on 2 procs for 100 steps with 1 atoms, finish time Fri Mar 20 13:10:37 2020


Pair  time (%) = 8.04663e-05 (17.4961)
Neigh time (%) = 0 (0)
Comm  time (%) = 6.44922e-05 (14.0228)
Outpt time (%) = 2.61068e-05 (5.67652)
Other time (%) = 0.000288844 (62.8046)

Nlocal:    0.5 ave 1 max 0 min
Histogram: 1 0 0 0 0 0 0 0 0 1
Nghost:    0.5 ave 1 max 0 min
Histogram: 1 0 0 0 0 0 0 0 0 1
Neighs:    0 ave 0 max 0 min
Histogram: 2 0 0 0 0 0 0 0 0 0

Total # of neighbors = 0
Ave neighs/atom = 0
Neighbor list builds = 0
Dangerous builds = 0
write_restart ../DEM/post/restart/liggghts.restartCFDEM
run 100    
Setting up run at Fri Mar 20 13:10:37 2020

Memory usage per processor = 5.23812 Mbytes
    Step    Atoms         KinEng            rke         Volume 
    6800        1  1.2998867e-11              0          0.001 
CFD Coupling established at step 6900
    6900        1  1.3008018e-11              0          0.001 
Loop time of 0.000430107 on 2 procs for 100 steps with 1 atoms, finish time Fri Mar 20 13:10:37 2020


Pair  time (%) = 6.93798e-05 (16.1308)
Neigh time (%) = 0 (0)
Comm  time (%) = 6.05583e-05 (14.0798)
Outpt time (%) = 2.59876e-05 (6.04213)
Other time (%) = 0.000274181 (63.7472)

Nlocal:    0.5 ave 1 max 0 min
Histogram: 1 0 0 0 0 0 0 0 0 1
Nghost:    0.5 ave 1 max 0 min
Histogram: 1 0 0 0 0 0 0 0 0 1
Neighs:    0 ave 0 max 0 min
Histogram: 2 0 0 0 0 0 0 0 0 0

Total # of neighbors = 0
Ave neighs/atom = 0
Neighbor list builds = 0
Dangerous builds = 0
write_restart ../DEM/post/restart/liggghts.restartCFDEM
run 100    
Setting up run at Fri Mar 20 13:10:37 2020

Memory usage per processor = 5.23812 Mbytes
    Step    Atoms         KinEng            rke         Volume 
    6900        1  1.3008018e-11              0          0.001 
CFD Coupling established at step 7000
    7000        1  1.3016855e-11              0          0.001 
Loop time of 0.000447989 on 2 procs for 100 steps with 1 atoms, finish time Fri Mar 20 13:10:37 2020


Pair  time (%) = 7.30753e-05 (16.3119)
Neigh time (%) = 0 (0)
Comm  time (%) = 5.66244e-05 (12.6397)
Outpt time (%) = 6.19888e-05 (13.8371)
Other time (%) = 0.0002563 (57.2113)

Nlocal:    0.5 ave 1 max 0 min
Histogram: 1 0 0 0 0 0 0 0 0 1
Nghost:    0.5 ave 1 max 0 min
Histogram: 1 0 0 0 0 0 0 0 0 1
Neighs:    0 ave 0 max 0 min
Histogram: 2 0 0 0 0 0 0 0 0 0

Total # of neighbors = 0
Ave neighs/atom = 0
Neighbor list builds = 0
Dangerous builds = 0
write_restart ../DEM/post/restart/liggghts.restartCFDEM
run 100    
Setting up run at Fri Mar 20 13:10:37 2020

Memory usage per processor = 5.23812 Mbytes
    Step    Atoms         KinEng            rke         Volume 
    7000        1  1.3016855e-11              0          0.001 
CFD Coupling established at step 7100
    7100        1  1.3025427e-11              0          0.001 
Loop time of 0.000485897 on 2 procs for 100 steps with 1 atoms, finish time Fri Mar 20 13:10:37 2020


Pair  time (%) = 7.60555e-05 (15.6526)
Neigh time (%) = 0 (0)
Comm  time (%) = 6.8903e-05 (14.1806)
Outpt time (%) = 2.30074e-05 (4.73503)
Other time (%) = 0.000317931 (65.4318)

Nlocal:    0.5 ave 1 max 0 min
Histogram: 1 0 0 0 0 0 0 0 0 1
Nghost:    0.5 ave 1 max 0 min
Histogram: 1 0 0 0 0 0 0 0 0 1
Neighs:    0 ave 0 max 0 min
Histogram: 2 0 0 0 0 0 0 0 0 0

Total # of neighbors = 0
Ave neighs/atom = 0
Neighbor list builds = 0
Dangerous builds = 0
write_restart ../DEM/post/restart/liggghts.restartCFDEM
run 100    
Setting up run at Fri Mar 20 13:10:37 2020

Memory usage per processor = 5.23812 Mbytes
    Step    Atoms         KinEng            rke         Volume 
    7100        1  1.3025427e-11              0          0.001 
CFD Coupling established at step 7200
    7200        1  1.3024083e-11              0          0.001 
Loop time of 0.000434399 on 2 procs for 100 steps with 1 atoms, finish time Fri Mar 20 13:10:37 2020


Pair  time (%) = 7.27177e-05 (16.7398)
Neigh time (%) = 0 (0)
Comm  time (%) = 5.59092e-05 (12.8705)
Outpt time (%) = 2.89679e-05 (6.6685)
Other time (%) = 0.000276804 (63.7212)

Nlocal:    0.5 ave 1 max 0 min
Histogram: 1 0 0 0 0 0 0 0 0 1
Nghost:    0.5 ave 1 max 0 min
Histogram: 1 0 0 0 0 0 0 0 0 1
Neighs:    0 ave 0 max 0 min
Histogram: 2 0 0 0 0 0 0 0 0 0

Total # of neighbors = 0
Ave neighs/atom = 0
Neighbor list builds = 0
Dangerous builds = 0
write_restart ../DEM/post/restart/liggghts.restartCFDEM
run 100    
Setting up run at Fri Mar 20 13:10:37 2020

Memory usage per processor = 5.23812 Mbytes
    Step    Atoms         KinEng            rke         Volume 
    7200        1  1.3024083e-11              0          0.001 
CFD Coupling established at step 7300
    7300        1  1.3023467e-11              0          0.001 
Loop time of 0.000460863 on 2 procs for 100 steps with 1 atoms, finish time Fri Mar 20 13:10:37 2020


Pair  time (%) = 7.47442e-05 (16.2183)
Neigh time (%) = 0 (0)
Comm  time (%) = 5.90086e-05 (12.8039)
Outpt time (%) = 2.64645e-05 (5.74237)
Other time (%) = 0.000300646 (65.2354)

Nlocal:    0.5 ave 1 max 0 min
Histogram: 1 0 0 0 0 0 0 0 0 1
Nghost:    0.5 ave 1 max 0 min
Histogram: 1 0 0 0 0 0 0 0 0 1
Neighs:    0 ave 0 max 0 min
Histogram: 2 0 0 0 0 0 0 0 0 0

Total # of neighbors = 0
Ave neighs/atom = 0
Neighbor list builds = 0
Dangerous builds = 0
write_restart ../DEM/post/restart/liggghts.restartCFDEM
run 100    
Setting up run at Fri Mar 20 13:10:37 2020

Memory usage per processor = 5.23812 Mbytes
    Step    Atoms         KinEng            rke         Volume 
    7300        1  1.3023467e-11              0          0.001 
CFD Coupling established at step 7400
    7400        1    1.30235e-11              0          0.001 
Loop time of 0.000524998 on 2 procs for 100 steps with 1 atoms, finish time Fri Mar 20 13:10:37 2020


Pair  time (%) = 8.58307e-05 (16.3488)
Neigh time (%) = 0 (0)
Comm  time (%) = 7.29561e-05 (13.8965)
Outpt time (%) = 2.75373e-05 (5.24523)
Other time (%) = 0.000338674 (64.5095)

Nlocal:    0.5 ave 1 max 0 min
Histogram: 1 0 0 0 0 0 0 0 0 1
Nghost:    0.5 ave 1 max 0 min
Histogram: 1 0 0 0 0 0 0 0 0 1
Neighs:    0 ave 0 max 0 min
Histogram: 2 0 0 0 0 0 0 0 0 0

Total # of neighbors = 0
Ave neighs/atom = 0
Neighbor list builds = 0
Dangerous builds = 0
write_restart ../DEM/post/restart/liggghts.restartCFDEM
run 100    
Setting up run at Fri Mar 20 13:10:37 2020

Memory usage per processor = 5.23812 Mbytes
    Step    Atoms         KinEng            rke         Volume 
    7400        1    1.30235e-11              0          0.001 
CFD Coupling established at step 7500
    7500        1  1.3024113e-11              0          0.001 
Loop time of 0.000591993 on 2 procs for 100 steps with 1 atoms, finish time Fri Mar 20 13:10:37 2020


Pair  time (%) = 7.64132e-05 (12.9078)
Neigh time (%) = 0 (0)
Comm  time (%) = 6.97374e-05 (11.7801)
Outpt time (%) = 5.6982e-05 (9.62545)
Other time (%) = 0.000388861 (65.6867)

Nlocal:    0.5 ave 1 max 0 min
Histogram: 1 0 0 0 0 0 0 0 0 1
Nghost:    0.5 ave 1 max 0 min
Histogram: 1 0 0 0 0 0 0 0 0 1
Neighs:    0 ave 0 max 0 min
Histogram: 2 0 0 0 0 0 0 0 0 0

Total # of neighbors = 0
Ave neighs/atom = 0
Neighbor list builds = 0
Dangerous builds = 0
write_restart ../DEM/post/restart/liggghts.restartCFDEM
run 100    
Setting up run at Fri Mar 20 13:10:37 2020

Memory usage per processor = 5.23812 Mbytes
    Step    Atoms         KinEng            rke         Volume 
    7500        1  1.3024113e-11              0          0.001 
CFD Coupling established at step 7600
    7600        1  1.3025245e-11              0          0.001 
Loop time of 0.000419378 on 2 procs for 100 steps with 1 atoms, finish time Fri Mar 20 13:10:37 2020


Pair  time (%) = 6.81877e-05 (16.2592)
Neigh time (%) = 0 (0)
Comm  time (%) = 5.48363e-05 (13.0756)
Outpt time (%) = 2.38419e-05 (5.68505)
Other time (%) = 0.000272512 (64.9801)

Nlocal:    0.5 ave 1 max 0 min
Histogram: 1 0 0 0 0 0 0 0 0 1
Nghost:    0.5 ave 1 max 0 min
Histogram: 1 0 0 0 0 0 0 0 0 1
Neighs:    0 ave 0 max 0 min
Histogram: 2 0 0 0 0 0 0 0 0 0

Total # of neighbors = 0
Ave neighs/atom = 0
Neighbor list builds = 0
Dangerous builds = 0
write_restart ../DEM/post/restart/liggghts.restartCFDEM
run 100    
Setting up run at Fri Mar 20 13:10:37 2020

Memory usage per processor = 5.23812 Mbytes
    Step    Atoms         KinEng            rke         Volume 
    7600        1  1.3025245e-11              0          0.001 
CFD Coupling established at step 7700
    7700        1  1.3026842e-11              0          0.001 
Loop time of 0.000404835 on 2 procs for 100 steps with 1 atoms, finish time Fri Mar 20 13:10:37 2020


Pair  time (%) = 6.10352e-05 (15.0766)
Neigh time (%) = 0 (0)
Comm  time (%) = 5.72205e-05 (14.1343)
Outpt time (%) = 2.55108e-05 (6.30153)
Other time (%) = 0.000261068 (64.4876)

Nlocal:    0.5 ave 1 max 0 min
Histogram: 1 0 0 0 0 0 0 0 0 1
Nghost:    0.5 ave 1 max 0 min
Histogram: 1 0 0 0 0 0 0 0 0 1
Neighs:    0 ave 0 max 0 min
Histogram: 2 0 0 0 0 0 0 0 0 0

Total # of neighbors = 0
Ave neighs/atom = 0
Neighbor list builds = 0
Dangerous builds = 0
write_restart ../DEM/post/restart/liggghts.restartCFDEM
run 100    
Setting up run at Fri Mar 20 13:10:37 2020

Memory usage per processor = 5.23812 Mbytes
    Step    Atoms         KinEng            rke         Volume 
    7700        1  1.3026842e-11              0          0.001 
CFD Coupling established at step 7800
    7800        1  1.3028853e-11              0          0.001 
Loop time of 0.000430346 on 2 procs for 100 steps with 1 atoms, finish time Fri Mar 20 13:10:37 2020


Pair  time (%) = 7.29561e-05 (16.9529)
Neigh time (%) = 0 (0)
Comm  time (%) = 6.00815e-05 (13.9612)
Outpt time (%) = 2.39611e-05 (5.56787)
Other time (%) = 0.000273347 (63.518)

Nlocal:    0.5 ave 1 max 0 min
Histogram: 1 0 0 0 0 0 0 0 0 1
Nghost:    0.5 ave 1 max 0 min
Histogram: 1 0 0 0 0 0 0 0 0 1
Neighs:    0 ave 0 max 0 min
Histogram: 2 0 0 0 0 0 0 0 0 0

Total # of neighbors = 0
Ave neighs/atom = 0
Neighbor list builds = 0
Dangerous builds = 0
write_restart ../DEM/post/restart/liggghts.restartCFDEM
run 100    
Setting up run at Fri Mar 20 13:10:37 2020

Memory usage per processor = 5.23812 Mbytes
    Step    Atoms         KinEng            rke         Volume 
    7800        1  1.3028853e-11              0          0.001 
CFD Coupling established at step 7900
    7900        1  1.3031229e-11              0          0.001 
Loop time of 0.000442982 on 2 procs for 100 steps with 1 atoms, finish time Fri Mar 20 13:10:37 2020


Pair  time (%) = 6.53267e-05 (14.747)
Neigh time (%) = 0 (0)
Comm  time (%) = 5.68628e-05 (12.8364)
Outpt time (%) = 2.61068e-05 (5.89343)
Other time (%) = 0.000294685 (66.5231)

Nlocal:    0.5 ave 1 max 0 min
Histogram: 1 0 0 0 0 0 0 0 0 1
Nghost:    0.5 ave 1 max 0 min
Histogram: 1 0 0 0 0 0 0 0 0 1
Neighs:    0 ave 0 max 0 min
Histogram: 2 0 0 0 0 0 0 0 0 0

Total # of neighbors = 0
Ave neighs/atom = 0
Neighbor list builds = 0
Dangerous builds = 0
write_restart ../DEM/post/restart/liggghts.restartCFDEM
run 100    
Setting up run at Fri Mar 20 13:10:37 2020

Memory usage per processor = 5.23812 Mbytes
    Step    Atoms         KinEng            rke         Volume 
    7900        1  1.3031229e-11              0          0.001 
CFD Coupling established at step 8000
    8000        1  1.3033928e-11              0          0.001 
Loop time of 0.000442982 on 2 procs for 100 steps with 1 atoms, finish time Fri Mar 20 13:10:37 2020


Pair  time (%) = 6.00815e-05 (13.563)
Neigh time (%) = 0 (0)
Comm  time (%) = 5.20945e-05 (11.76)
Outpt time (%) = 5.24521e-05 (11.8407)
Other time (%) = 0.000278354 (62.8364)

Nlocal:    0.5 ave 1 max 0 min
Histogram: 1 0 0 0 0 0 0 0 0 1
Nghost:    0.5 ave 1 max 0 min
Histogram: 1 0 0 0 0 0 0 0 0 1
Neighs:    0 ave 0 max 0 min
Histogram: 2 0 0 0 0 0 0 0 0 0

Total # of neighbors = 0
Ave neighs/atom = 0
Neighbor list builds = 0
Dangerous builds = 0
write_restart ../DEM/post/restart/liggghts.restartCFDEM
run 100    
Setting up run at Fri Mar 20 13:10:37 2020

Memory usage per processor = 5.23812 Mbytes
    Step    Atoms         KinEng            rke         Volume 
    8000        1  1.3033928e-11              0          0.001 
CFD Coupling established at step 8100
    8100        1  1.3036912e-11              0          0.001 
Loop time of 0.000435114 on 2 procs for 100 steps with 1 atoms, finish time Fri Mar 20 13:10:37 2020


Pair  time (%) = 6.68764e-05 (15.3699)
Neigh time (%) = 0 (0)
Comm  time (%) = 5.44786e-05 (12.5205)
Outpt time (%) = 3.6478e-05 (8.38356)
Other time (%) = 0.000277281 (63.726)

Nlocal:    0.5 ave 1 max 0 min
Histogram: 1 0 0 0 0 0 0 0 0 1
[...]

Total # of neighbors = 0
Ave neighs/atom = 0
Neighbor list builds = 0
Dangerous builds = 0
write_restart ../DEM/post/restart/liggghts.restartCFDEM
run 100    
Setting up run at Fri Mar 20 13:10:38 2020

Memory usage per processor = 5.23812 Mbytes
    Step    Atoms         KinEng            rke         Volume 
   12900        1  1.3086484e-11              0          0.001 
CFD Coupling established at step 13000
   13000        1  1.3080133e-11              0          0.001 
Loop time of 0.000451088 on 2 procs for 100 steps with 1 atoms, finish time Fri Mar 20 13:10:38 2020


Pair  time (%) = 5.14984e-05 (11.4165)
Neigh time (%) = 0 (0)
Comm  time (%) = 6.50883e-05 (14.4292)
Outpt time (%) = 5.90086e-05 (13.0814)
Other time (%) = 0.000275493 (61.0729)

Nlocal:    0.5 ave 1 max 0 min
Histogram: 1 0 0 0 0 0 0 0 0 1
Nghost:    0.5 ave 1 max 0 min
Histogram: 1 0 0 0 0 0 0 0 0 1
Neighs:    0 ave 0 max 0 min
Histogram: 2 0 0 0 0 0 0 0 0 0

Total # of neighbors = 0
Ave neighs/atom = 0
Neighbor list builds = 0
Dangerous builds = 0
write_restart ../DEM/post/restart/liggghts.restartCFDEM
run 100    
Setting up run at Fri Mar 20 13:10:38 2020

Memory usage per processor = 5.23812 Mbytes
    Step    Atoms         KinEng            rke         Volume 
   13000        1  1.3080133e-11              0          0.001 
CFD Coupling established at step 13100
   13100        1  1.3074943e-11              0          0.001 
Loop time of 0.000486135 on 2 procs for 100 steps with 1 atoms, finish time Fri Mar 20 13:10:38 2020


Pair  time (%) = 5.3525e-05 (11.0103)
Neigh time (%) = 0 (0)
Comm  time (%) = 8.05855e-05 (16.5768)
Outpt time (%) = 3.29018e-05 (6.76802)
Other time (%) = 0.000319123 (65.6449)

Nlocal:    0.5 ave 1 max 0 min
Histogram: 1 0 0 0 0 0 0 0 0 1
Nghost:    0.5 ave 1 max 0 min
Histogram: 1 0 0 0 0 0 0 0 0 1
Neighs:    0 ave 0 max 0 min
Histogram: 2 0 0 0 0 0 0 0 0 0

Total # of neighbors = 0
Ave neighs/atom = 0
Neighbor list builds = 0
Dangerous builds = 0
write_restart ../DEM/post/restart/liggghts.restartCFDEM
run 100    
Setting up run at Fri Mar 20 13:10:38 2020

Memory usage per processor = 5.23812 Mbytes
    Step    Atoms         KinEng            rke         Volume 
   13100        1  1.3074943e-11              0          0.001 
CFD Coupling established at step 13200
   13200        1  1.3070802e-11              0          0.001 
Loop time of 0.000433922 on 2 procs for 100 steps with 1 atoms, finish time Fri Mar 20 13:10:38 2020


Pair  time (%) = 5.84126e-05 (13.4615)
Neigh time (%) = 0 (0)
Comm  time (%) = 5.06639e-05 (11.6758)
Outpt time (%) = 1.95503e-05 (4.50549)
Other time (%) = 0.000305295 (70.3571)

Nlocal:    0.5 ave 1 max 0 min
Histogram: 1 0 0 0 0 0 0 0 0 1
Nghost:    0.5 ave 1 max 0 min
Histogram: 1 0 0 0 0 0 0 0 0 1
Neighs:    0 ave 0 max 0 min
Histogram: 2 0 0 0 0 0 0 0 0 0

Total # of neighbors = 0
Ave neighs/atom = 0
Neighbor list builds = 0
Dangerous builds = 0
write_restart ../DEM/post/restart/liggghts.restartCFDEM
run 100    
Setting up run at Fri Mar 20 13:10:38 2020

Memory usage per processor = 5.23812 Mbytes
    Step    Atoms         KinEng            rke         Volume 
   13200        1  1.3070802e-11              0          0.001 
CFD Coupling established at step 13300
   13300        1  1.3067598e-11              0          0.001 
Loop time of 0.000471115 on 2 procs for 100 steps with 1 atoms, finish time Fri Mar 20 13:10:38 2020


Pair  time (%) = 7.9751e-05 (16.9281)
Neigh time (%) = 0 (0)
Comm  time (%) = 6.25849e-05 (13.2844)
Outpt time (%) = 2.34842e-05 (4.98482)
Other time (%) = 0.000305295 (64.8026)

Nlocal:    0.5 ave 1 max 0 min
Histogram: 1 0 0 0 0 0 0 0 0 1
Nghost:    0.5 ave 1 max 0 min
Histogram: 1 0 0 0 0 0 0 0 0 1
Neighs:    0 ave 0 max 0 min
Histogram: 2 0 0 0 0 0 0 0 0 0

Total # of neighbors = 0
Ave neighs/atom = 0
Neighbor list builds = 0
Dangerous builds = 0
write_restart ../DEM/post/restart/liggghts.restartCFDEM
run 100    
Setting up run at Fri Mar 20 13:10:38 2020

Memory usage per processor = 5.23812 Mbytes
    Step    Atoms         KinEng            rke         Volume 
   13300        1  1.3067598e-11              0          0.001 
CFD Coupling established at step 13400
   13400        1  1.3065241e-11              0          0.001 
Loop time of 0.000972509 on 2 procs for 100 steps with 1 atoms, finish time Fri Mar 20 13:10:38 2020


Pair  time (%) = 0.000143766 (14.783)
Neigh time (%) = 0 (0)
Comm  time (%) = 0.000121593 (12.5031)
Outpt time (%) = 2.0504e-05 (2.10836)
Other time (%) = 0.000686646 (70.6055)

Nlocal:    0.5 ave 1 max 0 min
Histogram: 1 0 0 0 0 0 0 0 0 1
Nghost:    0.5 ave 1 max 0 min
Histogram: 1 0 0 0 0 0 0 0 0 1
Neighs:    0 ave 0 max 0 min
Histogram: 2 0 0 0 0 0 0 0 0 0

Total # of neighbors = 0
Ave neighs/atom = 0
Neighbor list builds = 0
Dangerous builds = 0
write_restart ../DEM/post/restart/liggghts.restartCFDEM
run 100    
Setting up run at Fri Mar 20 13:10:38 2020

Memory usage per processor = 5.23812 Mbytes
    Step    Atoms         KinEng            rke         Volume 
   13400        1  1.3065241e-11              0          0.001 
CFD Coupling established at step 13500
   13500        1  1.3063648e-11              0          0.001 
Loop time of 0.000423193 on 2 procs for 100 steps with 1 atoms, finish time Fri Mar 20 13:10:38 2020


Pair  time (%) = 6.42538e-05 (15.1831)
Neigh time (%) = 0 (0)
Comm  time (%) = 5.49555e-05 (12.9859)
Outpt time (%) = 2.25306e-05 (5.32394)
Other time (%) = 0.000281453 (66.507)

Nlocal:    0.5 ave 1 max 0 min
Histogram: 1 0 0 0 0 0 0 0 0 1
Nghost:    0.5 ave 1 max 0 min
Histogram: 1 0 0 0 0 0 0 0 0 1
Neighs:    0 ave 0 max 0 min
Histogram: 2 0 0 0 0 0 0 0 0 0

Total # of neighbors = 0
Ave neighs/atom = 0
Neighbor list builds = 0
Dangerous builds = 0
write_restart ../DEM/post/restart/liggghts.restartCFDEM
run 100    
Setting up run at Fri Mar 20 13:10:38 2020

Memory usage per processor = 5.23812 Mbytes
    Step    Atoms         KinEng            rke         Volume 
   13500        1  1.3063648e-11              0          0.001 
CFD Coupling established at step 13600
   13600        1  1.3062741e-11              0          0.001 
Loop time of 0.000455856 on 2 procs for 100 steps with 1 atoms, finish time Fri Mar 20 13:10:38 2020


Pair  time (%) = 7.49826e-05 (16.4487)
Neigh time (%) = 0 (0)
Comm  time (%) = 6.46114e-05 (14.1736)
Outpt time (%) = 2.34842e-05 (5.15167)
Other time (%) = 0.000292778 (64.2259)

Nlocal:    0.5 ave 1 max 0 min
Histogram: 1 0 0 0 0 0 0 0 0 1
Nghost:    0.5 ave 1 max 0 min
Histogram: 1 0 0 0 0 0 0 0 0 1
Neighs:    0 ave 0 max 0 min
Histogram: 2 0 0 0 0 0 0 0 0 0

Total # of neighbors = 0
Ave neighs/atom = 0
Neighbor list builds = 0
Dangerous builds = 0
write_restart ../DEM/post/restart/liggghts.restartCFDEM
run 100    
Setting up run at Fri Mar 20 13:10:38 2020

Memory usage per processor = 5.23812 Mbytes
    Step    Atoms         KinEng            rke         Volume 
   13600        1  1.3062741e-11              0          0.001 
CFD Coupling established at step 13700
   13700        1  1.3062451e-11              0          0.001 
Loop time of 0.00107062 on 2 procs for 100 steps with 1 atoms, finish time Fri Mar 20 13:10:38 2020


Pair  time (%) = 0.000124216 (11.6023)
Neigh time (%) = 0 (0)
Comm  time (%) = 0.000122547 (11.4464)
Outpt time (%) = 9.85861e-05 (9.20833)
Other time (%) = 0.000725269 (67.743)

Nlocal:    0.5 ave 1 max 0 min
Histogram: 1 0 0 0 0 0 0 0 0 1
Nghost:    0.5 ave 1 max 0 min
Histogram: 1 0 0 0 0 0 0 0 0 1
Neighs:    0 ave 0 max 0 min
Histogram: 2 0 0 0 0 0 0 0 0 0

Total # of neighbors = 0
Ave neighs/atom = 0
Neighbor list builds = 0
Dangerous builds = 0
write_restart ../DEM/post/restart/liggghts.restartCFDEM
run 100    
Setting up run at Fri Mar 20 13:10:38 2020

Memory usage per processor = 5.23812 Mbytes
    Step    Atoms         KinEng            rke         Volume 
   13700        1  1.3062451e-11              0          0.001 
CFD Coupling established at step 13800
   13800        1  1.3062714e-11              0          0.001 
Loop time of 0.000425577 on 2 procs for 100 steps with 1 atoms, finish time Fri Mar 20 13:10:38 2020


Pair  time (%) = 5.78165e-05 (13.5854)
Neigh time (%) = 0 (0)
Comm  time (%) = 4.92334e-05 (11.5686)
Outpt time (%) = 1.94311e-05 (4.56583)
Other time (%) = 0.000299096 (70.2801)

Nlocal:    0.5 ave 1 max 0 min
Histogram: 1 0 0 0 0 0 0 0 0 1
Nghost:    0.5 ave 1 max 0 min
Histogram: 1 0 0 0 0 0 0 0 0 1
Neighs:    0 ave 0 max 0 min
Histogram: 2 0 0 0 0 0 0 0 0 0

Total # of neighbors = 0
Ave neighs/atom = 0
Neighbor list builds = 0
Dangerous builds = 0
write_restart ../DEM/post/restart/liggghts.restartCFDEM
run 100    
Setting up run at Fri Mar 20 13:10:38 2020

Memory usage per processor = 5.23812 Mbytes
    Step    Atoms         KinEng            rke         Volume 
   13800        1  1.3062714e-11              0          0.001 
CFD Coupling established at step 13900
   13900        1  1.3063473e-11              0          0.001 
Loop time of 0.000455141 on 2 procs for 100 steps with 1 atoms, finish time Fri Mar 20 13:10:38 2020


Pair  time (%) = 7.60555e-05 (16.7103)
Neigh time (%) = 0 (0)
Comm  time (%) = 6.54459e-05 (14.3793)
Outpt time (%) = 2.44379e-05 (5.3693)
Other time (%) = 0.000289202 (63.5411)

Nlocal:    0.5 ave 1 max 0 min
Histogram: 1 0 0 0 0 0 0 0 0 1
Nghost:    0.5 ave 1 max 0 min
Histogram: 1 0 0 0 0 0 0 0 0 1
Neighs:    0 ave 0 max 0 min
Histogram: 2 0 0 0 0 0 0 0 0 0

Total # of neighbors = 0
Ave neighs/atom = 0
Neighbor list builds = 0
Dangerous builds = 0
write_restart ../DEM/post/restart/liggghts.restartCFDEM
run 100    
Setting up run at Fri Mar 20 13:10:38 2020

Memory usage per processor = 5.23812 Mbytes
    Step    Atoms         KinEng            rke         Volume 
   13900        1  1.3063473e-11              0          0.001 
CFD Coupling established at step 14000
   14000        1  1.3064677e-11              0          0.001 
Loop time of 0.000797987 on 2 procs for 100 steps with 1 atoms, finish time Fri Mar 20 13:10:38 2020


Pair  time (%) = 7.03335e-05 (8.81386)
Neigh time (%) = 0 (0)
Comm  time (%) = 7.05719e-05 (8.84374)
Outpt time (%) = 8.96454e-05 (11.2339)
Other time (%) = 0.000567436 (71.1085)

Nlocal:    0.5 ave 1 max 0 min
Histogram: 1 0 0 0 0 0 0 0 0 1
Nghost:    0.5 ave 1 max 0 min
Histogram: 1 0 0 0 0 0 0 0 0 1
Neighs:    0 ave 0 max 0 min
Histogram: 2 0 0 0 0 0 0 0 0 0

Total # of neighbors = 0
Ave neighs/atom = 0
Neighbor list builds = 0
Dangerous builds = 0
write_restart ../DEM/post/restart/liggghts.restartCFDEM
run 100    
Setting up run at Fri Mar 20 13:10:38 2020

Memory usage per processor = 5.23812 Mbytes
    Step    Atoms         KinEng            rke         Volume 
   14000        1  1.3064677e-11              0          0.001 
CFD Coupling established at step 14100
   14100        1  1.3066281e-11              0          0.001 
Loop time of 0.000441074 on 2 procs for 100 steps with 1 atoms, finish time Fri Mar 20 13:10:38 2020


Pair  time (%) = 7.236e-05 (16.4054)
Neigh time (%) = 0 (0)
Comm  time (%) = 5.82933e-05 (13.2162)
Outpt time (%) = 2.55108e-05 (5.78378)
Other time (%) = 0.00028491 (64.5946)

Nlocal:    0.5 ave 1 max 0 min
Histogram: 1 0 0 0 0 0 0 0 0 1
Nghost:    0.5 ave 1 max 0 min
Histogram: 1 0 0 0 0 0 0 0 0 1
Neighs:    0 ave 0 max 0 min
Histogram: 2 0 0 0 0 0 0 0 0 0

Total # of neighbors = 0
Ave neighs/atom = 0
Neighbor list builds = 0
Dangerous builds = 0
write_restart ../DEM/post/restart/liggghts.restartCFDEM
run 100    
Setting up run at Fri Mar 20 13:10:38 2020

Memory usage per processor = 5.23812 Mbytes
    Step    Atoms         KinEng            rke         Volume 
   14100        1  1.3066281e-11              0          0.001 
CFD Coupling established at step 14200
   14200        1  1.3068242e-11              0          0.001 
Loop time of 0.000519395 on 2 procs for 100 steps with 1 atoms, finish time Fri Mar 20 13:10:38 2020


Pair  time (%) = 7.41482e-05 (14.2759)
Neigh time (%) = 0 (0)
Comm  time (%) = 5.62668e-05 (10.8331)
Outpt time (%) = 3.94583e-05 (7.59697)
Other time (%) = 0.000349522 (67.294)

Nlocal:    0.5 ave 1 max 0 min
Histogram: 1 0 0 0 0 0 0 0 0 1
Nghost:    0.5 ave 1 max 0 min
Histogram: 1 0 0 0 0 0 0 0 0 1
Neighs:    0 ave 0 max 0 min
Histogram: 2 0 0 0 0 0 0 0 0 0

Total # of neighbors = 0
Ave neighs/atom = 0
Neighbor list builds = 0
Dangerous builds = 0
write_restart ../DEM/post/restart/liggghts.restartCFDEM
run 100    
Setting up run at Fri Mar 20 13:10:38 2020

Memory usage per processor = 5.23812 Mbytes
    Step    Atoms         KinEng            rke         Volume 
   14200        1  1.3068242e-11              0          0.001 
CFD Coupling established at step 14300
   14300        1  1.3070521e-11              0          0.001 
Loop time of 0.00050807 on 2 procs for 100 steps with 1 atoms, finish time Fri Mar 20 13:10:38 2020


Pair  time (%) = 5.99623e-05 (11.802)
Neigh time (%) = 0 (0)
Comm  time (%) = 6.96182e-05 (13.7025)
Outpt time (%) = 4.39882e-05 (8.65791)
Other time (%) = 0.000334501 (65.8376)

Nlocal:    0.5 ave 1 max 0 min
Histogram: 1 0 0 0 0 0 0 0 0 1
Nghost:    0.5 ave 1 max 0 min
Histogram: 1 0 0 0 0 0 0 0 0 1
Neighs:    0 ave 0 max 0 min
Histogram: 2 0 0 0 0 0 0 0 0 0

Total # of neighbors = 0
Ave neighs/atom = 0
Neighbor list builds = 0
Dangerous builds = 0
write_restart ../DEM/post/restart/liggghts.restartCFDEM
run 100    
Setting up run at Fri Mar 20 13:10:38 2020

Memory usage per processor = 5.23812 Mbytes
    Step    Atoms         KinEng            rke         Volume 
   14300        1  1.3070521e-11              0          0.001 
CFD Coupling established at step 14400
   14400        1  1.3073084e-11              0          0.001 
Loop time of 0.000507355 on 2 procs for 100 steps with 1 atoms, finish time Fri Mar 20 13:10:38 2020


Pair  time (%) = 5.66244e-05 (11.1607)
Neigh time (%) = 0 (0)
Comm  time (%) = 6.30617e-05 (12.4295)
Outpt time (%) = 3.95775e-05 (7.80075)
Other time (%) = 0.000348091 (68.609)

Nlocal:    0.5 ave 1 max 0 min
Histogram: 1 0 0 0 0 0 0 0 0 1
Nghost:    0.5 ave 1 max 0 min
Histogram: 1 0 0 0 0 0 0 0 0 1
Neighs:    0 ave 0 max 0 min
Histogram: 2 0 0 0 0 0 0 0 0 0

Total # of neighbors = 0
Ave neighs/atom = 0
Neighbor list builds = 0
Dangerous builds = 0
write_restart ../DEM/post/restart/liggghts.restartCFDEM
run 100    
Setting up run at Fri Mar 20 13:10:38 2020

Memory usage per processor = 5.23812 Mbytes
    Step    Atoms         KinEng            rke         Volume 
   14400        1  1.3073084e-11              0          0.001 
CFD Coupling established at step 14500
   14500        1  1.3075898e-11              0          0.001 
Loop time of 0.000504017 on 2 procs for 100 steps with 1 atoms, finish time Fri Mar 20 13:10:38 2020


Pair  time (%) = 7.02143e-05 (13.9309)
Neigh time (%) = 0 (0)
Comm  time (%) = 6.16312e-05 (12.228)
Outpt time (%) = 4.11272e-05 (8.15989)
Other time (%) = 0.000331044 (65.6812)

Nlocal:    0.5 ave 1 max 0 min
Histogram: 1 0 0 0 0 0 0 0 0 1
Nghost:    0.5 ave 1 max 0 min
Histogram: 1 0 0 0 0 0 0 0 0 1
Neighs:    0 ave 0 max 0 min
Histogram: 2 0 0 0 0 0 0 0 0 0

Total # of neighbors = 0
Ave neighs/atom = 0
Neighbor list builds = 0
Dangerous builds = 0
write_restart ../DEM/post/restart/liggghts.restartCFDEM
run 100    
Setting up run at Fri Mar 20 13:10:38 2020

Memory usage per processor = 5.23812 Mbytes
    Step    Atoms         KinEng            rke         Volume 
   14500        1  1.3075898e-11              0          0.001 
CFD Coupling established at step 14600
   14600        1  1.3078937e-11              0          0.001 
Loop time of 0.000556946 on 2 procs for 100 steps with 1 atoms, finish time Fri Mar 20 13:10:38 2020


Pair  time (%) = 7.53403e-05 (13.5274)
Neigh time (%) = 0 (0)
Comm  time (%) = 7.60555e-05 (13.6558)
Outpt time (%) = 3.99351e-05 (7.17038)
Other time (%) = 0.000365615 (65.6464)

Nlocal:    0.5 ave 1 max 0 min
Histogram: 1 0 0 0 0 0 0 0 0 1
Nghost:    0.5 ave 1 max 0 min
Histogram: 1 0 0 0 0 0 0 0 0 1
Neighs:    0 ave 0 max 0 min
Histogram: 2 0 0 0 0 0 0 0 0 0

Total # of neighbors = 0
Ave neighs/atom = 0
Neighbor list builds = 0
Dangerous builds = 0
write_restart ../DEM/post/restart/liggghts.restartCFDEM
run 100    
Setting up run at Fri Mar 20 13:10:38 2020

Memory usage per processor = 5.23812 Mbytes
    Step    Atoms         KinEng            rke         Volume 
   14600        1  1.3078937e-11              0          0.001 
CFD Coupling established at step 14700
   14700        1  1.3082177e-11              0          0.001 
Loop time of 0.00113451 on 2 procs for 100 steps with 1 atoms, finish time Fri Mar 20 13:10:38 2020


Pair  time (%) = 8.80957e-05 (7.76505)
Neigh time (%) = 0 (0)
Comm  time (%) = 9.48906e-05 (8.36398)
Outpt time (%) = 0.000105977 (9.34118)
Other time (%) = 0.000845551 (74.5298)

Nlocal:    0.5 ave 1 max 0 min
Histogram: 1 0 0 0 0 0 0 0 0 1
Nghost:    0.5 ave 1 max 0 min
Histogram: 1 0 0 0 0 0 0 0 0 1
Neighs:    0 ave 0 max 0 min
Histogram: 2 0 0 0 0 0 0 0 0 0

Total # of neighbors = 0
Ave neighs/atom = 0
Neighbor list builds = 0
Dangerous builds = 0
write_restart ../DEM/post/restart/liggghts.restartCFDEM
run 100    
Setting up run at Fri Mar 20 13:10:38 2020

Memory usage per processor = 5.23812 Mbytes
    Step    Atoms         KinEng            rke         Volume 
   14700        1  1.3082177e-11              0          0.001 
CFD Coupling established at step 14800
   14800        1  1.3085595e-11              0          0.001 
Loop time of 0.00050199 on 2 procs for 100 steps with 1 atoms, finish time Fri Mar 20 13:10:38 2020


Pair  time (%) = 7.09295e-05 (14.1297)
Neigh time (%) = 0 (0)
Comm  time (%) = 6.13928e-05 (12.2299)
Outpt time (%) = 4.35114e-05 (8.66777)
Other time (%) = 0.000326157 (64.9727)

Nlocal:    0.5 ave 1 max 0 min
Histogram: 1 0 0 0 0 0 0 0 0 1
Nghost:    0.5 ave 1 max 0 min
Histogram: 1 0 0 0 0 0 0 0 0 1
Neighs:    0 ave 0 max 0 min
Histogram: 2 0 0 0 0 0 0 0 0 0

Total # of neighbors = 0
Ave neighs/atom = 0
Neighbor list builds = 0
Dangerous builds = 0
write_restart ../DEM/post/restart/liggghts.restartCFDEM
run 100    
Setting up run at Fri Mar 20 13:10:38 2020

Memory usage per processor = 5.23812 Mbytes
    Step    Atoms         KinEng            rke         Volume 
   14800        1  1.3085595e-11              0          0.001 
CFD Coupling established at step 14900
   14900        1  1.3079284e-11              0          0.001 
Loop time of 0.000450373 on 2 procs for 100 steps with 1 atoms, finish time Fri Mar 20 13:10:38 2020


Pair  time (%) = 5.61476e-05 (12.4669)
Neigh time (%) = 0 (0)
Comm  time (%) = 6.78301e-05 (15.0609)
Outpt time (%) = 2.0504e-05 (4.55267)
Other time (%) = 0.000305891 (67.9195)

Nlocal:    0.5 ave 1 max 0 min
Histogram: 1 0 0 0 0 0 0 0 0 1
Nghost:    0.5 ave 1 max 0 min
Histogram: 1 0 0 0 0 0 0 0 0 1
Neighs:    0 ave 0 max 0 min
Histogram: 2 0 0 0 0 0 0 0 0 0

Total # of neighbors = 0
Ave neighs/atom = 0
Neighbor list builds = 0
Dangerous builds = 0
write_restart ../DEM/post/restart/liggghts.restartCFDEM
run 100    
Setting up run at Fri Mar 20 13:10:38 2020

Memory usage per processor = 5.23812 Mbytes
    Step    Atoms         KinEng            rke         Volume 
   14900        1  1.3079284e-11              0          0.001 
CFD Coupling established at step 15000
   15000        1  1.3074135e-11              0          0.001 
Loop time of 0.000555515 on 2 procs for 100 steps with 1 atoms, finish time Fri Mar 20 13:10:38 2020


Pair  time (%) = 7.36713e-05 (13.2618)
Neigh time (%) = 0 (0)
Comm  time (%) = 5.68628e-05 (10.2361)
Outpt time (%) = 8.15392e-05 (14.6781)
Other time (%) = 0.000343442 (61.824)

Nlocal:    0.5 ave 1 max 0 min
Histogram: 1 0 0 0 0 0 0 0 0 1
Nghost:    0.5 ave 1 max 0 min
Histogram: 1 0 0 0 0 0 0 0 0 1
Neighs:    0 ave 0 max 0 min
Histogram: 2 0 0 0 0 0 0 0 0 0

Total # of neighbors = 0
Ave neighs/atom = 0
Neighbor list builds = 0
Dangerous builds = 0
write_restart ../DEM/post/restart/liggghts.restartCFDEM
