/*--------------------------------*- C++ -*----------------------------------*\
| =========                 |                                                 |
| \\      /  F ield         | OpenFOAM: The Open Source CFD Toolbox           |
|  \\    /   O peration     | Version:  5.x                                   |
|   \\  /    A nd           | Web:      www.OpenFOAM.org                      |
|    \\/     M anipulation  |                                                 |
\*---------------------------------------------------------------------------*/
FoamFile
{
    version     2.0;
    format      ascii;
    class       volScalarField;
    location    "0.15";
    object      p;
}
// * * * * * * * * * * * * * * * * * * * * * * * * * * * * * * * * * * * * * //

dimensions      [0 2 -2 0 0 0 0];

internalField   nonuniform List<scalar> 
320
(
-5.50768e-07
-8.77677e-08
-2.8289e-07
-5.51048e-07
-1.80841e-06
-7.64944e-07
-1.21642e-06
-1.97007e-06
-3.98331e-06
-5.0182e-06
-4.15313e-06
-3.83626e-06
-4.85795e-06
-8.19907e-06
-6.79613e-06
-5.24822e-06
-5.10205e-06
-3.15371e-06
-4.32499e-06
-4.85558e-06
-5.78574e-06
-3.82884e-06
-4.30784e-06
-4.71202e-06
-5.63306e-06
-5.22089e-06
-5.29214e-06
-5.37318e-06
-5.91997e-06
-5.80642e-06
-5.81971e-06
-5.85015e-06
-6.27742e-06
-6.40371e-06
-6.30409e-06
-6.25554e-06
-6.79132e-06
-7.03445e-06
-6.94636e-06
-6.79666e-06
-7.04845e-06
-7.26198e-06
-7.23672e-06
-7.07987e-06
-7.13878e-06
-7.25128e-06
-7.23714e-06
-7.18116e-06
-7.26295e-06
-7.33692e-06
-7.34077e-06
-7.28976e-06
-7.28246e-06
-7.32181e-06
-7.32434e-06
-7.31726e-06
-7.33456e-06
-7.36244e-06
-7.36719e-06
-7.35592e-06
-7.34302e-06
-7.35986e-06
-7.36232e-06
-7.36503e-06
-7.36338e-06
-7.37546e-06
-7.37737e-06
-7.37979e-06
-7.36805e-06
-7.37679e-06
-7.37805e-06
-7.38219e-06
-7.37492e-06
-7.38188e-06
-7.38295e-06
-7.38701e-06
-7.37734e-06
-7.3828e-06
-7.38367e-06
-7.38757e-06
-8.77677e-08
3.45919e-06
1.8327e-06
3.07899e-07
-7.64944e-07
1.50523e-05
7.0827e-06
2.43769e-07
-5.0182e-06
7.65478e-06
2.32756e-07
-1.62627e-06
-8.19907e-06
-2.04279e-05
-1.37402e-05
-5.91116e-06
-3.15371e-06
-1.80934e-05
-1.04937e-05
-6.91838e-06
-3.82884e-06
-6.45397e-06
-5.96393e-06
-5.98925e-06
-5.22089e-06
-6.97789e-06
-6.14726e-06
-6.35701e-06
-5.80642e-06
-7.56526e-06
-6.73165e-06
-6.80709e-06
-6.40371e-06
-7.55776e-06
-7.00052e-06
-7.12428e-06
-7.03445e-06
-7.87098e-06
-7.46682e-06
-7.53546e-06
-7.26198e-06
-7.84899e-06
-7.59347e-06
-7.64246e-06
-7.25128e-06
-7.66127e-06
-7.51691e-06
-7.58257e-06
-7.33692e-06
-7.58737e-06
-7.51678e-06
-7.55144e-06
-7.32181e-06
-7.48044e-06
-7.44438e-06
-7.48704e-06
-7.36244e-06
-7.46269e-06
-7.43871e-06
-7.47004e-06
-7.35986e-06
-7.41951e-06
-7.41096e-06
-7.43643e-06
-7.37546e-06
-7.41387e-06
-7.40813e-06
-7.42699e-06
-7.37679e-06
-7.40057e-06
-7.39887e-06
-7.41254e-06
-7.38188e-06
-7.39823e-06
-7.39795e-06
-7.40864e-06
-7.3828e-06
-7.39344e-06
-7.39413e-06
-7.40163e-06
-2.8289e-07
1.8327e-06
9.59441e-07
-7.70439e-08
-1.21642e-06
7.0827e-06
3.8238e-06
-7.5439e-07
-4.15313e-06
2.32756e-07
-1.60608e-06
-2.97144e-06
-6.79613e-06
-1.37402e-05
-1.12242e-05
-5.81415e-06
-4.32499e-06
-1.04937e-05
-8.66265e-06
-5.87836e-06
-4.30784e-06
-5.96393e-06
-5.65362e-06
-5.46951e-06
-5.29214e-06
-6.14726e-06
-5.95883e-06
-6.12939e-06
-5.81971e-06
-6.73165e-06
-6.50415e-06
-6.55702e-06
-6.30409e-06
-7.00052e-06
-6.75084e-06
-6.84224e-06
-6.94636e-06
-7.46682e-06
-7.24626e-06
-7.34346e-06
-7.23672e-06
-7.59347e-06
-7.51309e-06
-7.53578e-06
-7.23714e-06
-7.51691e-06
-7.429e-06
-7.48858e-06
-7.34077e-06
-7.51678e-06
-7.48045e-06
-7.49047e-06
-7.32434e-06
-7.44438e-06
-7.41521e-06
-7.45433e-06
-7.36719e-06
-7.43871e-06
-7.42356e-06
-7.44391e-06
-7.36232e-06
-7.41096e-06
-7.40177e-06
-7.42491e-06
-7.37737e-06
-7.40813e-06
-7.40282e-06
-7.41914e-06
-7.37805e-06
-7.39887e-06
-7.39629e-06
-7.40989e-06
-7.38295e-06
-7.39795e-06
-7.39707e-06
-7.40765e-06
-7.38367e-06
-7.39413e-06
-7.39445e-06
-7.40232e-06
-5.51048e-07
3.07899e-07
-7.70439e-08
-2.58254e-07
-1.97007e-06
2.43769e-07
-7.5439e-07
-1.26857e-06
-3.83626e-06
-1.62627e-06
-2.97144e-06
-2.78613e-06
-5.24822e-06
-5.91116e-06
-5.81415e-06
-4.50425e-06
-4.85558e-06
-6.91838e-06
-5.87836e-06
-5.52073e-06
-4.71202e-06
-5.98925e-06
-5.46951e-06
-6.21907e-06
-5.37318e-06
-6.35701e-06
-6.12939e-06
-6.5879e-06
-5.85015e-06
-6.80709e-06
-6.55702e-06
-7.01765e-06
-6.25554e-06
-7.12428e-06
-6.84224e-06
-7.31755e-06
-6.79666e-06
-7.53546e-06
-7.34346e-06
-7.52004e-06
-7.07987e-06
-7.64246e-06
-7.53578e-06
-7.63387e-06
-7.18116e-06
-7.58257e-06
-7.48858e-06
-7.6063e-06
-7.28976e-06
-7.55144e-06
-7.49047e-06
-7.57494e-06
-7.31726e-06
-7.48704e-06
-7.45433e-06
-7.52589e-06
-7.35592e-06
-7.47004e-06
-7.44391e-06
-7.50146e-06
-7.36503e-06
-7.43643e-06
-7.42491e-06
-7.46599e-06
-7.37979e-06
-7.42699e-06
-7.41914e-06
-7.45027e-06
-7.38219e-06
-7.41254e-06
-7.40989e-06
-7.43093e-06
-7.38701e-06
-7.40864e-06
-7.40765e-06
-7.42412e-06
-7.38757e-06
-7.40163e-06
-7.40232e-06
-7.41324e-06
)
;

boundaryField
{
    inlet
    {
        type            zeroGradient;
    }
    outlet
    {
        type            totalPressure;
        rho             rho;
        psi             none;
        gamma           1;
        p0              uniform 0;
        value           nonuniform List<scalar> 
16
(
-1.85071e-11
-6.45122e-11
-2.90569e-11
-1.95044e-11
-6.45122e-11
0
0
0
-2.90569e-11
0
0
0
-1.95044e-11
0
0
0
)
;
    }
    walls
    {
        type            zeroGradient;
    }
}


// ************************************************************************* //
