/*--------------------------------*- C++ -*----------------------------------*\
| =========                 |                                                 |
| \\      /  F ield         | OpenFOAM: The Open Source CFD Toolbox           |
|  \\    /   O peration     | Version:  5.x                                   |
|   \\  /    A nd           | Web:      www.OpenFOAM.org                      |
|    \\/     M anipulation  |                                                 |
\*---------------------------------------------------------------------------*/
FoamFile
{
    version     2.0;
    format      ascii;
    class       volVectorField;
    location    "0.15";
    object      U;
}
// * * * * * * * * * * * * * * * * * * * * * * * * * * * * * * * * * * * * * //

dimensions      [0 1 -1 0 0 0 0];

internalField   nonuniform List<vector> 
320
(
(-1.38975e-06 5.75775e-06 -1.38975e-06)
(-1.01793e-06 1.49061e-06 -1.12146e-05)
(9.91008e-07 2.55632e-06 -7.11316e-06)
(5.52737e-07 4.56491e-06 -4.22673e-06)
(-3.05695e-06 6.18002e-06 -3.05695e-06)
(-2.57342e-06 1.41111e-06 -4.10029e-05)
(2.16243e-06 2.92603e-06 -2.44435e-05)
(1.43478e-06 5.71538e-06 -1.19896e-05)
(-6.12734e-06 6.27102e-06 -6.12734e-06)
(-4.48026e-06 3.74652e-06 -0.000111206)
(5.41508e-06 4.93102e-06 -6.08664e-05)
(3.25923e-06 8.01581e-06 -2.23575e-05)
(-2.81873e-06 2.11993e-06 -2.81873e-06)
(-2.9301e-06 -1.63936e-05 -0.00011004)
(3.80423e-06 -3.66648e-06 -6.02391e-05)
(3.16708e-06 8.62811e-06 -2.49338e-05)
(5.70126e-07 7.64315e-07 5.70126e-07)
(1.28989e-06 -4.12802e-05 -1.39313e-05)
(4.81492e-06 -1.72626e-05 -1.72162e-05)
(3.45372e-06 5.20274e-06 -1.42214e-05)
(-3.32867e-06 2.41709e-06 -3.32867e-06)
(-9.33768e-07 -5.29662e-05 1.9699e-05)
(7.53648e-06 -2.54111e-05 4.14335e-06)
(4.53704e-06 2.60272e-06 -4.18699e-06)
(-3.20816e-06 2.56088e-06 -3.20816e-06)
(-1.49398e-06 -5.33473e-05 2.7099e-05)
(6.52558e-06 -2.5411e-05 1.06732e-05)
(4.24027e-06 4.8128e-06 3.68573e-06)
(-5.89354e-07 1.04149e-06 -5.89354e-07)
(1.62935e-07 -5.49896e-05 4.03994e-05)
(3.22275e-06 -2.83044e-05 2.05219e-05)
(2.16613e-06 5.9973e-06 1.04173e-05)
(3.49822e-06 1.88057e-06 3.49822e-06)
(8.76472e-07 -4.76927e-05 6.01469e-05)
(-6.11704e-07 -2.34007e-05 3.24821e-05)
(2.17398e-06 6.59227e-06 1.74093e-05)
(9.00797e-06 5.32724e-06 9.00797e-06)
(6.6082e-06 -2.82803e-05 7.56356e-05)
(-7.69877e-06 -1.43685e-05 4.88142e-05)
(-4.23252e-06 5.76253e-06 2.29895e-05)
(8.04845e-06 4.2789e-06 8.04845e-06)
(8.39992e-06 -8.62099e-06 5.50992e-05)
(-7.80136e-06 -3.80462e-06 4.05427e-05)
(-6.97469e-06 4.117e-06 1.8773e-05)
(3.50196e-06 2.53466e-06 3.50196e-06)
(3.80833e-06 -4.72254e-06 2.52205e-05)
(-2.63749e-06 -3.90429e-06 1.86886e-05)
(-2.41036e-06 2.37297e-06 1.14885e-05)
(2.12754e-06 2.46149e-06 2.12754e-06)
(2.731e-06 -8.81357e-08 1.36463e-05)
(-1.79456e-06 1.22955e-07 1.06875e-05)
(-2.07683e-06 2.09126e-06 7.57058e-06)
(9.3388e-07 1.16011e-06 9.3388e-07)
(1.27236e-06 -3.26053e-07 6.2131e-06)
(-3.88574e-07 -5.53559e-07 5.16322e-06)
(-5.57212e-07 1.18605e-06 4.37128e-06)
(6.5653e-07 1.11886e-06 6.5653e-07)
(9.37962e-07 6.33312e-07 3.38501e-06)
(-2.59649e-07 5.2821e-07 2.90393e-06)
(-4.56084e-07 9.74384e-07 2.75618e-06)
(3.42444e-07 5.60276e-07 3.42444e-07)
(5.20236e-07 2.05399e-07 1.68964e-06)
(6.55837e-08 7.95429e-08 1.57041e-06)
(-5.81587e-08 5.07649e-07 1.61357e-06)
(2.55897e-07 4.90324e-07 2.55897e-07)
(3.85801e-07 3.69279e-07 9.41958e-07)
(8.61938e-08 3.07556e-07 9.11219e-07)
(-2.0436e-08 3.86247e-07 9.88983e-07)
(1.6478e-07 2.54396e-07 1.6478e-07)
(2.61121e-07 1.57419e-07 5.25373e-07)
(1.34056e-07 1.11478e-07 5.38355e-07)
(5.45816e-08 1.76581e-07 5.94101e-07)
(1.28472e-07 1.91934e-07 1.28472e-07)
(2.03797e-07 1.45549e-07 3.21676e-07)
(1.24795e-07 1.17582e-07 3.40382e-07)
(5.72568e-08 1.17015e-07 3.79639e-07)
(8.20585e-08 5.41979e-08 8.20585e-08)
(1.31876e-07 2.81165e-08 1.73458e-07)
(1.03759e-07 1.83068e-08 1.88956e-07)
(5.78355e-08 2.22877e-08 2.08386e-07)
(-1.12146e-05 1.49061e-06 -1.01793e-06)
(-6.7757e-06 -5.14939e-05 -6.7757e-06)
(7.75802e-06 -2.94563e-05 -5.18046e-06)
(3.15586e-06 -1.1684e-05 -3.26888e-06)
(-4.10029e-05 1.41111e-06 -2.57342e-06)
(-2.40016e-05 -0.000104762 -2.40016e-05)
(3.08219e-05 -5.42432e-05 -1.71556e-05)
(1.307e-05 -1.32115e-05 -8.65457e-06)
(-0.000111206 3.74652e-06 -4.48026e-06)
(-5.91184e-05 -0.000215113 -5.91184e-05)
(9.44237e-05 -0.000102661 -4.14977e-05)
(4.00875e-05 -6.78678e-06 -1.50115e-05)
(-0.00011004 -1.63936e-05 -2.9301e-06)
(-5.99606e-05 -0.000651683 -5.99606e-05)
(8.95203e-05 -0.000318609 -4.1768e-05)
(3.56182e-05 4.7675e-06 -1.64165e-05)
(-1.39313e-05 -4.12802e-05 1.28989e-06)
(-1.56105e-05 -0.000573519 -1.56105e-05)
(4.43084e-06 -0.00029919 -1.35498e-05)
(2.98691e-06 6.16447e-06 -1.00759e-05)
(1.9699e-05 -5.29662e-05 -9.33768e-07)
(7.41556e-06 -0.000586154 7.41556e-06)
(-1.67291e-05 -0.000307343 2.1776e-06)
(-6.56385e-06 -4.0285e-06 -4.02376e-06)
(2.7099e-05 -5.33473e-05 -1.49398e-06)
(1.30334e-05 -0.000547183 1.30334e-05)
(-1.66049e-05 -0.000299962 5.97248e-06)
(-3.68731e-06 -9.44622e-06 1.63615e-06)
(4.03994e-05 -5.49896e-05 1.62935e-07)
(2.15172e-05 -0.000480958 2.15172e-05)
(-2.62302e-05 -0.000277416 1.22789e-05)
(-6.99551e-06 -1.208e-05 6.85509e-06)
(6.01469e-05 -4.76927e-05 8.76472e-07)
(2.85065e-05 -0.00039287 2.85065e-05)
(-4.32151e-05 -0.000233905 1.24541e-05)
(-8.88258e-06 -1.29789e-05 1.03696e-05)
(7.56356e-05 -2.82803e-05 6.6082e-06)
(4.57697e-05 -0.00026362 4.57697e-05)
(-6.12158e-05 -0.000187476 3.53942e-05)
(-2.56042e-05 -2.15181e-05 1.69049e-05)
(5.50992e-05 -8.62099e-06 8.39992e-06)
(4.18315e-05 -0.000108078 4.18315e-05)
(-4.45943e-05 -7.30601e-05 4.16237e-05)
(-2.64279e-05 -1.37758e-05 1.66125e-05)
(2.52205e-05 -4.72254e-06 3.80833e-06)
(1.94382e-05 -5.74411e-05 1.94382e-05)
(-1.56479e-05 -4.32946e-05 1.8223e-05)
(-8.14329e-06 -1.05381e-05 1.02955e-05)
(1.36463e-05 -8.81357e-08 2.731e-06)
(1.16858e-05 -2.17952e-05 1.16858e-05)
(-7.15851e-06 -1.56041e-05 1.13543e-05)
(-4.30337e-06 -5.45069e-06 7.19613e-06)
(6.2131e-06 -3.26053e-07 1.27236e-06)
(5.73273e-06 -1.19986e-05 5.73273e-06)
(-1.62474e-06 -9.5931e-06 5.57575e-06)
(-7.9568e-07 -3.94758e-06 4.48507e-06)
(3.38501e-06 6.33312e-07 9.37962e-07)
(3.33199e-06 -4.30927e-06 3.33199e-06)
(-4.69448e-07 -3.44556e-06 3.31006e-06)
(-2.867e-07 -1.87184e-06 2.97962e-06)
(1.68964e-06 2.05399e-07 5.20236e-07)
(1.84236e-06 -2.48194e-06 1.84236e-06)
(2.8073e-07 -2.15265e-06 1.90164e-06)
(1.94683e-07 -1.33982e-06 1.89138e-06)
(9.41958e-07 3.69279e-07 3.85801e-07)
(1.09812e-06 -8.58612e-07 1.09812e-06)
(3.23983e-07 -7.96137e-07 1.15818e-06)
(1.80585e-07 -6.58338e-07 1.21798e-06)
(5.25373e-07 1.57419e-07 2.61121e-07)
(6.74593e-07 -4.95404e-07 6.74593e-07)
(3.30847e-07 -5.00983e-07 7.34205e-07)
(1.91903e-07 -4.53347e-07 7.87781e-07)
(3.21676e-07 1.45549e-07 2.03797e-07)
(4.41425e-07 -1.82325e-07 4.41425e-07)
(2.69077e-07 -2.12572e-07 4.87653e-07)
(1.47275e-07 -2.4498e-07 5.29567e-07)
(1.73458e-07 2.81165e-08 1.31876e-07)
(2.54616e-07 -9.0736e-08 2.54616e-07)
(1.89403e-07 -1.01184e-07 2.85327e-07)
(1.08206e-07 -1.17769e-07 3.05685e-07)
(-7.11316e-06 2.55632e-06 9.91008e-07)
(-5.18046e-06 -2.94563e-05 7.75802e-06)
(4.27254e-06 -1.97543e-05 4.27254e-06)
(2.17236e-06 -7.05606e-06 1.1595e-06)
(-2.44435e-05 2.92603e-06 2.16243e-06)
(-1.71556e-05 -5.42432e-05 3.08219e-05)
(1.70805e-05 -3.54318e-05 1.70805e-05)
(9.16213e-06 -6.38634e-06 4.79054e-06)
(-6.08664e-05 4.93102e-06 5.41508e-06)
(-4.14977e-05 -0.000102661 9.44237e-05)
(4.92908e-05 -6.6804e-05 4.92908e-05)
(2.82734e-05 -6.82458e-07 1.09846e-05)
(-6.02391e-05 -3.66648e-06 3.80423e-06)
(-4.1768e-05 -0.000318609 8.95203e-05)
(4.74414e-05 -0.000212264 4.74414e-05)
(2.62879e-05 5.88518e-06 1.16019e-05)
(-1.72162e-05 -1.72626e-05 4.81492e-06)
(-1.35498e-05 -0.00029919 4.43084e-06)
(1.07679e-05 -0.000201257 1.07679e-05)
(4.69326e-06 4.65546e-06 3.29817e-06)
(4.14335e-06 -2.54111e-05 7.53648e-06)
(2.1776e-06 -0.000307343 -1.67291e-05)
(-3.47602e-06 -0.000208748 -3.47602e-06)
(-3.31718e-06 -1.84525e-06 2.22641e-07)
(1.06732e-05 -2.5411e-05 6.52558e-06)
(5.97248e-06 -0.000299962 -1.66049e-05)
(-3.97493e-06 -0.000206352 -3.97493e-06)
(-5.30668e-07 -3.48278e-06 -3.03953e-08)
(2.05219e-05 -2.83044e-05 3.22275e-06)
(1.22789e-05 -0.000277416 -2.62302e-05)
(-1.05787e-05 -0.000199877 -1.05787e-05)
(-2.66794e-06 -6.57225e-06 -1.82215e-06)
(3.24821e-05 -2.34007e-05 -6.11704e-07)
(1.24541e-05 -0.000233905 -4.32151e-05)
(-1.93468e-05 -0.000173863 -1.93468e-05)
(1.62365e-06 -7.89113e-06 -5.00063e-06)
(4.88142e-05 -1.43685e-05 -7.69877e-06)
(3.53942e-05 -0.000187476 -6.12158e-05)
(-3.71654e-05 -0.000182486 -3.71654e-05)
(-1.96179e-05 -2.14974e-05 -9.98747e-06)
(4.05427e-05 -3.80462e-06 -7.80136e-06)
(4.16237e-05 -7.30601e-05 -4.45943e-05)
(-3.22107e-05 -6.36201e-05 -3.22107e-05)
(-2.874e-05 -9.70384e-06 -7.33932e-06)
(1.86886e-05 -3.90429e-06 -2.63749e-06)
(1.8223e-05 -4.32946e-05 -1.56479e-05)
(-1.07207e-05 -4.23494e-05 -1.07207e-05)
(-8.55486e-06 -8.31047e-06 -1.36317e-06)
(1.06875e-05 1.22955e-07 -1.79456e-06)
(1.13543e-05 -1.56041e-05 -7.15851e-06)
(-5.36513e-06 -1.40071e-05 -5.36513e-06)
(-5.11571e-06 -3.81662e-06 1.03009e-07)
(5.16322e-06 -5.53559e-07 -3.88574e-07)
(5.57575e-06 -9.5931e-06 -1.62474e-06)
(-9.18331e-07 -9.42844e-06 -9.18331e-07)
(-9.2468e-07 -3.10077e-06 1.21747e-06)
(2.90393e-06 5.2821e-07 -2.59649e-07)
(3.31006e-06 -3.44556e-06 -4.69448e-07)
(-1.19357e-07 -3.31887e-06 -1.19357e-07)
(-3.45616e-07 -1.56361e-06 1.12531e-06)
(1.57041e-06 7.95429e-08 6.55837e-08)
(1.90164e-06 -2.15265e-06 2.8073e-07)
(4.66279e-07 -2.2058e-06 4.66279e-07)
(2.40531e-07 -1.24042e-06 1.00391e-06)
(9.11219e-07 3.07556e-07 8.61938e-08)
(1.15818e-06 -7.96137e-07 3.23983e-07)
(4.37162e-07 -8.67563e-07 4.37162e-07)
(2.29476e-07 -6.84701e-07 7.49596e-07)
(5.38355e-07 1.11478e-07 1.34056e-07)
(7.34205e-07 -5.00983e-07 3.30847e-07)
(4.0813e-07 -5.69203e-07 4.0813e-07)
(2.41673e-07 -4.98291e-07 5.52087e-07)
(3.40382e-07 1.17582e-07 1.24795e-07)
(4.87653e-07 -2.12572e-07 2.69077e-07)
(3.226e-07 -2.68012e-07 3.226e-07)
(1.8562e-07 -2.98255e-07 4.08844e-07)
(1.88956e-07 1.83068e-08 1.03759e-07)
(2.85327e-07 -1.01184e-07 1.89403e-07)
(2.20292e-07 -1.17187e-07 2.20292e-07)
(1.31531e-07 -1.35085e-07 2.528e-07)
(-4.22673e-06 4.56491e-06 5.52737e-07)
(-3.26888e-06 -1.1684e-05 3.15586e-06)
(1.1595e-06 -7.05606e-06 2.17236e-06)
(1.0521e-07 -4.89939e-06 1.0521e-07)
(-1.19896e-05 5.71538e-06 1.43478e-06)
(-8.65457e-06 -1.32115e-05 1.307e-05)
(4.79054e-06 -6.38634e-06 9.16213e-06)
(1.17614e-06 -2.60946e-06 1.17614e-06)
(-2.23575e-05 8.01581e-06 3.25923e-06)
(-1.50115e-05 -6.78678e-06 4.00875e-05)
(1.09846e-05 -6.82458e-07 2.82734e-05)
(3.1103e-06 2.00125e-06 3.1103e-06)
(-2.49338e-05 8.62811e-06 3.16708e-06)
(-1.64165e-05 4.7675e-06 3.56182e-05)
(1.16019e-05 5.88518e-06 2.62879e-05)
(2.28843e-06 9.39075e-06 2.28843e-06)
(-1.42214e-05 5.20274e-06 3.45372e-06)
(-1.00759e-05 6.16447e-06 2.98691e-06)
(3.29817e-06 4.65546e-06 4.69326e-06)
(-1.64793e-06 1.52068e-05 -1.64793e-06)
(-4.18699e-06 2.60272e-06 4.53704e-06)
(-4.02376e-06 -4.0285e-06 -6.56385e-06)
(2.22641e-07 -1.84525e-06 -3.31718e-06)
(-5.93288e-07 1.77337e-05 -5.93288e-07)
(3.68573e-06 4.8128e-06 4.24027e-06)
(1.63615e-06 -9.44622e-06 -3.68731e-06)
(-3.03953e-08 -3.48278e-06 -5.30668e-07)
(1.54332e-06 1.80092e-05 1.54332e-06)
(1.04173e-05 5.9973e-06 2.16613e-06)
(6.85509e-06 -1.208e-05 -6.99551e-06)
(-1.82215e-06 -6.57225e-06 -2.66794e-06)
(1.61128e-06 1.59859e-05 1.61128e-06)
(1.74093e-05 6.59227e-06 2.17398e-06)
(1.03696e-05 -1.29789e-05 -8.88258e-06)
(-5.00063e-06 -7.89113e-06 1.62365e-06)
(2.38595e-06 1.24644e-05 2.38595e-06)
(2.29895e-05 5.76253e-06 -4.23252e-06)
(1.69049e-05 -2.15181e-05 -2.56042e-05)
(-9.98747e-06 -2.14974e-05 -1.96179e-05)
(-2.68924e-06 3.86292e-06 -2.68924e-06)
(1.8773e-05 4.117e-06 -6.97469e-06)
(1.66125e-05 -1.37758e-05 -2.64279e-05)
(-7.33932e-06 -9.70384e-06 -2.874e-05)
(-3.88573e-06 5.97395e-07 -3.88573e-06)
(1.14885e-05 2.37297e-06 -2.41036e-06)
(1.02955e-05 -1.05381e-05 -8.14329e-06)
(-1.36317e-06 -8.31047e-06 -8.55486e-06)
(4.33269e-07 -1.66157e-06 4.33269e-07)
(7.57058e-06 2.09126e-06 -2.07683e-06)
(7.19613e-06 -5.45069e-06 -4.30337e-06)
(1.03009e-07 -3.81662e-06 -5.11571e-06)
(8.45933e-07 -2.28055e-06 8.45933e-07)
(4.37128e-06 1.18605e-06 -5.57212e-07)
(4.48507e-06 -3.94758e-06 -7.9568e-07)
(1.21747e-06 -3.10077e-06 -9.2468e-07)
(1.26941e-06 -2.37953e-06 1.26941e-06)
(2.75618e-06 9.74384e-07 -4.56084e-07)
(2.97962e-06 -1.87184e-06 -2.867e-07)
(1.12531e-06 -1.56361e-06 -3.45616e-07)
(9.7956e-07 -1.7545e-06 9.7956e-07)
(1.61357e-06 5.07649e-07 -5.81587e-08)
(1.89138e-06 -1.33982e-06 1.94683e-07)
(1.00391e-06 -1.24042e-06 2.40531e-07)
(7.68188e-07 -1.44307e-06 7.68188e-07)
(9.88983e-07 3.86247e-07 -2.0436e-08)
(1.21798e-06 -6.58338e-07 1.80585e-07)
(7.49596e-07 -6.84701e-07 2.29476e-07)
(5.33657e-07 -9.46181e-07 5.33657e-07)
(5.94101e-07 1.76581e-07 5.45816e-08)
(7.87781e-07 -4.53347e-07 1.91903e-07)
(5.52087e-07 -4.98291e-07 2.41673e-07)
(3.68401e-07 -6.75269e-07 3.68401e-07)
(3.79639e-07 1.17015e-07 5.72568e-08)
(5.29567e-07 -2.4498e-07 1.47275e-07)
(4.08844e-07 -2.98255e-07 1.8562e-07)
(2.59206e-07 -4.29503e-07 2.59206e-07)
(2.08386e-07 2.22877e-08 5.78355e-08)
(3.05685e-07 -1.17769e-07 1.08206e-07)
(2.528e-07 -1.35085e-07 1.31531e-07)
(1.57358e-07 -1.95242e-07 1.57358e-07)
)
;

boundaryField
{
    inlet
    {
        type            fixedValue;
        value           uniform (0 0 0);
    }
    outlet
    {
        type            zeroGradient;
    }
    walls
    {
        type            fixedValue;
        value           uniform (0 0 0);
    }
}


// ************************************************************************* //
