FoamFile
{version 2.0; format ascii;class Cloud<passiveParticle>; location 0;object  positions;}
2
(
( 0.499988 0.499986 2.87133 ) 0 
( 0.49994 0.499941 2.54731 ) 0 
)
