FoamFile
{version 2.0; format ascii;class Cloud<passiveParticle>; location 0;object  positions;}
2
(
( 0.499973 0.499972 3.03768 ) 0 
( 0.49996 0.49996 2.70085 ) 0 
)
