/*--------------------------------*- C++ -*----------------------------------*\
| =========                 |                                                 |
| \\      /  F ield         | OpenFOAM: The Open Source CFD Toolbox           |
|  \\    /   O peration     | Version:  5.x                                   |
|   \\  /    A nd           | Web:      www.OpenFOAM.org                      |
|    \\/     M anipulation  |                                                 |
\*---------------------------------------------------------------------------*/
FoamFile
{
    version     2.0;
    format      ascii;
    class       surfaceScalarField;
    location    "0.099";
    object      phi;
}
// * * * * * * * * * * * * * * * * * * * * * * * * * * * * * * * * * * * * * //

dimensions      [0 3 -1 0 0 0 0];

internalField   nonuniform List<scalar> 
4402
(
-9.18846e-07
-9.06477e-07
3.49252e-07
-8.28519e-07
-1.08996e-06
1.28337e-07
-7.53835e-07
-1.15267e-06
1.6273e-07
-5.48628e-07
-1.24834e-06
6.02543e-08
-1.28854e-06
1.04372e-07
-1.10232e-06
-8.14059e-07
1.30898e-07
-9.93727e-07
-9.79315e-07
-2.1918e-07
-8.72543e-07
-1.03784e-06
-2.35961e-07
-6.45792e-07
-1.13347e-06
-3.41559e-07
-1.17433e-06
-3.0609e-07
-1.16509e-06
-7.36633e-07
1.64699e-07
-1.05226e-06
-8.55475e-07
-2.3662e-07
-9.14396e-07
-8.9734e-07
-2.78306e-07
-6.77304e-07
-9.84941e-07
-3.85579e-07
-1.02211e-06
-3.49219e-07
-1.26089e-06
-5.30557e-07
6.41924e-08
-1.14792e-06
-6.27911e-07
-3.40482e-07
-1.00198e-06
-6.5946e-07
-3.83768e-07
-7.56528e-07
-7.38757e-07
-4.91594e-07
-7.71493e-07
-4.53313e-07
-1.30131e-06
1.08853e-07
-1.18885e-06
-3.0512e-07
-1.03918e-06
-3.47516e-07
-7.89278e-07
-4.53503e-07
-4.08918e-07
-2.47705e-07
-2.38174e-07
4.65164e-07
-3.37615e-07
-1.00492e-07
2.44216e-07
-3.78007e-07
-6.27938e-08
2.23015e-07
-3.74919e-07
-3.13107e-08
7.34921e-08
-2.11301e-08
6.47106e-08
-1.09564e-07
-3.24525e-07
2.46307e-07
-2.21764e-07
-2.09313e-07
1.91376e-09
-3.16419e-07
-1.79232e-07
-2.47966e-08
-3.40734e-07
-1.56537e-07
-1.91947e-07
-1.53612e-07
-2.07973e-07
-7.18306e-08
-3.62635e-07
2.25622e-07
-1.91784e-07
-3.0183e-07
-2.40785e-08
-3.07091e-07
-2.92326e-07
-4.98369e-08
-3.41679e-07
-2.87542e-07
-2.1992e-07
-2.95598e-07
-2.35788e-07
-3.99248e-08
-3.57276e-07
7.82367e-08
-1.69004e-07
-3.24305e-07
-1.88857e-07
-3.02241e-07
-3.2518e-07
-2.1761e-07
-3.47856e-07
-3.31408e-07
-4.02045e-07
-3.46261e-07
-4.22916e-07
-2.9948e-08
6.98288e-08
-1.66171e-07
-2.03859e-07
-3.10341e-07
-2.3244e-07
-3.6273e-07
-4.2193e-07
-4.43108e-07
-8.484e-07
-8.36664e-07
7.41059e-07
-8.00555e-07
-9.2402e-07
3.55343e-07
-7.37267e-07
-9.51278e-07
3.25344e-07
-5.51389e-07
-1.02183e-06
7.17651e-08
-1.05125e-06
6.39557e-08
-9.35751e-07
-7.86059e-07
3.58571e-07
-8.90773e-07
-8.76354e-07
-9.06647e-08
-8.2248e-07
-9.04938e-07
-1.39363e-07
-6.30759e-07
-9.81572e-07
-4.23852e-07
-1.01386e-06
-4.44109e-07
-9.63077e-07
-7.20269e-07
3.29402e-07
-9.19371e-07
-8.05634e-07
-1.38439e-07
-8.49486e-07
-8.32646e-07
-1.91947e-07
-6.55506e-07
-9.11388e-07
-4.8401e-07
-9.44934e-07
-5.05488e-07
-1.03374e-06
-5.33e-07
7.91656e-08
-9.96021e-07
-6.12615e-07
-4.19523e-07
-9.28201e-07
-6.37397e-07
-4.80607e-07
-7.31781e-07
-7.1377e-07
-7.96003e-07
-7.46476e-07
-8.25086e-07
-1.06336e-06
7.26552e-08
-1.02839e-06
-4.3828e-07
-9.61836e-07
-5.00651e-07
-7.64515e-07
-8.23638e-07
-8.5291e-07
-6.84319e-07
-6.71179e-07
9.61776e-07
-6.75786e-07
-6.62799e-07
4.52859e-07
-6.34269e-07
-6.61354e-07
3.8845e-07
-4.9951e-07
-6.77373e-07
4.56707e-08
-6.85019e-07
7.48825e-09
-6.75907e-07
-6.59302e-07
4.56816e-07
-6.77816e-07
-6.61455e-07
-9.00517e-08
-6.50372e-07
-6.63395e-07
-1.64712e-07
-5.23498e-07
-6.87679e-07
-5.40355e-07
-6.99674e-07
-5.89917e-07
-6.74533e-07
-6.15076e-07
3.93893e-07
-6.79801e-07
-6.31356e-07
-1.63217e-07
-6.57237e-07
-6.38198e-07
-2.39648e-07
-5.33173e-07
-6.71481e-07
-6.242e-07
-6.8817e-07
-6.75684e-07
-6.90667e-07
-4.78659e-07
5.55331e-08
-7.04109e-07
-5.02864e-07
-5.34509e-07
-6.9045e-07
-5.12584e-07
-6.19807e-07
-5.71548e-07
-5.51049e-07
-1.03525e-06
-5.70653e-07
-1.09763e-06
-6.98358e-07
1.95464e-08
-7.162e-07
-5.81804e-07
-7.07243e-07
-6.6907e-07
-5.9123e-07
-1.09541e-06
-1.16017e-06
-1.13024e-06
-1.11592e-06
1.3124e-06
-1.05857e-06
-1.20007e-06
5.73909e-07
-9.52265e-07
-1.22375e-06
4.78719e-07
-6.75489e-07
-1.30419e-06
-1.49217e-08
-1.33572e-06
-6.78844e-08
-1.21437e-06
-1.04097e-06
5.78944e-07
-1.15061e-06
-1.13308e-06
-2.20787e-07
-1.04705e-06
-1.15898e-06
-3.33024e-07
-7.6725e-07
-1.24824e-06
-8.76065e-07
-1.2832e-06
-9.46177e-07
-1.2381e-06
-9.31837e-07
4.85687e-07
-1.17656e-06
-1.02672e-06
-3.31096e-07
-1.07407e-06
-1.05372e-06
-4.47362e-07
-7.93767e-07
-1.14896e-06
-1.00375e-06
-1.1867e-06
-1.07731e-06
-1.31856e-06
-6.53519e-07
-2.24675e-09
-1.26579e-06
-7.45426e-07
-8.68532e-07
-1.16928e-06
-7.71932e-07
-9.98057e-07
-8.88064e-07
-8.6634e-07
-1.59901e-06
-9.04776e-07
-1.68745e-06
-1.35022e-06
-5.22258e-08
-1.30087e-06
-9.35657e-07
-1.20708e-06
-1.06874e-06
-9.26522e-07
-1.68456e-06
-1.77632e-06
-1.33264e-06
-1.31424e-06
1.71638e-06
-1.2412e-06
-1.38188e-06
6.96583e-07
-1.09799e-06
-1.40082e-06
5.51252e-07
-7.55886e-07
-1.47069e-06
-1.24999e-07
-1.49644e-06
-2.11225e-07
-1.40026e-06
-1.21857e-06
7.02824e-07
-1.31823e-06
-1.29574e-06
-3.88982e-07
-1.1794e-06
-1.31689e-06
-5.55804e-07
-8.35817e-07
-1.39635e-06
-1.294e-06
-1.42587e-06
-1.4021e-06
-1.41924e-06
-1.07168e-06
5.59998e-07
-1.33944e-06
-1.1533e-06
-5.53354e-07
-1.20213e-06
-1.17598e-06
-7.25591e-07
-8.58043e-07
-1.26221e-06
-1.48198e-06
-1.29491e-06
-1.59549e-06
-1.48932e-06
-7.2723e-07
-1.09182e-07
-1.41894e-06
-8.07732e-07
-1.2845e-06
-1.28825e-06
-8.29933e-07
-1.4748e-06
-9.44187e-07
-9.16266e-07
-2.289e-06
-9.49439e-07
-2.42281e-06
-1.51512e-06
-1.91566e-07
-1.44853e-06
-1.38877e-06
-1.32115e-06
-1.58449e-06
-9.77557e-07
-2.41914e-06
-2.55878e-06
-1.87199e-06
-1.85275e-06
2.28087e-06
-1.72141e-06
-1.98407e-06
8.54024e-07
-1.49706e-06
-2.01862e-06
6.39161e-07
-9.78887e-07
-2.14435e-06
-3.01954e-07
-2.18929e-06
-4.25878e-07
-2.00328e-06
-1.69795e-06
8.61495e-07
-1.86495e-06
-1.84163e-06
-6.69803e-07
-1.64376e-06
-1.87935e-06
-9.16322e-07
-1.11727e-06
-2.01841e-06
-1.94649e-06
-2.06831e-06
-2.10067e-06
-2.0379e-06
-1.46994e-06
6.49712e-07
-1.9028e-06
-1.61679e-06
-9.13345e-07
-1.68283e-06
-1.65574e-06
-1.16923e-06
-1.15522e-06
-1.80294e-06
-2.22511e-06
-1.85637e-06
-2.38764e-06
-2.16364e-06
-9.49651e-07
-2.82885e-07
-2.04171e-06
-1.0882e-06
-1.93508e-06
-1.82997e-06
-1.1257e-06
-2.21663e-06
-1.29929e-06
-1.27046e-06
-3.35222e-06
-1.32422e-06
-3.54197e-06
-2.20864e-06
-4.01934e-07
-2.09169e-06
-2.08473e-06
-1.88369e-06
-2.37462e-06
-1.35318e-06
-3.53764e-06
-3.73654e-06
-2.49991e-06
-2.47355e-06
3.03759e-06
-2.2842e-06
-2.63716e-06
1.04983e-06
-1.95572e-06
-2.68433e-06
7.28035e-07
-1.23045e-06
-2.83347e-06
-5.74895e-07
-2.88646e-06
-7.62073e-07
-2.66348e-06
-2.25194e-06
1.05895e-06
-2.46206e-06
-2.43e-06
-1.07845e-06
-2.13129e-06
-2.4797e-06
-1.45178e-06
-1.38895e-06
-2.6437e-06
-2.87867e-06
-2.70159e-06
-3.11069e-06
-2.71075e-06
-1.91819e-06
7.40893e-07
-2.51187e-06
-2.09409e-06
-1.4482e-06
-2.18003e-06
-2.1427e-06
-1.83813e-06
-1.43086e-06
-2.31257e-06
-3.30549e-06
-2.37297e-06
-3.55178e-06
-2.86006e-06
-1.1897e-06
-5.5149e-07
-2.67585e-06
-1.34877e-06
-2.86468e-06
-2.34969e-06
-1.39059e-06
-3.29498e-06
-1.59114e-06
-1.55115e-06
-4.87231e-06
-1.60903e-06
-5.15816e-06
-2.91324e-06
-7.32703e-07
-2.73402e-06
-3.09111e-06
-2.41036e-06
-3.53565e-06
-1.64955e-06
-5.153e-06
-5.453e-06
-3.40573e-06
-3.37936e-06
4.07126e-06
-3.0967e-06
-3.62595e-06
1.30666e-06
-2.61869e-06
-3.69181e-06
8.24451e-07
-1.59123e-06
-3.9176e-06
-9.77258e-07
-3.99311e-06
-1.25508e-06
-3.65223e-06
-3.0647e-06
1.3172e-06
-3.36294e-06
-3.33125e-06
-1.66247e-06
-2.88137e-06
-3.40227e-06
-2.22292e-06
-1.82775e-06
-3.6478e-06
-4.20213e-06
-3.73081e-06
-4.54347e-06
-3.71828e-06
-2.58182e-06
8.39518e-07
-3.43417e-06
-2.84496e-06
-2.21864e-06
-2.95092e-06
-2.9143e-06
-2.80939e-06
-1.88951e-06
-3.1668e-06
-4.84796e-06
-3.25278e-06
-5.21358e-06
-3.94422e-06
-1.55135e-06
-9.49823e-07
-3.6796e-06
-1.78863e-06
-4.18566e-06
-3.20314e-06
-1.85029e-06
-4.83552e-06
-2.12664e-06
-2.08828e-06
-7.02745e-06
-2.17184e-06
-7.44513e-06
-4.02012e-06
-1.22034e-06
-3.7631e-06
-4.52022e-06
-3.28972e-06
-5.19438e-06
-2.21079e-06
-7.43879e-06
-7.88026e-06
-4.74678e-06
-4.7085e-06
5.55754e-06
-4.32068e-06
-5.06354e-06
1.70305e-06
-3.62123e-06
-5.17949e-06
9.66544e-07
-2.1411e-06
-5.48443e-06
-1.54092e-06
-5.59564e-06
-1.96913e-06
-5.10171e-06
-4.27374e-06
1.71562e-06
-4.70416e-06
-4.65765e-06
-2.46591e-06
-3.9844e-06
-4.77855e-06
-3.34362e-06
-2.44676e-06
-5.111e-06
-6.11319e-06
-5.23119e-06
-6.65027e-06
-5.21792e-06
-3.56639e-06
9.84463e-07
-4.82532e-06
-3.93027e-06
-3.33862e-06
-4.09633e-06
-4.04196e-06
-4.27498e-06
-2.53384e-06
-4.37436e-06
-7.14712e-06
-4.49308e-06
-7.73129e-06
-5.52313e-06
-2.08096e-06
-1.50809e-06
-5.15769e-06
-2.38784e-06
-6.09352e-06
-4.42837e-06
-2.47478e-06
-7.13204e-06
-2.82739e-06
-2.76931e-06
-1.02336e-05
-2.87226e-06
-1.09056e-05
-5.63497e-06
-1.92743e-06
-5.27854e-06
-6.62259e-06
-4.54779e-06
-7.70829e-06
-2.9309e-06
-1.08984e-05
-1.16101e-05
-6.45242e-06
-6.41676e-06
7.5979e-06
-5.86562e-06
-6.9168e-06
2.24224e-06
-4.8651e-06
-7.07028e-06
1.11886e-06
-2.80532e-06
-7.50495e-06
-2.34899e-06
-7.65148e-06
-3.00436e-06
-6.95225e-06
-5.82229e-06
2.2562e-06
-6.40526e-06
-6.36257e-06
-3.56713e-06
-5.37463e-06
-6.52751e-06
-4.91701e-06
-3.23853e-06
-6.99703e-06
-8.7572e-06
-7.15669e-06
-9.57793e-06
-7.10619e-06
-4.81515e-06
1.13931e-06
-6.57069e-06
-5.32565e-06
-4.91104e-06
-5.52625e-06
-5.47674e-06
-6.37019e-06
-3.3602e-06
-5.9383e-06
-1.03719e-05
-6.09657e-06
-1.12742e-05
-7.54103e-06
-2.7509e-06
-2.31168e-06
-7.03986e-06
-3.18556e-06
-8.73477e-06
-5.98714e-06
-3.3068e-06
-1.03547e-05
-3.77531e-06
-3.72324e-06
-1.46605e-05
-3.86875e-06
-1.56838e-05
-7.68846e-06
-2.95591e-06
-7.20054e-06
-9.54559e-06
-6.14651e-06
-1.12474e-05
-3.92179e-06
-1.56756e-05
-1.67789e-05
-9.18296e-06
-9.12744e-06
1.06905e-05
-8.43448e-06
-9.92864e-06
3.24183e-06
-6.9808e-06
-1.02498e-05
1.48222e-06
-3.98007e-06
-1.09069e-05
-3.35748e-06
-1.11777e-05
-4.40527e-06
-9.98389e-06
-8.36594e-06
3.25799e-06
-9.3123e-06
-9.24468e-06
-4.92273e-06
-7.78444e-06
-9.58353e-06
-7.11116e-06
-4.60883e-06
-1.03089e-05
-1.25309e-05
-1.06073e-05
-1.38906e-05
-1.03056e-05
-6.90015e-06
1.50588e-06
-9.65177e-06
-7.70534e-06
-7.10427e-06
-8.08365e-06
-8.00392e-06
-9.51797e-06
-4.82558e-06
-8.71599e-06
-1.52229e-05
-8.99019e-06
-1.67749e-05
-1.09631e-05
-3.89036e-06
-3.31412e-06
-1.03767e-05
-4.52187e-06
-1.25047e-05
-8.79477e-06
-4.738e-06
-1.52026e-05
-5.40482e-06
-5.31937e-06
-2.14471e-05
-5.52959e-06
-2.32323e-05
-1.12357e-05
-4.34801e-06
-1.06768e-05
-1.3853e-05
-9.07057e-06
-1.67435e-05
-5.61647e-06
-2.32233e-05
-2.51389e-05
-1.2518e-05
-1.24715e-05
1.50261e-05
-1.15399e-05
-1.35495e-05
4.69646e-06
-9.47558e-06
-1.39907e-05
1.96149e-06
-5.31043e-06
-1.48806e-05
-4.75366e-06
-1.52329e-05
-6.39326e-06
-1.35956e-05
-1.1483e-05
4.71354e-06
-1.27317e-05
-1.26761e-05
-6.66017e-06
-1.05462e-05
-1.31571e-05
-1.01304e-05
-6.17088e-06
-1.41264e-05
-1.76606e-05
-1.45004e-05
-1.98285e-05
-1.40378e-05
-9.40977e-06
1.98773e-06
-1.32139e-05
-1.04824e-05
-1.0122e-05
-1.09677e-05
-1.09027e-05
-1.40186e-05
-6.46683e-06
-1.17801e-05
-2.20702e-05
-1.21414e-05
-2.45331e-05
-1.49278e-05
-5.23827e-06
-4.70571e-06
-1.41822e-05
-6.10147e-06
-1.76314e-05
-1.18433e-05
-6.39647e-06
-2.20478e-05
-7.23378e-06
-7.16631e-06
-3.06706e-05
-7.48253e-06
-3.34996e-05
-1.52822e-05
-6.32712e-06
-1.45589e-05
-1.97839e-05
-1.22075e-05
-2.44968e-05
-7.55256e-06
-3.34891e-05
-3.66695e-05
-1.81538e-05
-1.80746e-05
2.20636e-05
-1.71291e-05
-2.00037e-05
7.77664e-06
-1.41474e-05
-2.10421e-05
3.40543e-06
-7.98142e-06
-2.25967e-05
-6.00575e-06
-2.34135e-05
-8.70784e-06
-2.00823e-05
-1.70305e-05
7.7958e-06
-1.93497e-05
-1.92526e-05
-8.14396e-06
-1.61424e-05
-2.04123e-05
-1.39677e-05
-9.44192e-06
-2.22297e-05
-2.47281e-05
-2.32078e-05
-2.84561e-05
-2.11218e-05
-1.40299e-05
3.43426e-06
-2.05104e-05
-1.60281e-05
-1.39581e-05
-1.71397e-05
-1.70246e-05
-2.07772e-05
-1.01765e-05
-1.88681e-05
-3.23952e-05
-1.97539e-05
-3.70243e-05
-2.26766e-05
-7.84936e-06
-5.9516e-06
-2.23266e-05
-9.31578e-06
-2.46938e-05
-1.89808e-05
-1.00494e-05
-3.23689e-05
-1.15837e-05
-1.14617e-05
-4.54743e-05
-1.21396e-05
-5.09621e-05
-2.34989e-05
-8.63003e-06
-2.33092e-05
-2.84048e-05
-1.98701e-05
-3.69838e-05
-1.22634e-05
-5.09536e-05
-5.73952e-05
-2.48779e-05
-2.48213e-05
3.23408e-05
-2.38839e-05
-2.7476e-05
1.28637e-05
-1.97597e-05
-2.91917e-05
6.08452e-06
-1.10704e-05
-3.13934e-05
-7.02155e-06
-3.26426e-05
-1.13117e-05
-2.75316e-05
-2.38142e-05
1.28825e-05
-2.71129e-05
-2.70457e-05
-8.99303e-06
-2.26975e-05
-2.93093e-05
-1.82656e-05
-1.33938e-05
-3.21251e-05
-3.33002e-05
-3.38182e-05
-3.9634e-05
-2.92474e-05
-1.96792e-05
6.11408e-06
-2.93756e-05
-2.2624e-05
-1.82517e-05
-2.529e-05
-2.52344e-05
-2.89378e-05
-1.53501e-05
-2.83356e-05
-4.61247e-05
-3.04138e-05
-5.45263e-05
-3.14489e-05
-1.09852e-05
-6.96268e-06
-3.21846e-05
-1.33187e-05
-3.32636e-05
-2.84041e-05
-1.52831e-05
-4.61006e-05
-1.79075e-05
-1.78278e-05
-6.64787e-05
-2.00894e-05
-7.6926e-05
-3.27014e-05
-1.12268e-05
-3.38835e-05
-3.95833e-05
-3.05017e-05
-5.44838e-05
-2.01882e-05
-7.6913e-05
-9.23832e-05
-3.62762e-05
-3.61678e-05
4.89605e-05
-3.63036e-05
-4.15452e-05
2.36156e-05
-3.09058e-05
-4.58439e-05
1.35246e-05
-1.8131e-05
-5.0471e-05
-4.76314e-06
-5.44536e-05
-1.16993e-05
-4.16517e-05
-3.61719e-05
2.36378e-05
-4.33695e-05
-4.32373e-05
-5.5832e-06
-3.8408e-05
-4.88671e-05
-2.02039e-05
-2.38159e-05
-5.73423e-05
-4.1021e-05
-6.51277e-05
-5.15801e-05
-4.59404e-05
-3.07593e-05
1.35553e-05
-4.89633e-05
-3.82713e-05
-2.01948e-05
-4.4303e-05
-4.41323e-05
-3.83331e-05
-2.9254e-05
-5.52241e-05
-6.32919e-05
-6.01307e-05
-8.7272e-05
-5.05693e-05
-1.79765e-05
-4.69518e-06
-5.74742e-05
-2.36459e-05
-4.09842e-05
-5.54126e-05
-2.90329e-05
-6.32616e-05
-3.51251e-05
-3.4914e-05
-0.000107076
-3.7221e-05
-0.000132242
-5.45883e-05
-1.16043e-05
-6.52937e-05
-5.1519e-05
-6.03359e-05
-8.71845e-05
-3.74423e-05
-0.000132211
-0.000161425
-4.6914e-05
-4.68503e-05
6.80347e-05
-4.81339e-05
-5.49581e-05
3.89324e-05
-4.16645e-05
-6.17232e-05
2.47473e-05
-2.50168e-05
-6.87809e-05
5.57858e-07
-7.60425e-05
-1.01828e-05
-5.50187e-05
-4.8053e-05
3.89501e-05
-5.86137e-05
-5.85413e-05
1.59506e-06
-5.2525e-05
-6.79288e-05
-2.00871e-05
-3.28979e-05
-8.10607e-05
-4.83683e-05
-8.63985e-05
-7.29616e-05
-6.17688e-05
-4.15825e-05
2.47749e-05
-6.79739e-05
-5.24462e-05
-2.00849e-05
-6.24543e-05
-6.23486e-05
-4.94329e-05
-3.72552e-05
-6.70167e-05
-0.000102535
-7.20993e-05
-0.000137456
-6.88519e-05
-2.49074e-05
6.14379e-07
-8.11529e-05
-3.27929e-05
-4.83365e-05
-6.71087e-05
-3.71569e-05
-0.000102497
-4.22146e-05
-4.21264e-05
-0.00015686
-4.59483e-05
-0.000197882
-7.61453e-05
-1.01076e-05
-8.65161e-05
-7.28574e-05
-7.21991e-05
-0.000137381
-4.6042e-05
-0.00019785
-0.000247568
-6.55225e-05
-6.53752e-05
9.45474e-05
-6.72153e-05
-7.76116e-05
6.00913e-05
-5.83311e-05
-9.21149e-05
4.32096e-05
-3.50531e-05
-0.000103519
1.12567e-05
-0.000113996
-5.96173e-06
-7.77579e-05
-6.70228e-05
6.00999e-05
-8.53645e-05
-8.51939e-05
1.67839e-05
-7.82627e-05
-0.0001028
-1.65037e-05
-4.81357e-05
-0.000112808
-6.92072e-05
-0.000122957
-0.000111035
-9.22624e-05
-5.80899e-05
4.32254e-05
-0.000102931
-7.81044e-05
-1.65057e-05
-8.6357e-05
-8.62012e-05
-8.26062e-05
-5.45884e-05
-9.53975e-05
-0.000151714
-0.000106646
-0.000207072
-0.000103669
-3.47758e-05
1.13097e-05
-0.000112975
-4.79744e-05
-6.91611e-05
-9.55784e-05
-5.44196e-05
-0.000151675
-6.28174e-05
-6.26363e-05
-0.000222383
-7.1981e-05
-0.000292775
-0.000114194
-5.9547e-06
-0.000123148
-0.000111006
-0.000106855
-0.000207054
-7.21925e-05
-0.000292782
-0.000386091
-8.86491e-05
-8.85922e-05
0.000133525
-8.89907e-05
-9.871e-05
8.44817e-05
-7.28846e-05
-0.000115463
5.83063e-05
-4.4406e-05
-0.000130572
2.27414e-05
-0.000146049
-4.28434e-06
-9.87664e-05
-8.89176e-05
8.44857e-05
-0.0001075
-0.000107437
3.42446e-05
-9.41718e-05
-0.000130731
-1.45645e-05
-5.99288e-05
-0.000147105
-8.6917e-05
-0.000166899
-0.000149076
-0.000115519
-7.27886e-05
5.83089e-05
-0.000130793
-9.41065e-05
-1.45624e-05
-0.000113147
-0.000113072
-0.000117912
-7.4412e-05
-0.000129385
-0.000208168
-0.000150201
-0.000296971
-0.000130635
-4.43e-05
2.27914e-05
-0.000147169
-5.98541e-05
-8.68795e-05
-0.000129452
-7.43291e-05
-0.000208135
-8.95113e-05
-8.94486e-05
-0.000302261
-0.000104993
-0.000424388
-0.000146105
-4.26637e-06
-0.000166972
-0.000149047
-0.000150288
-0.000296959
-0.00010508
-0.000424404
-0.000589511
-0.000131425
-0.000131258
0.000200645
-0.00013818
-0.000151148
0.000134577
-0.000117876
-0.000180557
9.33198e-05
-7.06584e-05
-0.000200899
4.19014e-05
-0.000234599
7.10956e-06
-0.000151322
-0.000137965
0.000134565
-0.000166265
-0.000166051
6.40911e-05
-0.00014744
-0.00021048
-3.46657e-06
-9.81211e-05
-0.000242347
-9.47874e-05
-0.000289912
-0.00019061
-0.000180718
-0.000117605
9.32956e-05
-0.000210686
-0.000147185
-3.46137e-06
-0.00019258
-0.000192332
-0.000154166
-0.000133957
-0.000227277
-0.000281861
-0.000283212
-0.000436159
-0.000201103
-7.03123e-05
4.19131e-05
-0.00024257
-9.78276e-05
-9.47697e-05
-0.00022753
-0.000133659
-0.000281847
-0.000165349
-0.000165081
-0.000426639
-0.00021252
-0.000656885
-0.000234771
7.07806e-06
-0.000290129
-0.000190583
-0.000283462
-0.000436166
-0.000212821
-0.00065688
-0.00100736
-0.000165967
-0.000165954
0.000287731
-0.000180883
-0.000191613
0.000209169
-0.000159218
-0.000240798
0.000151344
-0.00010204
-0.000265605
8.04412e-05
-0.00031992
2.30219e-05
-0.000191627
-0.000180862
0.000209141
-0.00022226
-0.000222234
0.000125346
-0.000196869
-0.000288875
1.92193e-05
-0.000139684
-0.000340629
-7.69491e-05
-0.000427516
-0.00022183
-0.000240805
-0.000159193
0.000151303
-0.00028891
-0.000196819
1.92283e-05
-0.000275758
-0.000275694
-0.000180499
-0.00020144
-0.00033806
-0.000358747
-0.000448785
-0.000615285
-0.000265624
-0.000102005
8.0424e-05
-0.000340654
-0.000139623
-7.69358e-05
-0.000338099
-0.000201359
-0.000358737
-0.000265856
-0.000265819
-0.000571122
-0.000363319
-0.00100447
-0.00031992
2.30162e-05
-0.000427558
-0.000221789
-0.000448863
-0.000615279
-0.000363407
-0.00100445
-0.00172634
-0.000234825
-0.000234676
0.00042276
-0.000267869
-0.000282765
0.000340064
-0.000244601
-0.000378886
0.00026987
-0.000164706
-0.00043876
0.000181249
-0.000560214
9.9531e-05
-0.000282937
-0.000267681
0.000340012
-0.000347252
-0.000347034
0.000253929
-0.000327339
-0.000487663
0.000108084
-0.000240505
-0.000597855
-4.68803e-06
-0.000804946
-0.000216281
-0.000379002
-0.000244395
0.000269807
-0.000487864
-0.000327055
0.000108111
-0.000497807
-0.000497558
-0.000160661
-0.000390283
-0.000648139
-0.000415987
-0.000959238
-0.000849597
-0.000438951
-0.000164441
0.000181171
-0.000598087
-0.000240154
-4.70112e-06
-0.000648413
-0.000389933
-0.000416035
-0.000548793
-0.000548479
-0.000770403
-0.000890152
-0.00161753
-0.000560348
9.94271e-05
-0.000805158
-0.000216218
-0.00095947
-0.000849656
-0.000890478
-0.00161746
-0.00349553
-0.000277628
-0.000277684
0.000587919
-0.000324443
-0.000333639
0.000514467
-0.000307325
-0.000484834
0.000453583
-0.000221552
-0.000565635
0.000362879
-0.000790741
0.000262119
-0.000333586
-0.000324515
0.000514408
-0.000428602
-0.000428651
0.000443958
-0.00042506
-0.000664291
0.000283999
-0.000348237
-0.000827561
0.000180414
-0.00124469
-0.000109991
-0.000484756
-0.000307422
0.000453507
-0.000664249
-0.000425085
0.000284038
-0.000722058
-0.000722058
-4.50846e-05
-0.00062612
-0.000995165
-0.000344321
-0.00166756
-0.00105209
-0.00056555
-0.000221697
0.000362789
-0.000827497
-0.000348232
0.000180393
-0.000995099
-0.000626089
-0.000344403
-0.000983487
-0.000983577
-0.000793603
-0.00176569
-0.00249876
-0.00079071
0.000261951
-0.0012447
-0.000109918
-0.00166761
-0.0010522
-0.00176575
-0.00249857
-0.00176638
-0.00170998
-0.00170988
-0.0018347
-0.000356789
-0.000356682
0.000803853
-0.000424811
-0.000456572
0.000763129
-0.00041692
-0.000696129
0.00074028
-0.000305579
-0.000868272
0.000675737
-0.00128513
0.00060812
-0.000456737
-0.000424657
0.000763044
-0.000605936
-0.000605714
0.000742298
-0.000643973
-0.00100006
0.000625969
-0.000543871
-0.00137452
0.000586555
-0.00223597
0.000298369
-0.000696157
-0.000416805
0.000740226
-0.00100021
-0.000643672
0.000626046
-0.00121843
-0.00121835
0.000391428
-0.0010945
-0.00188341
4.06389e-05
-0.00372523
-0.000655201
-0.000868452
-0.000305455
0.000675625
-0.00137473
-0.000543497
0.000586497
-0.00188368
-0.00109424
4.04378e-05
-0.00203303
-0.00203277
-0.000494889
-0.00100083
-0.00071999
-0.000731819
-0.00109385
-0.00141292
-0.000909387
-0.00113529
-0.00124487
-0.00128513
0.000607894
-0.00223614
0.000298559
-0.00372528
-0.000655497
-0.00100108
-0.000719936
-0.00109378
-0.000731422
-0.00141272
-0.000909603
-0.00113551
-0.00124496
-0.000706351
-0.000705998
-0.00235594
-0.000363233
-0.000363386
0.00102393
-0.00044419
-0.000439982
0.00103719
-0.000456208
-0.000765176
0.00111412
-0.000364717
-0.000952758
0.00112843
-0.00166898
0.00121714
-0.000439847
-0.000444345
0.0010371
-0.000614673
-0.000614783
0.00109193
-0.000705988
-0.00118788
0.00113999
-0.000690522
-0.00159533
0.00121366
-0.00326206
0.00120096
-0.000764989
-0.000456354
0.00111404
-0.00118774
-0.000706062
0.00114008
-0.00163088
-0.00163098
0.00127767
-0.00171032
-0.00281543
0.00134017
-0.00157238
0.00145636
-0.00166808
-0.00174624
-0.00209559
-0.000952578
-0.000364906
0.00112833
-0.00159519
-0.000690564
0.00121361
-0.00281533
-0.00171032
0.00133992
-0.00085839
-0.000858344
0.000351313
0.000528469
0.00052851
0.000565117
-0.00100691
-0.000761972
-0.00142273
-0.00100686
-0.00076173
-0.00142212
-0.000660921
-0.00204506
-0.000444778
-0.00166878
0.00121681
-0.0032617
0.00120118
-0.0015723
0.00145565
-0.00166793
-0.00174614
-0.00209542
-0.00204509
-0.000660982
-0.000444501
0.00232358
0.0023238
-0.00105282
-0.000654159
-0.000772098
-0.000771303
0.00261553
-0.000522214
-0.000508369
-0.000469321
-0.000506687
-0.000522015
-0.000508236
-0.000469203
-0.000506486
-0.000379017
-0.000378979
0.0012169
-0.000448121
-0.000503052
0.0013152
-0.000462984
-0.000849336
0.00148099
-0.000343852
-0.00112294
0.00161335
-0.00184325
0.00183236
-0.000503205
-0.000447987
0.00131508
-0.000688962
-0.000688731
0.00146336
-0.000789473
-0.00129406
0.00168522
-0.000752645
-0.00184163
0.00189552
-0.00350782
0.00211397
-0.000849236
-0.000462915
0.00148099
-0.00129414
-0.000789084
0.00168533
-0.00175262
-0.0017529
0.00219499
-0.00168534
-0.000851665
0.00276171
-0.00108349
-0.000639073
-0.000756226
-0.00194447
0.00368414
-0.00241458
-0.00138533
-0.00167843
-0.00112321
-0.000343597
0.00161318
-0.00184187
-0.000752241
0.00189543
-0.000851717
-0.00168568
0.00276143
-0.00108357
-0.000639111
-0.000756202
-0.00100684
-0.0010057
0.000660469
-0.000843131
0.000930605
0.00107605
-0.000135776
-0.000717799
-0.00075339
-0.000784769
-0.000716253
-0.00184314
0.00183242
-0.00350746
0.00211395
-0.00194407
0.00368478
-0.00241497
-0.00138492
-0.00167818
-0.00084334
0.000929473
0.00107427
-0.000135889
-0.00071691
-0.000752408
-0.00078404
-0.000715223
0.000994954
0.000994341
0.000246336
-0.001133
-0.00113333
3.07004e-05
-0.000245522
-0.000245779
0.00129041
-0.000256229
-0.000250769
0.00142013
-0.000239145
-0.000440802
0.0016185
-0.000166678
-0.000452705
0.00175444
-0.00087292
0.00198534
-0.000250557
-0.000256501
0.00142006
-0.000328719
-0.000328892
0.00161965
-0.000391956
-0.000583918
0.00189158
-0.000456475
-0.000619485
0.00212682
-0.00163227
0.00241548
-0.000440472
-0.000239477
0.00161855
-0.000583582
-0.000392051
0.0018916
-0.00073356
-0.000733824
0.00249488
-0.000748732
-0.000787597
0.00294499
-0.00086864
0.00386616
-0.00129562
-0.000183669
-0.000215328
-0.000452544
-0.000166871
0.00175428
-0.000619287
-0.000456528
0.00212665
-0.000787795
-0.00074865
0.00294476
-0.000381376
-0.000380637
0.0034619
-0.000122994
-0.000339454
0.000435498
-0.000121855
-0.000339321
0.000435542
-0.000856741
-0.00096157
-0.000961529
-0.00144286
-0.000268472
-0.000574609
0.000630663
-0.0010376
-0.000872318
0.00198555
-0.00163126
0.00241511
-0.000868141
0.00386634
-0.0012958
-0.000183289
-0.00021549
-0.000573784
-0.000268285
0.000629898
-0.00103661
0.000177412
0.000177239
0.000421979
2.51629e-06
2.58367e-06
-0.00078173
-0.000177279
-0.000177257
0.0012604
-0.000123972
-0.000221264
0.00142503
-7.93269e-05
-0.000307352
0.00156725
3.9561e-05
-0.000351693
0.00170953
-0.000535297
0.00185728
-0.000221366
-0.000123764
0.00142486
-0.000240631
-0.000240438
0.00165808
-0.000326423
-0.000239951
0.00190997
-0.000408191
-0.000310627
0.00216752
-0.00109949
0.00257161
-0.000307296
-7.90424e-05
0.00156729
-0.000240036
-0.000326139
0.00191004
-0.000149679
-0.000149407
0.00231398
6.14873e-05
-0.000331949
0.00275515
2.7745e-05
0.00312972
0.000179323
-0.000128178
-0.000382396
-0.000352017
4.01678e-05
0.0017092
-0.000311071
-0.00040783
0.00216739
-0.000332603
6.20664e-05
0.00275482
-0.000108226
-0.000107911
0.000723309
0.000763746
0.000763741
0.00061
0.000227896
0.000108481
-0.000260447
0.000228176
0.000108781
-0.000260192
0.000167035
-3.26006e-05
0.000466646
-0.000681562
-0.000535097
0.00185724
-0.00109953
0.00257141
2.77115e-05
0.00312945
0.000179342
-0.000127984
-0.00038229
0.00016744
0.000466453
-3.24807e-05
-0.000681612
0.000875188
0.000875404
0.00880487
-0.000981014
-0.000981088
-0.00231393
-0.00199625
-0.00214159
-0.00214159
-4.86785e-05
-4.89425e-05
0.00116091
1.19287e-05
7.78661e-05
0.00131876
4.51203e-05
4.67732e-05
0.0014422
7.0477e-05
0.000226206
0.00159735
0.000116786
0.00172775
7.82547e-05
1.15695e-05
0.00131867
0.000133449
0.000133068
0.00154769
0.000118082
0.000168528
0.00180358
-1.56104e-05
0.00047429
0.00205313
0.000205626
0.00246376
4.71125e-05
4.48352e-05
0.00144211
0.000168969
0.000117645
0.00180361
0.000216385
0.000216035
0.00221905
0.00015342
0.000167746
0.00279474
-4.84826e-05
0.000291047
8.73584e-05
-1.93423e-05
0.00320572
-0.000143867
0.000244669
0.000199937
0.000226398
7.02649e-05
0.0015971
0.000474409
-1.61294e-05
0.00205315
0.000167733
0.000152998
0.00279461
-4.84893e-05
0.000291053
8.73577e-05
0.000170126
0.000170146
0.000718516
2.89595e-06
-0.000172266
-0.00040062
-0.000210992
0.00076164
0.000116921
0.00172764
0.000205656
0.00246389
-1.94008e-05
0.00320555
-0.000143817
0.000244784
0.000200105
-0.000172312
2.99293e-06
-0.000400576
-0.000211083
0.000761578
0.00171825
7.76989e-05
7.77443e-05
-0.000211075
-0.000211051
-0.00145157
2.0495e-05
2.037e-05
0.000999244
0.000126414
0.000102944
0.00113768
0.000164343
0.000180992
0.00120068
0.000191891
0.000340729
0.00133406
0.000460493
0.00139838
0.000102991
0.000126417
0.00113758
0.000206733
0.000206778
0.00134011
0.000215793
0.00046175
0.00151376
0.000108417
0.000790001
0.00171124
0.00106203
0.0019678
0.000181141
0.000164466
0.00120053
0.000461871
0.000215986
0.00151367
0.000697784
0.000697827
0.00174706
0.000713887
0.00141842
0.00215022
0.000467077
0.00230035
0.000390347
0.000869445
0.00095256
0.000340628
0.000192302
0.00133379
0.000789823
0.00010886
0.00171109
0.0014176
0.000714305
0.00215036
0.000395382
0.000395935
0.00220698
0.000412925
0.000519782
0.000875807
0.000413511
0.000520179
0.000876169
-0.000791864
-0.000896435
-0.000896398
-0.00119595
0.000173931
0.00076724
-0.000111427
3.27138e-05
0.000460792
0.00139816
0.00106253
0.00196756
0.000467027
0.00230007
0.000390327
0.000869375
0.000952457
0.000766974
0.000174701
-0.000111404
3.26907e-05
0.000667982
-0.000193841
-0.00019375
0.000182387
0.00018244
-0.000645218
0.000153928
0.000153541
0.000761236
0.000275279
0.00039498
0.000879112
0.000311595
0.000593979
0.000871639
0.000281019
0.000992566
0.000966142
0.00136612
0.000917925
0.000395367
0.000274907
0.000879059
0.000569733
0.000569345
0.00099138
0.000631334
0.000996211
0.00104993
0.000441887
0.00177752
0.00111573
0.00262515
0.00114607
0.000594332
0.000311218
0.000871567
0.000996631
0.000630873
0.00104984
0.00135341
0.00135294
0.00103355
0.00125784
0.00282172
0.00120159
0.00540387
0.000774651
0.000992941
0.000280583
0.000966017
0.0017779
0.000441366
0.00111563
0.00282216
0.00125729
0.00120176
0.00354988
0.0035493
0.00075168
0.00244888
-0.00452939
0.0030466
0.00198242
0.00257905
0.000579367
0.000457802
0.000633506
0.00176575
0.00136635
0.000917757
0.00262547
0.00114583
0.0054041
0.000774544
0.00244905
-0.00452891
0.00304675
0.00198251
0.00257913
0.000579331
0.000633365
0.00045772
0.00176548
0.00237924
0.00237892
-0.00694839
0.00123147
0.00166407
0.00166405
0.00252858
0.0001509
0.000150645
0.000583594
0.000259859
0.000314718
0.000663916
0.000284638
0.000476241
0.000621569
0.000265706
0.000751926
0.000671497
0.000994303
0.000594763
0.000314957
0.000259662
0.000663891
0.000454007
0.00045387
0.000713177
0.000457961
0.000820968
0.000701245
0.000314558
0.00132338
0.000687675
0.00179715
0.000651998
0.000476544
0.000284518
0.00062149
0.000821198
0.000457892
0.000701169
0.00104337
0.00104323
0.000589122
0.000930157
0.00206229
0.00057589
0.00336985
0.000126966
0.000752131
0.00026571
0.000671356
0.00132352
0.000314534
0.000687598
0.00206242
0.000930147
0.000575939
0.00240618
0.00240602
6.41891e-05
0.00511453
-0.00386641
0.0009946
0.000594519
0.00179725
0.000651828
0.00336983
0.000126841
0.00511464
-0.00386623
-0.0284338
0.00728599
0.00975541
0.00975528
0.0118545
0.000199686
0.000199305
0.000435903
0.000279275
0.000422832
0.000480952
0.000288014
0.000599214
0.000420844
0.000236281
0.000920777
0.00044006
0.00117018
0.00035457
0.000423234
0.000278904
0.000480963
0.000546612
0.000546232
0.0004664
0.000554228
0.00088004
0.000412802
0.000392444
0.0014364
0.000333836
0.00195682
0.00025372
0.000599589
0.000287646
0.000420804
0.000880418
0.000553843
0.000412728
0.00104945
0.00104906
0.000251063
0.000896086
0.00203906
0.000126601
0.00312812
-0.000154875
0.000921217
0.000235854
0.000440016
0.00143685
0.000392029
0.000333779
0.00203955
0.000895664
0.000126642
0.0022257
0.00222526
-0.000308168
0.0045435
-0.00304777
0.00117051
0.000354405