/*--------------------------------*- C++ -*----------------------------------*\
| =========                 |                                                 |
| \\      /  F ield         | OpenFOAM: The Open Source CFD Toolbox           |
|  \\    /   O peration     | Version:  5.x                                   |
|   \\  /    A nd           | Web:      www.OpenFOAM.org                      |
|    \\/     M anipulation  |                                                 |
\*---------------------------------------------------------------------------*/
FoamFile
{
    version     2.0;
    format      ascii;
    class       volScalarField;
    location    "0.06";
    object      Ksl;
}
// * * * * * * * * * * * * * * * * * * * * * * * * * * * * * * * * * * * * * //

dimensions      [1 -3 -1 0 0 0 0];

internalField   nonuniform List<scalar> 
320
(
0
0
0
0
0
0
0
0
0
0
0
0
4.19881e-05
0.000309477
0.00022074
1.97025e-05
0.00123073
0.00732715
0.00538505
0.000501806
0.0374633
0.155153
0.123019
0.0124862
0.646056
2.10291
1.26593
0.249291
2.90484
3.15599
1.52675
1.28518
1.41625
3.83894
1.48086
0.307976
0.0163185
0.0336028
0.0323915
0.00638805
0.000418186
0.000798507
0.000595646
0.000132596
2.29609e-05
5.21956e-05
3.9686e-05
7.12032e-06
0
0
0
0
0
0
0
0
0
0
0
0
0
0
0
0
0
0
0
0
0
0
0
0
0
0
0
0
0
0
0
0
0
0
0
0
0
0
0
0
0
7.68782e-05
5.96772e-05
0
0.000309477
0.00201605
0.00150355
0.00023035
0.00732715
0.0563358
0.0438169
0.00606565
0.155153
2.7433
1.98407
0.155531
2.10291
3.28813
1.55634
1.38842
3.15599
3.19369
1.50923
1.4938
3.83894
4.45955
1.78003
1.06219
0.0336028
0.252142
0.172476
0.0393027
0.000798507
0.00792451
0.00494482
0.000608233
5.21956e-05
0.000205273
0.000139842
4.08944e-05
0
9.45667e-06
5.9192e-06
0
0
0
0
0
0
0
0
0
0
0
0
0
0
0
0
0
0
0
0
0
0
0
0
0
0
0
0
0
0
0
0
0
0
0
0
0
0
5.96772e-05
6.13565e-05
0
0.00022074
0.00150355
0.00138065
0.000287124
0.00538505
0.0438169
0.0410262
0.00603821
0.123019
1.98407
1.70265
0.13433
1.26593
1.55634
1.03663
0.913144
1.52675
1.50923
1.00876
1.01028
1.48086
1.78003
1.13665
0.705225
0.0323915
0.172476
0.0978485
0.0340739
0.000595646
0.00494482
0.00414128
0.000341909
3.9686e-05
0.000139842
8.62638e-05
2.96494e-05
0
5.9192e-06
4.65396e-06
0
0
0
0
0
0
0
0
0
0
0
0
0
0
0
0
0
0
0
0
0
0
0
0
0
0
0
0
0
0
0
0
0
0
0
0
0
0
0
0
0
1.97025e-05
0.00023035
0.000287124
0
0.000501806
0.00606565
0.00603821
0.00128503
0.0124862
0.155531
0.13433
0.0226923
0.249291
1.38842
0.913144
0.294998
1.28518
1.4938
1.01028
0.859217
0.307976
1.06219
0.705225
0.141334
0.00638805
0.0393027
0.0340739
0.00563923
0.000132596
0.000608233
0.000341909
0.000166512
7.12032e-06
4.08944e-05
2.96494e-05
0
0
0
0
0
0
0
0
0
0
0
0
0
0
0
0
0
0
0
0
0
0
0
0
0
0
0
0
0
0
0
0
0
)
;

boundaryField
{
    inlet
    {
        type            zeroGradient;
    }
    outlet
    {
        type            zeroGradient;
    }
    walls
    {
        type            zeroGradient;
    }
}


// ************************************************************************* //
