/*--------------------------------*- C++ -*----------------------------------*\
| =========                 |                                                 |
| \\      /  F ield         | OpenFOAM: The Open Source CFD Toolbox           |
|  \\    /   O peration     | Version:  5.x                                   |
|   \\  /    A nd           | Web:      www.OpenFOAM.org                      |
|    \\/     M anipulation  |                                                 |
\*---------------------------------------------------------------------------*/
FoamFile
{
    version     2.0;
    format      ascii;
    class       volVectorField;
    location    "0.06";
    object      Us;
}
// * * * * * * * * * * * * * * * * * * * * * * * * * * * * * * * * * * * * * //

dimensions      [0 1 -1 0 0 0 0];

internalField   nonuniform List<vector> 
320
(
(-4.58287e-20 -1.51038e-16 -4.58287e-20)
(-3.72488e-19 -1.22761e-15 -3.72488e-19)
(-3.41287e-19 -1.12478e-15 -3.41287e-19)
(-1.01386e-20 -3.34136e-17 -1.01386e-20)
(-2.57506e-18 -8.48663e-15 -2.57506e-18)
(-2.36003e-17 -7.77795e-14 -2.36003e-17)
(-2.18882e-17 -7.2137e-14 -2.18882e-17)
(-6.41699e-19 -2.11485e-15 -6.41699e-19)
(-1.41888e-16 -4.6762e-13 -1.41888e-16)
(-1.48691e-15 -4.90041e-12 -1.48691e-15)
(-1.39589e-15 -4.60045e-12 -1.39589e-15)
(-4.03959e-17 -1.33133e-13 -4.03959e-17)
(-7.44512e-15 -2.45369e-11 -7.44512e-15)
(-9.10603e-14 -3.00108e-10 -9.10603e-14)
(-8.65451e-14 -2.85227e-10 -8.65451e-14)
(-2.47239e-15 -8.14825e-12 -2.47239e-15)
(-3.6458e-13 -1.20155e-09 -3.6458e-13)
(-5.35249e-12 -1.76402e-08 -5.35249e-12)
(-5.15095e-12 -1.6976e-08 -5.15095e-12)
(-1.45276e-13 -4.78786e-10 -1.45276e-13)
(-1.60665e-11 -5.29503e-08 -1.60665e-11)
(-2.94892e-10 -9.71877e-07 -2.94892e-10)
(-2.87401e-10 -9.47189e-07 -2.87401e-10)
(-8.00421e-12 -2.63795e-08 -8.00421e-12)
(-5.89989e-10 -1.94443e-06 -5.89989e-10)
(-1.44389e-08 -4.75864e-05 -1.44389e-08)
(-1.42539e-08 -4.69768e-05 -1.42539e-08)
(-3.92212e-10 -1.29261e-06 -3.92212e-10)
(-1.44455e-08 -4.76081e-05 -1.44455e-08)
(-5.30178e-07 -0.00174731 -5.30178e-07)
(-5.30271e-07 -0.00174762 -5.30271e-07)
(-1.44468e-08 -4.76123e-05 -1.44468e-08)
(-3.90832e-10 -1.28807e-06 -3.90832e-10)
(-1.4347e-08 -4.72833e-05 -1.4347e-08)
(-1.43471e-08 -4.72836e-05 -1.43471e-08)
(-3.90889e-10 -1.28825e-06 -3.90889e-10)
(-5.21773e-12 -1.71961e-08 -5.21773e-12)
(-1.91571e-10 -6.31361e-07 -1.91571e-10)
(-1.9408e-10 -6.3963e-07 -1.9408e-10)
(-7.9302e-12 -2.61356e-08 -7.9302e-12)
(0 0 0)
(0 0 0)
(0 0 0)
(0 0 0)
(0 0 0)
(0 0 0)
(0 0 0)
(0 0 0)
(0 0 0)
(0 0 0)
(0 0 0)
(0 0 0)
(0 0 0)
(0 0 0)
(0 0 0)
(0 0 0)
(0 0 0)
(0 0 0)
(0 0 0)
(0 0 0)
(0 0 0)
(0 0 0)
(0 0 0)
(0 0 0)
(0 0 0)
(0 0 0)
(0 0 0)
(0 0 0)
(0 0 0)
(0 0 0)
(0 0 0)
(0 0 0)
(0 0 0)
(0 0 0)
(0 0 0)
(0 0 0)
(0 0 0)
(0 0 0)
(0 0 0)
(0 0 0)
(-3.72488e-19 -1.22761e-15 -3.72488e-19)
(-3.41044e-18 -1.12398e-14 -3.41044e-18)
(-3.16265e-18 -1.04232e-14 -3.16265e-18)
(-9.26448e-20 -3.0533e-16 -9.26448e-20)
(-2.36003e-17 -7.77795e-14 -2.36003e-17)
(-2.4747e-16 -8.15588e-13 -2.4747e-16)
(-2.32328e-16 -7.65682e-13 -2.32328e-16)
(-6.71581e-18 -2.21333e-14 -6.71581e-18)
(-1.48691e-15 -4.90041e-12 -1.48691e-15)
(-1.81956e-14 -5.99673e-11 -1.81956e-14)
(-1.72934e-14 -5.6994e-11 -1.72934e-14)
(-4.93377e-16 -1.62602e-12 -4.93377e-16)
(-9.10603e-14 -3.00108e-10 -9.10603e-14)
(-1.33744e-12 -4.40781e-09 -1.33744e-12)
(-1.28706e-12 -4.24176e-09 -1.28706e-12)
(-3.62404e-14 -1.19437e-10 -3.62404e-14)
(-5.35249e-12 -1.76402e-08 -5.35249e-12)
(-9.82747e-11 -3.23884e-07 -9.82747e-11)
(-9.57743e-11 -3.15643e-07 -9.57743e-11)
(-2.66156e-12 -8.7717e-09 -2.66156e-12)
(-2.94892e-10 -9.71877e-07 -2.94892e-10)
(-7.21878e-09 -2.3791e-05 -7.21878e-09)
(-7.12575e-09 -2.34844e-05 -7.12575e-09)
(-1.95437e-10 -6.44101e-07 -1.95437e-10)
(-1.44389e-08 -4.75864e-05 -1.44389e-08)
(-5.30076e-07 -0.00174697 -5.30076e-07)
(-5.30081e-07 -0.00174699 -5.30081e-07)
(-1.43484e-08 -4.72879e-05 -1.43484e-08)
(-5.30178e-07 -0.00174731 -5.30178e-07)
(-3.89031e-05 -0.128213 -3.89031e-05)
(-3.89031e-05 -0.128213 -3.89031e-05)
(-5.3037e-07 -0.00174794 -5.3037e-07)
(-1.4347e-08 -4.72833e-05 -1.4347e-08)
(-5.30265e-07 -0.00174759 -5.30265e-07)
(-5.30178e-07 -0.00174731 -5.30178e-07)
(-1.42578e-08 -4.69896e-05 -1.42578e-08)
(-1.91571e-10 -6.31361e-07 -1.91571e-10)
(-7.0361e-09 -2.31889e-05 -7.0361e-09)
(-7.12578e-09 -2.34845e-05 -7.12578e-09)
(-2.87417e-10 -9.47241e-07 -2.87417e-10)
(0 0 0)
(0 0 0)
(0 0 0)
(0 0 0)
(0 0 0)
(0 0 0)
(0 0 0)
(0 0 0)
(0 0 0)
(0 0 0)
(0 0 0)
(0 0 0)
(0 0 0)
(0 0 0)
(0 0 0)
(0 0 0)
(0 0 0)
(0 0 0)
(0 0 0)
(0 0 0)
(0 0 0)
(0 0 0)
(0 0 0)
(0 0 0)
(0 0 0)
(0 0 0)
(0 0 0)
(0 0 0)
(0 0 0)
(0 0 0)
(0 0 0)
(0 0 0)
(0 0 0)
(0 0 0)
(0 0 0)
(0 0 0)
(0 0 0)
(0 0 0)
(0 0 0)
(0 0 0)
(-3.41287e-19 -1.12478e-15 -3.41287e-19)
(-3.16265e-18 -1.04232e-14 -3.16265e-18)
(-2.93622e-18 -9.67691e-15 -2.93622e-18)
(-8.59135e-20 -2.83145e-16 -8.59135e-20)
(-2.18882e-17 -7.2137e-14 -2.18882e-17)
(-2.32328e-16 -7.65682e-13 -2.32328e-16)
(-2.18335e-16 -7.19566e-13 -2.18335e-16)
(-6.30499e-18 -2.07794e-14 -6.30499e-18)
(-1.39589e-15 -4.60045e-12 -1.39589e-15)
(-1.72934e-14 -5.6994e-11 -1.72934e-14)
(-1.64508e-14 -5.42169e-11 -1.64508e-14)
(-4.68933e-16 -1.54546e-12 -4.68933e-16)
(-8.65451e-14 -2.85227e-10 -8.65451e-14)
(-1.28706e-12 -4.24176e-09 -1.28706e-12)
(-1.23953e-12 -4.08512e-09 -1.23953e-12)
(-3.48771e-14 -1.14944e-10 -3.48771e-14)
(-5.15095e-12 -1.6976e-08 -5.15095e-12)
(-9.57743e-11 -3.15643e-07 -9.57743e-11)
(-9.33965e-11 -3.07807e-07 -9.33965e-11)
(-2.59401e-12 -8.54908e-09 -2.59401e-12)
(-2.87401e-10 -9.47189e-07 -2.87401e-10)
(-7.12575e-09 -2.34844e-05 -7.12575e-09)
(-7.03734e-09 -2.3193e-05 -7.03734e-09)
(-1.92932e-10 -6.35848e-07 -1.92932e-10)
(-1.42539e-08 -4.69768e-05 -1.42539e-08)
(-5.30081e-07 -0.00174699 -5.30081e-07)
(-5.30262e-07 -0.00174759 -5.30262e-07)
(-1.43496e-08 -4.72921e-05 -1.43496e-08)
(-5.30271e-07 -0.00174762 -5.30271e-07)
(-3.89031e-05 -0.128213 -3.89031e-05)
(-3.89031e-05 -0.128213 -3.89031e-05)
(-5.30372e-07 -0.00174795 -5.30372e-07)
(-1.43471e-08 -4.72836e-05 -1.43471e-08)
(-5.30178e-07 -0.00174731 -5.30178e-07)
(-5.30268e-07 -0.0017476 -5.30268e-07)
(-1.44443e-08 -4.76041e-05 -1.44443e-08)
(-1.9408e-10 -6.3963e-07 -1.9408e-10)
(-7.12578e-09 -2.34845e-05 -7.12578e-09)
(-7.22012e-09 -2.37954e-05 -7.22012e-09)
(-2.94932e-10 -9.72008e-07 -2.94932e-10)
(0 0 0)
(0 0 0)
(0 0 0)
(0 0 0)
(0 0 0)
(0 0 0)
(0 0 0)
(0 0 0)
(0 0 0)
(0 0 0)
(0 0 0)
(0 0 0)
(0 0 0)
(0 0 0)
(0 0 0)
(0 0 0)
(0 0 0)
(0 0 0)
(0 0 0)
(0 0 0)
(0 0 0)
(0 0 0)
(0 0 0)
(0 0 0)
(0 0 0)
(0 0 0)
(0 0 0)
(0 0 0)
(0 0 0)
(0 0 0)
(0 0 0)
(0 0 0)
(0 0 0)
(0 0 0)
(0 0 0)
(0 0 0)
(0 0 0)
(0 0 0)
(0 0 0)
(0 0 0)
(-1.01386e-20 -3.34136e-17 -1.01386e-20)
(-9.26448e-20 -3.0533e-16 -9.26448e-20)
(-8.59135e-20 -2.83145e-16 -8.59135e-20)
(-2.54969e-21 -8.40302e-18 -2.54969e-21)
(-6.41699e-19 -2.11485e-15 -6.41699e-19)
(-6.71581e-18 -2.21333e-14 -6.71581e-18)
(-6.30499e-18 -2.07794e-14 -6.30499e-18)
(-1.84641e-19 -6.08523e-16 -1.84641e-19)
(-4.03959e-17 -1.33133e-13 -4.03959e-17)
(-4.93377e-16 -1.62602e-12 -4.93377e-16)
(-4.68933e-16 -1.54546e-12 -4.68933e-16)
(-1.35534e-17 -4.46679e-14 -1.35534e-17)
(-2.47239e-15 -8.14825e-12 -2.47239e-15)
(-3.62404e-14 -1.19437e-10 -3.62404e-14)
(-3.48771e-14 -1.14944e-10 -3.48771e-14)
(-9.94871e-16 -3.2788e-12 -9.94871e-16)
(-1.45276e-13 -4.78786e-10 -1.45276e-13)
(-2.66156e-12 -8.7717e-09 -2.66156e-12)
(-2.59401e-12 -8.54908e-09 -2.59401e-12)
(-7.30275e-14 -2.40677e-10 -7.30275e-14)
(-8.00421e-12 -2.63795e-08 -8.00421e-12)
(-1.95437e-10 -6.44101e-07 -1.95437e-10)
(-1.92932e-10 -6.35848e-07 -1.92932e-10)
(-5.3605e-12 -1.76666e-08 -5.3605e-12)
(-3.92212e-10 -1.29261e-06 -3.92212e-10)
(-1.43484e-08 -4.72879e-05 -1.43484e-08)
(-1.43496e-08 -4.72921e-05 -1.43496e-08)
(-3.93482e-10 -1.2968e-06 -3.93482e-10)
(-1.44468e-08 -4.76123e-05 -1.44468e-08)
(-5.3037e-07 -0.00174794 -5.3037e-07)
(-5.30372e-07 -0.00174795 -5.30372e-07)
(-1.44509e-08 -4.76259e-05 -1.44509e-08)
(-3.90889e-10 -1.28825e-06 -3.90889e-10)
(-1.42578e-08 -4.69896e-05 -1.42578e-08)
(-1.44443e-08 -4.76041e-05 -1.44443e-08)
(-5.9021e-10 -1.94516e-06 -5.9021e-10)
(-7.9302e-12 -2.61356e-08 -7.9302e-12)
(-2.87417e-10 -9.47241e-07 -2.87417e-10)
(-2.94932e-10 -9.72008e-07 -2.94932e-10)
(-1.60676e-11 -5.29539e-08 -1.60676e-11)
(0 0 0)
(0 0 0)
(0 0 0)
(0 0 0)
(0 0 0)
(0 0 0)
(0 0 0)
(0 0 0)
(0 0 0)
(0 0 0)
(0 0 0)
(0 0 0)
(0 0 0)
(0 0 0)
(0 0 0)
(0 0 0)
(0 0 0)
(0 0 0)
(0 0 0)
(0 0 0)
(0 0 0)
(0 0 0)
(0 0 0)
(0 0 0)
(0 0 0)
(0 0 0)
(0 0 0)
(0 0 0)
(0 0 0)
(0 0 0)
(0 0 0)
(0 0 0)
(0 0 0)
(0 0 0)
(0 0 0)
(0 0 0)
(0 0 0)
(0 0 0)
(0 0 0)
(0 0 0)
)
;

boundaryField
{
    inlet
    {
        type            zeroGradient;
    }
    outlet
    {
        type            zeroGradient;
    }
    walls
    {
        type            zeroGradient;
    }
}


// ************************************************************************* //
