/*--------------------------------*- C++ -*----------------------------------*\
| =========                 |                                                 |
| \\      /  F ield         | OpenFOAM: The Open Source CFD Toolbox           |
|  \\    /   O peration     | Version:  5.x                                   |
|   \\  /    A nd           | Web:      www.OpenFOAM.org                      |
|    \\/     M anipulation  |                                                 |
\*---------------------------------------------------------------------------*/
FoamFile
{
    version     2.0;
    format      ascii;
    class       surfaceScalarField;
    location    "0.069";
    object      phi;
}
// * * * * * * * * * * * * * * * * * * * * * * * * * * * * * * * * * * * * * //

dimensions      [0 3 -1 0 0 0 0];

internalField   nonuniform List<scalar> 
4339
(
4.0528e-08
-2.39268e-07
-1.68685e-08
1.04906e-07
-2.40583e-07
-2.25616e-08
1.46404e-07
-2.41165e-07
6.6085e-10
1.87098e-07
-2.41633e-07
1.68571e-09
-2.40804e-07
7.00981e-08
3.76929e-08
-2.00999e-07
-9.87796e-08
1.03971e-07
-2.02639e-07
-1.04213e-07
1.46463e-07
-2.03523e-07
-8.01285e-08
1.87886e-07
-2.0414e-07
-7.89121e-08
-2.03723e-07
-9.4674e-09
3.60229e-08
-1.62399e-07
-1.00058e-07
1.0293e-07
-1.6408e-07
-1.05462e-07
1.45808e-07
-1.6519e-07
-8.12074e-08
1.87481e-07
-1.65947e-07
-7.98644e-08
-1.66054e-07
-1.0277e-08
3.38937e-08
-9.47189e-08
-1.30301e-07
1.01808e-07
-9.63793e-08
-1.35618e-07
1.4536e-07
-9.77802e-08
-1.10963e-07
1.87545e-07
-9.86146e-08
-1.0952e-07
-9.93656e-08
-3.94984e-08
3.21719e-08
-1.24414e-07
1.00454e-07
-1.29618e-07
1.44336e-07
-1.04939e-07
1.86764e-07
-1.03413e-07
-3.34804e-08
-5.81776e-09
-4.17865e-08
-3.82752e-08
1.58914e-08
-4.10508e-08
-3.57345e-08
1.93689e-08
-3.9843e-08
5.54956e-09
1.81793e-08
-3.9797e-08
1.1282e-08
-3.93318e-08
7.85813e-08
-2.72875e-09
-5.5235e-08
-1.13034e-07
1.74143e-08
-5.46884e-08
-1.10712e-07
2.02831e-08
-5.37644e-08
-6.90727e-08
1.87328e-08
-5.38317e-08
-6.33265e-08
-5.35616e-08
4.85537e-09
-1.90027e-09
-6.14423e-08
-1.20559e-07
1.75904e-08
-6.13179e-08
-1.1832e-07
2.02044e-08
-6.08306e-08
-7.67549e-08
1.85838e-08
-6.10309e-08
-7.10471e-08
-6.09813e-08
-2.83595e-09
-6.07077e-10
-4.91985e-08
-1.68404e-07
1.81488e-08
-4.93558e-08
-1.66342e-07
2.04847e-08
-4.94196e-08
-1.24715e-07
1.87695e-08
-4.97827e-08
-1.19061e-07
-5.0071e-08
-5.0435e-08
-6.34805e-10
-1.73424e-07
1.78658e-08
-1.71464e-07
2.01016e-08
-1.30043e-07
1.84426e-08
-1.24477e-07
-5.6002e-08
4.48454e-08
-2.17532e-07
-7.06344e-08
1.088e-07
-2.18798e-07
-6.76682e-08
1.42613e-07
-2.19266e-07
4.08822e-09
1.72661e-07
-2.19787e-07
1.38251e-08
-2.1895e-07
1.32072e-07
4.25157e-08
-1.9292e-07
-2.03242e-07
1.07942e-07
-1.94451e-07
-2.00487e-07
1.42687e-07
-1.9534e-07
-1.27748e-07
1.73457e-07
-1.96035e-07
-1.17854e-07
-1.95671e-07
2.27839e-09
4.11691e-08
-1.63275e-07
-2.16209e-07
1.06964e-07
-1.64953e-07
-2.13617e-07
1.41996e-07
-1.66232e-07
-1.40901e-07
1.73009e-07
-1.67076e-07
-1.31027e-07
-1.67285e-07
-1.07464e-08
3.88485e-08
-9.8954e-08
-2.99755e-07
1.05649e-07
-1.00724e-07
-2.97381e-07
1.4139e-07
-1.02473e-07
-2.24225e-07
1.73016e-07
-1.03442e-07
-2.14331e-07
-1.04433e-07
-9.30475e-08
3.70713e-08
-3.06622e-07
1.04191e-07
-3.04439e-07
1.40233e-07
-2.31534e-07
1.7215e-07
-2.21751e-07
-1.00643e-07
2.95347e-08
-1.89503e-07
-1.07948e-07
9.00645e-08
-1.89303e-07
-1.01125e-07
1.21412e-07
-1.87547e-07
-3.5892e-10
1.47011e-07
-1.87463e-07
1.52142e-08
-1.85369e-07
1.7453e-07
3.14969e-08
-1.73651e-07
-2.83257e-07
9.20163e-08
-1.73665e-07
-2.76661e-07
1.2351e-07
-1.72416e-07
-1.74389e-07
1.49187e-07
-1.72493e-07
-1.58516e-07
-1.70905e-07
3.69309e-09
3.14573e-08
-1.49744e-07
-3.04055e-07
9.18835e-08
-1.50065e-07
-2.97659e-07
1.23374e-07
-1.49475e-07
-1.95348e-07
1.49097e-07
-1.49753e-07
-1.79505e-07
-1.48893e-07
-1.69892e-08
3.20736e-08
-9.45356e-08
-4.18786e-07
9.25928e-08
-9.52186e-08
-4.12765e-07
1.24236e-07
-9.55181e-08
-3.09843e-07
1.50131e-07
-9.60414e-08
-2.93955e-07
-9.62228e-08
-1.29889e-07
3.13798e-08
-4.32202e-07
9.18769e-08
-4.26526e-07
1.23567e-07
-3.23964e-07
1.49586e-07
-3.08263e-07
-1.44378e-07
7.61778e-08
-3.19024e-07
-1.64174e-07
1.73539e-07
-3.20264e-07
-1.53658e-07
2.23239e-07
-3.19531e-07
-5.05369e-09
2.64749e-07
-3.19887e-07
1.89737e-08
-3.17149e-07
2.51146e-07
7.45898e-08
-2.84794e-07
-4.20293e-07
1.7396e-07
-2.86377e-07
-4.09948e-07
2.25011e-07
-2.86378e-07
-2.58621e-07
2.67466e-07
-2.86978e-07
-2.33905e-07
-2.85051e-07
3.1993e-09
7.32573e-08
-2.40157e-07
-4.51913e-07
1.73029e-07
-2.42037e-07
-4.418e-07
2.24412e-07
-2.429e-07
-2.90235e-07
2.67146e-07
-2.43775e-07
-2.65464e-07
-2.43019e-07
-2.76704e-08
7.09425e-08
-1.42798e-07
-6.20783e-07
1.72152e-07
-1.44977e-07
-6.11065e-07
2.2456e-07
-1.46996e-07
-4.58182e-07
2.68137e-07
-1.48181e-07
-4.33149e-07
-1.49116e-07
-1.9256e-07
6.87657e-08
-6.40308e-07
1.70361e-07
-6.3105e-07
2.23128e-07
-4.78542e-07
2.67069e-07
-4.53697e-07
-2.13206e-07
9.57025e-08
-4.07815e-07
-2.39693e-07
2.22484e-07
-4.08198e-07
-2.2347e-07
2.8849e-07
-4.04836e-07
-1.44414e-08
3.43125e-07
-4.04481e-07
2.11072e-08
-3.98862e-07
3.48059e-07
9.71388e-08
-3.63253e-07
-5.99444e-07
2.25996e-07
-3.64035e-07
-5.83008e-07
2.93397e-07
-3.6162e-07
-3.69273e-07
3.48801e-07
-3.61578e-07
-3.32242e-07
-3.57e-07
2.86109e-09
9.64161e-08
-3.03895e-07
-6.46241e-07
2.25668e-07
-3.05115e-07
-6.30009e-07
2.93377e-07
-3.03993e-07
-4.15604e-07
3.49029e-07
-3.04359e-07
-3.78364e-07
-3.01511e-07
-4.17983e-08
9.61925e-08
-1.78833e-07
-8.82249e-07
2.26889e-07
-1.80605e-07
-8.66307e-07
2.95592e-07
-1.814e-07
-6.49509e-07
3.5197e-07
-1.82325e-07
-6.11586e-07
-1.82108e-07
-2.70296e-07
9.4394e-08
-9.1145e-07
2.25428e-07
-8.96082e-07
2.94443e-07
-6.79586e-07
3.51159e-07
-6.41853e-07
-3.00372e-07
1.56846e-07
-5.81836e-07
-3.46775e-07
3.36691e-07
-5.83003e-07
-3.21179e-07
4.28059e-07
-5.78726e-07
-2.40736e-08
5.01e-07
-5.78211e-07
3.01031e-08
-5.69593e-07
4.91507e-07
1.56754e-07
-5.18643e-07
-8.56273e-07
3.4092e-07
-5.20344e-07
-8.29869e-07
4.35116e-07
-5.17412e-07
-5.24816e-07
5.09615e-07
-5.17281e-07
-4.67701e-07
-5.10178e-07
7.02896e-09
1.55336e-07
-4.32332e-07
-9.27225e-07
3.40403e-07
-4.34632e-07
-9.0082e-07
4.35231e-07
-4.33669e-07
-5.94205e-07
5.10125e-07
-4.34152e-07
-5.36412e-07
-4.29815e-07
-5.87697e-08
1.53259e-07
-2.49703e-07
-1.26279e-06
3.41379e-07
-2.52727e-07
-1.23636e-06
4.38236e-07
-2.54711e-07
-9.25349e-07
5.14512e-07
-2.56071e-07
-8.65964e-07
-2.55936e-07
-3.80348e-07
1.50225e-07
-1.30627e-06
3.39091e-07
-1.28042e-06
4.36566e-07
-9.69416e-07
5.13375e-07
-9.09999e-07
-4.23593e-07
2.2382e-07
-8.14434e-07
-4.97847e-07
4.76351e-07
-8.14691e-07
-4.58978e-07
6.05889e-07
-8.05721e-07
-4.02091e-08
7.09208e-07
-8.03632e-07
4.02152e-08
-7.88081e-07
6.91809e-07
2.27142e-07
-7.22938e-07
-1.22075e-06
4.86067e-07
-7.23988e-07
-1.17952e-06
6.19652e-07
-7.16845e-07
-7.47297e-07
7.24813e-07
-7.15415e-07
-6.611e-07
-7.01892e-07
1.25722e-08
2.26084e-07
-5.98037e-07
-1.32666e-06
4.86445e-07
-6.00033e-07
-1.28515e-06
6.21003e-07
-5.95912e-07
-8.49712e-07
7.26778e-07
-5.95509e-07
-7.62107e-07
-5.86241e-07
-8.27299e-08
2.25955e-07
-3.40264e-07
-1.79995e-06
4.90671e-07
-3.43443e-07
-1.75767e-06
6.28069e-07
-3.43967e-07
-1.3147e-06
7.35522e-07
-3.45102e-07
-1.22383e-06
-3.42543e-07
-5.31031e-07
2.22724e-07
-1.86416e-06
4.88485e-07
-1.82253e-06
6.26754e-07
-1.3789e-06
7.34944e-07
-1.28776e-06
-5.92744e-07
3.32788e-07
-1.13606e-06
-7.06737e-07
6.83938e-07
-1.13586e-06
-6.44931e-07
8.61732e-07
-1.12135e-06
-5.53111e-08
9.96239e-07
-1.11701e-06
6.79244e-08
-1.09204e-06
9.81647e-07
3.37691e-07
-1.01513e-06
-1.72841e-06
6.99607e-07
-1.01577e-06
-1.66152e-06
8.84156e-07
-1.00359e-06
-1.04961e-06
1.02123e-06
-9.99843e-07
-9.15337e-07
-9.77478e-07
3.38841e-08
3.3713e-07
-8.39208e-07
-1.89273e-06
7.01731e-07
-8.41154e-07
-1.82435e-06
8.87853e-07
-8.33552e-07
-1.20586e-06
1.02552e-06
-8.31372e-07
-1.06824e-06
-8.158e-07
-1.08064e-07
3.37185e-07
-4.74404e-07
-2.56368e-06
7.09388e-07
-4.78301e-07
-2.49269e-06
9.00067e-07
-4.78306e-07
-1.86061e-06
1.04001e-06
-4.78819e-07
-1.71632e-06
-4.74006e-07
-7.3396e-07
3.33252e-07
-2.66316e-06
7.07399e-07
-2.59219e-06
8.99386e-07
-1.95762e-06
1.04015e-06
-1.81181e-06
-8.24515e-07
4.82622e-07
-1.62187e-06
-1.00357e-06
9.82106e-07
-1.61912e-06
-9.08859e-07
1.23673e-06
-1.59329e-06
-7.92014e-08
1.42802e-06
-1.58411e-06
1.06365e-07
-1.54072e-06
1.39314e-06
4.95099e-07
-1.44585e-06
-2.45815e-06
1.01161e-06
-1.44465e-06
-2.35248e-06
1.27696e-06
-1.42202e-06
-1.48622e-06
1.47151e-06
-1.41415e-06
-1.27983e-06
-1.3742e-06
6.52258e-08
4.95437e-07
-1.187e-06
-2.71049e-06
1.01647e-06
-1.18828e-06
-2.60171e-06
1.28468e-06
-1.17341e-06
-1.72266e-06
1.48048e-06
-1.16845e-06
-1.50973e-06
-1.13943e-06
-1.43998e-07
4.9915e-07
-6.63266e-07
-3.6601e-06
1.03154e-06
-6.67599e-07
-3.5457e-06
1.30735e-06
-6.64338e-07
-2.64546e-06
1.50622e-06
-6.64011e-07
-2.41961e-06
-6.5228e-07
-1.01741e-06
4.94692e-07
-3.81098e-06
1.02995e-06
-3.69603e-06
1.30815e-06
-2.79051e-06
1.50849e-06
-2.56159e-06
-1.14879e-06
7.03062e-07
-2.27602e-06
-1.40822e-06
1.39863e-06
-2.26808e-06
-1.25622e-06
1.75056e-06
-2.22379e-06
-9.27954e-08
1.9965e-06
-2.20441e-06
1.94957e-07
-2.13414e-06
1.99406e-06
7.25408e-07
-2.05138e-06
-3.47355e-06
1.44925e-06
-2.04461e-06
-3.29976e-06
1.81776e-06
-2.00356e-06
-2.07492e-06
2.06682e-06
-1.98512e-06
-1.74817e-06
-1.91817e-06
1.44729e-07
7.30656e-07
-1.68915e-06
-3.87549e-06
1.46311e-06
-1.68522e-06
-3.69351e-06
1.83609e-06
-1.65445e-06
-2.44472e-06
2.08608e-06
-1.64044e-06
-2.10437e-06
-1.5903e-06
-1.72604e-07
7.4133e-07
-9.44464e-07
-5.23329e-06
1.49404e-06
-9.46743e-07
-5.03682e-06
1.8771e-06
-9.36309e-07
-3.74661e-06
2.13011e-06
-9.30932e-07
-3.3821e-06
-9.09124e-07
-1.38945e-06
7.3898e-07
-5.47941e-06
1.49788e-06
-5.27859e-06
1.8838e-06
-3.97422e-06
2.13791e-06
-3.6014e-06
-1.58726e-06
1.01894e-06
-3.26622e-06
-1.98106e-06
2.01006e-06
-3.24928e-06
-1.74386e-06
2.5143e-06
-3.17664e-06
-1.09649e-07
2.85903e-06
-3.14119e-06
3.31461e-07
-3.02254e-06
2.85821e-06
1.06237e-06
-2.9473e-06
-4.9314e-06
2.09717e-06
-2.93299e-06
-4.65083e-06
2.63048e-06
-2.86413e-06
-2.92071e-06
2.97786e-06
-2.83061e-06
-2.40609e-06
-2.71487e-06
2.70279e-07
1.07227e-06
-2.4047e-06
-5.57551e-06
2.12182e-06
-2.39811e-06
-5.2779e-06
2.66369e-06
-2.35142e-06
-3.49928e-06
3.01291e-06
-2.32651e-06
-2.95766e-06
-2.24023e-06
-2.07933e-07
1.09115e-06
-1.33545e-06
-7.49731e-06
2.16903e-06
-1.33749e-06
-7.17528e-06
2.73287e-06
-1.31958e-06
-5.34226e-06
3.0856e-06
-1.30964e-06
-4.75167e-06
-1.26739e-06
-1.90677e-06
1.08875e-06
-7.88538e-06
2.17468e-06
-7.55356e-06
2.74618e-06
-5.69742e-06
3.10147e-06
-5.08987e-06
-2.20216e-06
1.48106e-06
-4.64423e-06
-2.74554e-06
2.86526e-06
-4.60282e-06
-2.36056e-06
3.56763e-06
-4.47043e-06
-7.87791e-08
3.99712e-06
-4.39668e-06
6.18213e-07
-4.19769e-06
4.13243e-06
1.56328e-06
-4.25757e-06
-6.96795e-06
3.02482e-06
-4.21657e-06
-6.4986e-06
3.76758e-06
-4.08509e-06
-4.04878e-06
4.19619e-06
-4.01312e-06
-3.21823e-06
-3.8139e-06
5.43689e-07
1.5931e-06
-3.51266e-06
-8.01173e-06
3.08185e-06
-3.47646e-06
-7.50673e-06
3.83932e-06
-3.36354e-06
-4.97827e-06
4.26985e-06
-3.30614e-06
-4.09514e-06
-3.14812e-06
-1.99463e-07
1.64973e-06
-1.96747e-06
-1.08169e-05
3.19509e-06
-1.95318e-06
-1.02439e-05
3.97033e-06
-1.89686e-06
-7.58416e-06
4.40106e-06
-1.8665e-06
-6.622e-06
-1.78587e-06
-2.56054e-06
1.66389e-06
-1.14909e-05
3.23149e-06
-1.08885e-05
4.01153e-06
-8.16129e-06
4.44247e-06
-7.16314e-06
-3.01782e-06
2.16991e-06
-6.71226e-06
-3.81101e-06
4.15857e-06
-6.63615e-06
-3.19258e-06
5.16262e-06
-6.43655e-06
1.73419e-08
5.74441e-06
-6.30093e-06
1.10464e-06
-5.9854e-06
6.03595e-06
2.31051e-06
-6.20632e-06
-9.88434e-06
4.40945e-06
-6.13331e-06
-9.10036e-06
5.49526e-06
-5.93008e-06
-5.64102e-06
6.06025e-06
-5.79163e-06
-4.29247e-06
-5.45984e-06
1.01254e-06
2.36885e-06
-5.03071e-06
-1.16709e-05
4.52041e-06
-4.98915e-06
-1.08025e-05
5.63299e-06
-4.86261e-06
-7.15829e-06
6.19518e-06
-4.7506e-06
-5.69832e-06
-4.50155e-06
-1.3144e-07
2.42821e-06
-2.81343e-06
-1.56102e-05
4.64867e-06
-2.79282e-06
-1.46607e-05
5.83768e-06
-2.7363e-06
-1.08995e-05
6.39489e-06
-2.6777e-06
-9.25207e-06
-2.53931e-06
-3.43961e-06
2.44724e-06
-1.67194e-05
4.68667e-06
-1.56957e-05
5.90793e-06
-1.18587e-05
6.46862e-06
-1.01268e-05
-4.1486e-06
3.16106e-06
-9.74314e-06
-5.13405e-06
5.94552e-06
-9.56338e-06
-4.12764e-06
7.35467e-06
-9.15891e-06
3.36015e-07
8.00585e-06
-8.88356e-06
2.0986e-06
-8.30002e-06
8.88908e-06
3.45668e-06
-9.25605e-06
-1.39402e-05
6.46369e-06
-9.05716e-06
-1.26136e-05
7.97235e-06
-8.61814e-06
-7.69039e-06
8.58919e-06
-8.33557e-06
-5.45725e-06
-7.71934e-06
1.98672e-06
3.59144e-06
-7.70707e-06
-1.69429e-05
6.68848e-06
-7.52195e-06
-1.54347e-05
8.25531e-06
-7.1066e-06
-1.02366e-05
8.86571e-06
-6.88192e-06
-7.76231e-06
-6.36734e-06
1.54769e-07
3.84537e-06
-4.42096e-06
-2.29209e-05
7.10413e-06
-4.29823e-06
-2.11432e-05
8.6919e-06
-4.044e-06
-1.55498e-05
9.26665e-06
-3.90831e-06
-1.28004e-05
-3.61607e-06
-4.43045e-06
3.96815e-06
-2.50637e-05
7.29064e-06
-2.3034e-05
8.89293e-06
-1.7177e-05
9.4483e-06
-1.42446e-05
-5.55209e-06
4.80276e-06
-1.4524e-05
-6.693e-06
8.89391e-06
-1.41551e-05
-5.05282e-06
1.09138e-05
-1.35268e-05
1.19227e-06
1.17146e-05
-1.29388e-05
3.95519e-06
-1.20738e-05
1.34705e-05
5.42023e-06
-1.44238e-05
-1.95833e-05
9.80239e-06
-1.39066e-05
-1.72441e-05
1.19649e-05
-1.31009e-05
-1.02788e-05
1.25802e-05
-1.24015e-05
-6.60976e-06
-1.13565e-05
3.814e-06
5.90426e-06
-1.24556e-05
-2.49634e-05
1.05522e-05
-1.18984e-05
-2.20908e-05
1.2667e-05
-1.10277e-05
-1.44246e-05
1.31678e-05
-1.0295e-05
-1.03695e-05
-9.40992e-06
9.72092e-07
6.46515e-06
-7.48268e-06
-3.45702e-05
1.1437e-05
-6.99923e-06
-3.10142e-05
1.34857e-05
-6.38805e-06
-2.22381e-05
1.37959e-05
-5.92766e-06
-1.74779e-05
-5.34365e-06
-5.43893e-06
6.90242e-06
-3.93842e-05
1.19139e-05
-3.47054e-05
1.39906e-05
-2.52495e-05
1.4167e-05
-1.99322e-05
-7.20277e-06
7.50505e-06
-2.22252e-05
-8.04315e-06
1.3244e-05
-2.11297e-05
-5.23107e-06
1.57617e-05
-1.96474e-05
3.54288e-06
1.61527e-05
-1.84544e-05
7.87037e-06
-1.65803e-05
2.04696e-05
8.8471e-06
-2.46129e-05
-2.618e-05
1.55668e-05
-2.28583e-05
-2.22351e-05
1.80234e-05
-1.99956e-05
-1.23872e-05
1.8027e-05
-1.85363e-05
-6.5313e-06
-1.62864e-05
7.69416e-06
9.98444e-06
-2.33202e-05
-3.6419e-05
1.70235e-05
-2.15485e-05
-3.04397e-05
1.95216e-05
-1.76689e-05
-1.92494e-05
1.92438e-05
-1.61312e-05
-1.24968e-05
-1.38264e-05
3.26783e-06
1.21541e-05
-1.37565e-05
-5.6587e-05
2.08181e-05
-1.2999e-05
-4.82278e-05
2.2295e-05
-1.07753e-05
-3.06085e-05
2.06918e-05
-9.4764e-06
-2.25296e-05
-8.14831e-06
-5.69244e-06
1.29035e-05
-6.59472e-05
2.25589e-05
-5.68475e-05
2.40748e-05
-3.7004e-05
2.17924e-05
-2.66002e-05
-8.67601e-06
1.20374e-05
-3.56345e-05
-7.57316e-06
2.01674e-05
-3.21085e-05
-3.44459e-06
2.32424e-05
-2.92383e-05
8.36735e-06
2.33733e-05
-2.67529e-05
1.44263e-05
-2.39144e-05
3.03796e-05
1.46151e-05
-3.87443e-05
-3.78282e-05
2.40654e-05
-3.67157e-05
-2.70782e-05
2.72221e-05
-3.14707e-05
-1.33116e-05
2.62162e-05
-2.78354e-05
-4.44289e-06
-2.38995e-05
1.42012e-05
1.63489e-05
-3.09816e-05
-6.07169e-05
2.80735e-05
-3.00482e-05
-4.88319e-05
3.09051e-05
-2.89479e-05
-2.46036e-05
2.8763e-05
-2.48267e-05
-1.33633e-05
-2.09252e-05
8.08535e-06
1.6953e-05
-1.86045e-05
-8.62037e-05
2.92047e-05
-1.77689e-05
-7.27588e-05
3.59793e-05
-1.71872e-05
-4.91439e-05
3.16071e-05
-1.54294e-05
-2.75546e-05
-1.28785e-05
-3.92516e-06
1.78135e-05
-0.000102254
3.01764e-05
-8.64821e-05
3.79523e-05
-6.13372e-05
3.52131e-05
-3.8628e-05
-8.24887e-06
1.48671e-05
-4.70515e-05
-7.6841e-06
2.5661e-05
-4.4258e-05
-9.03767e-07
2.99466e-05
-4.00926e-05
1.50106e-05
2.90287e-05
-3.55383e-05
2.37075e-05
-2.96478e-05
4.07785e-05
1.84928e-05
-4.73537e-05
-5.61473e-05
3.30282e-05
-4.46888e-05
-4.11828e-05
3.6662e-05
-4.25661e-05
-1.44719e-05
3.49314e-05
-3.73477e-05
-9.02889e-07
-3.06911e-05
2.34305e-05
2.00359e-05
-3.91562e-05
-8.91221e-05
3.42493e-05
-3.67686e-05
-7.09655e-05
4.2063e-05
-3.47556e-05
-4.02278e-05
3.95253e-05
-3.36237e-05
-1.45496e-05
-2.6493e-05
1.46796e-05
2.15864e-05
-2.39611e-05
-0.000123286
3.60131e-05
-2.23676e-05
-0.000101587
4.40501e-05
-2.06455e-05
-7.12909e-05
4.36722e-05
-1.90631e-05
-4.17373e-05
-1.56752e-05
-1.55172e-06
2.31329e-05
-0.000149251
3.83549e-05
-0.000123519
4.6651e-05
-8.96236e-05
4.64869e-05
-5.68393e-05
-8.45105e-06
2.11303e-05
-6.62783e-05
-9.41955e-06
3.50714e-05
-6.1279e-05
2.39969e-06
4.2769e-05
-5.6131e-05
2.16177e-05
4.3837e-05
-4.86261e-05
3.3443e-05
-4.45928e-05
5.83978e-05
2.58244e-05
-7.09428e-05
-7.74424e-05
4.26527e-05
-6.47319e-05
-5.45582e-05
5.11767e-05
-5.95331e-05
-1.95938e-05
4.78733e-05
-5.20069e-05
5.78134e-06
-4.36509e-05
3.31234e-05
3.0426e-05
-6.06959e-05
-0.000129967
4.87126e-05
-5.44808e-05
-9.95032e-05
5.87045e-05
-4.96586e-05
-6.00941e-05
5.53852e-05
-4.35488e-05
-1.96883e-05
-3.61291e-05
2.13046e-05
3.42883e-05
-4.01453e-05
-0.000178456
5.35495e-05
-3.51847e-05
-0.000140144
6.38846e-05
-3.13601e-05
-9.99244e-05
6.04586e-05
-2.67561e-05
-5.51041e-05
-2.21869e-05
1.55055e-06
3.92334e-05
-0.000228467
5.97254e-05
-0.000178609
7.0048e-05
-0.000130486
6.53983e-05
-7.80885e-05
-1.04053e-05
2.95694e-05
-9.1638e-05
-1.26396e-05
4.84645e-05
-8.37793e-05
6.76455e-06
5.90917e-05
-7.68038e-05
3.0801e-05
5.90728e-05
-6.72865e-05
4.97944e-05
-5.99407e-05
8.43137e-05
3.6528e-05
-0.000102436
-0.000103337
5.86477e-05
-9.2034e-05
-6.84231e-05
6.9887e-05
-8.26129e-05
-2.50239e-05
6.64043e-05
-7.09278e-05
1.29055e-05
-6.01542e-05
4.94427e-05
4.43103e-05
-9.05094e-05
-0.000186442
6.99674e-05
-8.00224e-05
-0.000137172
8.15951e-05
-7.11379e-05
-8.31968e-05
7.59378e-05
-5.98569e-05
-2.51019e-05
-4.973e-05
3.0454e-05
5.11172e-05
-6.0007e-05
-0.000260513
7.87802e-05
-5.24526e-05
-0.000195377
9.09456e-05
-4.55706e-05
-0.000137657
8.28137e-05
-3.78123e-05
-6.90168e-05
-3.10128e-05
5.81089e-06
5.8711e-05
-0.000347058
8.93898e-05
-0.000260884
0.000101406
-0.000187077
9.06891e-05
-0.000104106
-1.41471e-05
4.76528e-05
-0.00014393
-1.28662e-05
7.74428e-05
-0.000125305
1.59676e-05
8.99945e-05
-0.000115794
5.20778e-05
8.52116e-05
-9.82154e-05
8.19722e-05
-8.63488e-05
0.000126701
6.09507e-05
-0.000176275
-0.000132086
9.20469e-05
-0.000149577
-7.52481e-05
0.000106168
-0.000132334
-2.26051e-05
9.71076e-05
-0.000107346
3.10965e-05
-9.12361e-05
8.15586e-05
8.07057e-05
-0.000170682
-0.000272911
0.000118184
-0.000138138
-0.000186088
0.000131091
-0.000119591
-0.000108847
0.000114609
-9.33795e-05
-2.25863e-05
-7.88232e-05
5.16805e-05
9.69142e-05
-0.000129353
-0.000399222
0.000136792
-9.83064e-05
-0.000275086
0.000148364
-8.21204e-05
-0.000186699
0.000124119
-6.22635e-05
-7.58881e-05
-4.90592e-05
1.48814e-05
0.000128009
-0.000604061
0.000169318
-0.000399733
0.000175008
-0.00027367
0.000142651
-0.000132813
-1.44056e-05
6.48104e-05
-0.000211574
-1.48439e-06
0.000104877
-0.000179653
3.76409e-05
0.000120804
-0.00016079
8.74028e-05
0.000111106
-0.000131243
0.000130893
-0.000112177
0.000184701
8.92761e-05
-0.000269654
-0.000163482
0.000131932
-0.000221901
-7.56557e-05
0.000148449
-0.000190692
-9.21945e-06
0.000130089
-0.000149837
6.80509e-05
-0.000122046
0.000130436
0.000124227
-0.000268154
-0.000399003
0.000175929
-0.000213834
-0.000245857
0.000189406
-0.000177565
-0.000135452
0.000159804
-0.000133676
-9.1449e-06
-0.000106316
8.70094e-05
0.000157974
-0.000204944
-0.000621104
0.000211924
-0.000160166
-0.000382705
0.000220476
-0.000126063
-0.000246753
0.000178462
-9.11157e-05
-7.6435e-05
-6.62674e-05
3.63193e-05
0.000203162
-0.0010121
0.000266828
-0.000621806
0.000268747
-0.000400114
0.000210993
-0.000164497
-3.04701e-06
0.000112858
-0.000360699
4.26658e-05
0.00016188
-0.000284243
0.000105875
0.000177102
-0.000250848
0.000166663
0.000154209
-0.000187905
0.000219248
-0.000155884
0.000274739
0.000156122
-0.000513948
-0.000166484
0.000210816
-0.000380382
-3.42103e-05
0.00022774
-0.000318481
4.14893e-05
0.000186343
-0.000229291
0.000150835
-0.000178848
0.000218828
0.000254133
-0.000595697
-0.000571519
0.000318002
-0.000400462
-0.000289647
0.000316664
-0.000320196
-0.000132399
0.000249107
-0.000212677
4.17974e-05
-0.000163977
0.000166591
0.000342259
-0.000549778
-0.0010101
0.000398507
-0.000344635
-0.00049478
0.00037878
-0.000256471
-0.00029075
0.000282551
-0.000158015
-3.48675e-05
-0.000114788
0.00010447
0.000547778
-0.00210843
0.000593795
-0.00101117
0.000512304
-0.00057275
0.000358515
-0.000167012
4.13297e-05
0.000146796
-0.000510337
0.000127909
0.000208433
-0.000384202
0.000212269
0.000221053
-0.000324746
0.000280895
0.0001899
-0.000234847
0.000335093
-0.000191248
0.00038893
0.000225457
-0.00076606
-0.000136442
0.00029018
-0.000547556
6.44211e-05
0.000294533
-0.000436946
0.000149336
0.000233275
-0.000296146
0.000273392
-0.000222198
0.000334289
0.000373644
-0.000930913
-0.000780914
0.000458453
-0.000624306
-0.000297705
0.00043561
-0.000460442
-8.60607e-05
0.000323743
-0.000292411
0.000149929
-0.000209353
0.00028058
0.000564923
-0.000846418
-0.00166063
0.000621583
-0.000568408
-0.000607339
0.000546101
-0.000376144
-0.000299565
0.000382819
-0.000227857
6.38601e-05
-0.000147139
0.000210315
0.000842514
-0.0037978
0.00093067
-0.00166221
0.000765966
-0.000781819
0.000510528
-0.000136731
0.000127478
0.000219749
-0.000869119
0.000369879
0.000289422
-0.000581132
0.000434845
0.00029541
-0.000475814
0.000485316
0.000241066
-0.000308662
0.000514607
-0.000243496
0.000546725
0.00037832
-0.001473
8.90516e-05
0.000435188
-0.000907845
0.000334266
0.00041241
-0.000693882
0.000390182
0.000306473
-0.000414317
0.000484984
-0.000297818
0.000513968
0.00074827
-0.00236304
-0.000639094
0.000820862
-0.00117736
-0.000100783
0.000691528
-0.000824192
0.000173584
0.000473214
-0.000437126
0.000391052
-0.000292255
0.00048562
0.00123492
-0.00276089
-0.00249947
0.00117449
-0.00124071
-0.00048356
0.000906478
-0.000752836
-0.00010291
0.000578816
-0.000379974
0.00033437
-0.000222515
0.000433461
0.00275792
-0.00224836
-0.00176766
-0.00304479
-0.00224981
0.00236161
-0.00250092
0.00147234
-0.000640095
0.000866234
9.13908e-05
0.000370818
0.000250694
-0.00111992
0.000728274
0.000322177
-0.000675819
0.0007201
0.000314266
-0.00053518
0.000730679
0.00025643
-0.000329437
0.000707594
-0.000257987
0.000703594
0.000475081
-0.00220284
0.000696656
0.000511466
-0.00113172
0.000753778
0.000451656
-0.000810276
0.000725088
0.000327464
-0.000453279
0.000733018
-0.000315661
0.000706875
0.00108336
-0.00437996
0.000453698
0.00107505
-0.00183245
0.00060826
0.000808583
-0.00107653
0.000706303
0.000534211
-0.000514104
0.000726249
-0.00032311
0.000730849
0.0024257
-0.0012237
-0.000319874
-0.000217679
-0.00109005
-0.000615001
-0.00107125
-0.00281327
-0.00195614
0.00182981
-0.00242747
0.000205265
0.000149711
0.000143509
0.000208874
0.00113101
-0.0010856
0.000604966
0.000673788
-0.000476982
0.00075447
-0.000250363
0.00071833
0.000810619
-0.00108432
-0.00320285
0.00438102
-0.000604034
-0.000212615
-0.00108885
-0.000312608
-0.00107017
-0.00122287
-0.00195412
-0.00281059
0.00220266
0.000455761
0.00112075
0.000699534
0.000728943
0.000289851
-0.00143233
0.00126769
0.00035683
-0.000839276
0.00113303
0.000335939
-0.000626964
0.00104513
0.000263673
-0.000357719
0.000936873
-0.000266681
0.000873699
0.000577157
-0.00286496
0.0015521
0.000595634
-0.00145214
0.00134816
0.000508372
-0.0010102
0.00119558
0.000355182
-0.000510231
0.00103872
-0.000338908
0.00093672
0.00140601
-0.00187278
0.00267192
-0.0015283
-0.00169955
-0.00138911
0.00142522
-0.000774767
0.0019841
-0.000727142
-0.00069752
-0.000647759
0.00100686
-0.00143056
0.00154503
0.000623545
-0.00059649
0.00119582
-0.000359843
0.00104593
0.000665701
-0.00328385
0.000422925
-0.000823769
0.000838815
-0.00103896
0.000454409
0.00145054
-0.00141559
0.00198521
-0.000726717
-0.000775064
-0.000648695
-0.000695271
0.000836524
-0.000576194
0.00134819
-0.000291468
0.00113161
0.0014078
0.00100268
0.000462797
-0.00165089
-0.00122327
-0.000733903
0.00224841
-0.00130714
-0.000876709
-0.000788015
-0.00106174
0.00123088
0.00016724
0.000160416
0.000193934
0.000162596
0.00285934
0.00268073
-0.00152805
-0.00187572
-0.00139111
-0.00169912
0.00142827
0.00155377
0.00127367
0.000183764
-0.000803827
0.00151936
0.00024195
-0.000466487
0.00132756
0.000234494
-0.000399302
0.00120969
0.000202472
-0.000233585
0.00106076
-0.00020385
0.000957639
0.000353685
-0.00145587
0.00185044
0.000351596
-0.000696794
0.00158056
0.000312955
-0.000595458
0.00143038
0.000231722
-0.000313256
0.00119962
-0.000235737
0.00106123
0.000763529
-0.00131426
0.00326393
-0.000938988
-0.000374179
-0.000185738
0.000786143
-0.00050826
0.00236309
-0.000384201
-6.64624e-05
-0.000139472
0.000595101
-0.000783163
0.00192377
0.00039867
-0.000351109
0.0014301
-0.000242248
0.00121051
0.000441749
0.00151816
-0.00125181
-0.000382137
-0.000645354
-0.000612077
-0.000383861
-0.000555929
0.000459584
-0.00058007
0.000952417
-0.000784261
0.000695595
-0.000761291
0.00236404
-0.000383224
-0.000507571
-0.000140791
-6.47172e-05
0.000463345
-0.000349949
0.00157928
-0.000184127
0.00132862
0.000441092
0.00419141
-3.01447e-06
-6.45765e-05
-0.00456531
-0.000537266
0.00026535
-0.000501771
-0.000243972
0.000553174
0.000464485
0.00145402
0.00327035
-0.00094267
-0.00132087
-0.000188375
-0.000380984
0.000804772
0.00184692
0.00152107
2.06485e-05
-0.000210693
0.00140886
6.38293e-05
-0.000143613
0.00129093
9.11944e-05
-0.000165078
0.00119702
0.000104935
-0.000121977
0.00107836
-0.000107916
0.000969646
0.000191019
-0.000296606
0.00174539
0.000155766
-6.12051e-05
0.0015334
0.000131836
-0.000124449
0.00141368
0.000118968
-0.0001352
0.00122572
-9.42705e-05
0.00107907
-1.31495e-05
2.77731e-05
0.00228434
0.000160624
0.000269372
0.00023876
2.44055e-05
0.000338551
0.00192578
0.000121735
-2.52527e-05
0.00172725
0.000162098
-0.000159424
0.00141397
-6.64173e-05
0.00119744
-2.57331e-05
0.000844621
0.000168049
-0.000961154
-0.00034039
0.000519613
0.00169394
1.59638e-05
0.000527874
-2.93402e-05
0.000590691
1.2224e-05
0.000586769
-3.05838e-05
-0.000705868
-0.000703034
-0.00109303
-0.00070628
6.00556e-05
1.43074e-05
0.00192404
0.000140125
-0.0001935
0.00153328
-2.47892e-05
0.00129279
-0.000503391
0.00371094
-0.000280176
0.000373742
-0.00330216
0.00156549
-0.000668357
0.000617234
-0.000235402
-0.000759355
0.000296793
0.00228033
0.000160143
2.28361e-05
0.000247372
0.000275367
0.00020615
0.00174614
0.00140728
-4.76422e-05
9.70924e-06
0.00128958
-2.75915e-05
2.8315e-05
0.00120238
9.56379e-07
-8.57782e-06
0.00110658
4.42435e-05
-1.35366e-05
0.0010193
-4.46741e-05
0.000907373
6.42306e-05
-0.00010429
0.00179574
2.74002e-05
5.12695e-05
0.00154728
-4.50412e-06
9.32575e-05
0.00134375
1.23694e-05
2.13504e-06
0.00119317
-1.55742e-06
0.00102067
-0.000215943
0.00035275
0.00208991
0.000322545
-0.000321981
-4.79376e-05
-0.000171226
7.74941e-05
0.00185483
-9.51567e-05
0.000171613
0.00157282
8.80371e-06
-3.05512e-05
0.00134269
2.77071e-05
0.00110666
0.000479171
4.70665e-05
0.000307359
-0.000482004
-7.32149e-05
0.000103364
0.000626337
0.000506564
0.000587599
0.000625366
-8.00924e-05
0.000105635
0.000178483
-0.000459621
-7.84831e-05
-0.000454538
0.00018404
-4.95598e-05
0.000215663
0.00185633
-2.9105e-05
-6.57936e-05
0.00154807
4.80528e-05
0.00120496
0.00270192
4.69456e-06
-3.18577e-05
-7.14504e-05
-0.00260374
0.000430935
0.00102488
-0.000411226
0.000113358
-0.00105459
0.0001105
0.00207967
0.000326253
0.000348999
-5.04012e-05
-0.000319159
-6.29502e-06
0.00179599
0.00128714
-7.58627e-05
0.000187922
0.00122088
-8.04126e-05
0.000180589
0.00112592
-7.98603e-05
0.000120874
0.00100983
-3.5134e-05
9.06857e-05
0.000927214
3.09792e-05
0.000815902
-6.81362e-05
0.000304239
0.00174659
-0.000129637
0.000301334
0.00148803
-0.000137444
0.000194912
0.00127752
-9.30073e-05
0.000136123
0.0011033
7.58074e-05
0.000929458
-0.000233842
-0.000319275
0.0023822
-7.71244e-05
0.000288886
0.000352573
-0.000208034
-0.000209496
0.00199465
-1.54924e-05
0.000125539
0.000235166
-0.000198925
0.000201403
0.00155722
-0.000124569
0.00012892
0.00127554
7.56817e-05
0.00101141
0.000144826
0.000628446
2.11674e-05
-0.000346898
-0.000326999
-0.000215751
-0.000225814
-0.000106005
5.11445e-05
-0.000278368
0.000750071
-0.000303691
0.000224152
0.00200239
-1.72318e-05
-0.000209868
0.000235965
0.000126024
-0.000183496
6.86932e-05
0.0014881
7.01968e-05
0.00113234
0.00300206
0.000745633
0.000334232
-0.0002872
-0.0037968
-0.000308088
0.000211555
-1.6568e-05
0.000210554
-0.000255932
0.000158477
-0.000310326
0.00238054
-7.89808e-05
-0.000312978
0.000346299
0.000286165
-0.00019226
0.00174375
0.00122439
-0.000181847
0.000909331
0.000923026
-0.000202836
0.000658953
0.000871529
-0.000183316
0.000396094
0.000794708
-0.000101928
0.000256271
0.00074938
0.0001041
0.000660924
-0.000326829
0.0018553
0.0011269
-0.000430974
0.00123879
0.00101234
-0.000384866
0.0006829
0.000944606
-0.000255455
0.000385161
0.000844998
0.00018591
0.00075128
-0.000825579
0.000665163
0.00153385
0.000758252
0.00113562
0.000967996
-0.000902133
0.0019967
0.00131329
-0.000680006
0.000906642
0.00111135
-0.00039329
0.000430823
0.000943159
0.000205523
0.000796321
-0.000255707
0.00127129
0.000554201
-0.000905479
-0.00199705
0.000683655
0.00143716
0.000427465
0.000693546
0.000496263
0.00108496
0.000429564
0.00107732
0.000494186
-0.000632708
-0.000526398
-0.0010399
-0.000631353
-0.00123808
0.000830662
0.00131939
-0.000657156
0.000325867
0.00101213
0.000184576
0.000876376
0.00389506
-0.000509329
-0.000328958
0.000272736
-0.00333453
0.00031277
-0.0010933
0.000517927
0.000536872
0.000565389
0.000399326
0.000646535
-0.000309934
-0.000316406
-0.000261303
-0.000314227
-0.00184855
0.00154953
0.000757976
0.000663134
0.000964647
0.00112782
-0.000906485
0.00112333
0.000928048
-0.000226982
0.00107615
0.000572831
-0.000270408
0.000736015
0.000590946
-0.000251136
0.000488266
0.000560599
-0.000172475
0.000308916
0.000566186
0.000171666
0.000512314
-0.000365035
0.00202638
0.000543677
-0.000473633
0.00126731
0.000589649
-0.000432474
0.00079139
0.000600323
-0.000310296
0.000431435
0.0006003
0.000250868
0.000566952
-0.00100293
0.00408914
0.000473853
-0.00105018
0.0020445
0.000583339
-0.000790121