/*--------------------------------*- C++ -*----------------------------------*\
| =========                 |                                                 |
| \\      /  F ield         | OpenFOAM: The Open Source CFD Toolbox           |
|  \\    /   O peration     | Version:  5.x                                   |
|   \\  /    A nd           | Web:      www.OpenFOAM.org                      |
|    \\/     M anipulation  |                                                 |
\*---------------------------------------------------------------------------*/
FoamFile
{
    version     2.0;
    format      ascii;
    class       volVectorField;
    location    "0.069";
    object      U;
}
// * * * * * * * * * * * * * * * * * * * * * * * * * * * * * * * * * * * * * //

dimensions      [0 1 -1 0 0 0 0];

internalField   nonuniform List<vector> 
1567
(
(-1.74146e-06 -2.6524e-05 0.0220027)
(1.08302e-05 -2.66415e-05 0.0220013)
(1.19039e-05 -2.66793e-05 0.0220061)
(2.1271e-05 -2.6714e-05 0.0220062)
(2.12824e-05 -2.66059e-05 0.0220232)
(-2.26163e-06 -2.76275e-05 0.021982)
(1.06744e-05 -2.78186e-05 0.0219807)
(1.18285e-05 -2.79181e-05 0.0219856)
(2.13372e-05 -2.79801e-05 0.0219857)
(2.13905e-05 -2.79066e-05 0.0220029)
(-2.49706e-06 -1.781e-05 0.021982)
(1.05392e-05 -1.79869e-05 0.0219806)
(1.17422e-05 -1.8102e-05 0.0219856)
(2.12824e-05 -1.81712e-05 0.0219857)
(2.13634e-05 -1.81738e-05 0.022003)
(-2.82226e-06 -1.70298e-05 0.0219753)
(1.03823e-05 -1.72092e-05 0.0219739)
(1.16441e-05 -1.73461e-05 0.021979)
(2.12655e-05 -1.74273e-05 0.0219792)
(2.13927e-05 -1.74667e-05 0.0219965)
(-3.02891e-06 -3.74235e-06 0.021977)
(1.02229e-05 -3.91414e-06 0.0219757)
(1.15241e-05 -4.09872e-06 0.0219808)
(2.11619e-05 -4.18947e-06 0.021981)
(2.13281e-05 -4.34497e-06 0.0219983)
(-2.64519e-06 -4.28971e-06 -0.0107039)
(1.48215e-06 -4.21177e-06 -0.0107036)
(2.38614e-06 -4.07552e-06 -0.0107033)
(2.44604e-06 -4.06493e-06 -0.0107029)
(2.27061e-06 -4.00082e-06 -0.0107044)
(-2.17197e-06 -6.15677e-06 -0.0107017)
(1.6855e-06 -6.05621e-06 -0.0107014)
(2.52447e-06 -5.91815e-06 -0.0107011)
(2.51447e-06 -5.91574e-06 -0.0107007)
(2.33472e-06 -5.86961e-06 -0.0107022)
(-2.04424e-06 -6.9454e-06 -0.0107024)
(1.72032e-06 -6.90393e-06 -0.0107021)
(2.52629e-06 -6.84044e-06 -0.0107018)
(2.49445e-06 -6.857e-06 -0.0107014)
(2.32221e-06 -6.84647e-06 -0.0107029)
(-1.86393e-06 -7.14576e-06 -0.0107024)
(1.79045e-06 -7.13129e-06 -0.010702)
(2.57139e-06 -7.09879e-06 -0.0107018)
(2.50848e-06 -7.12772e-06 -0.0107013)
(2.3493e-06 -7.13321e-06 -0.0107029)
(-1.84646e-06 -3.82513e-06 -0.0107031)
(1.76729e-06 -3.86108e-06 -0.0107028)
(2.52987e-06 -3.90772e-06 -0.0107026)
(2.46005e-06 -3.95766e-06 -0.0107021)
(2.32033e-06 -4.02746e-06 -0.0107037)
(-1.44643e-06 -2.48408e-05 0.0161643)
(1.17151e-05 -2.49527e-05 0.0161645)
(1.29573e-05 -2.49764e-05 0.0161725)
(2.0688e-05 -2.5016e-05 0.0161734)
(2.0208e-05 -2.49017e-05 0.016188)
(-1.84936e-06 -2.66865e-05 0.0161476)
(1.15777e-05 -2.68579e-05 0.0161477)
(1.28901e-05 -2.69441e-05 0.0161558)
(2.07539e-05 -2.70148e-05 0.0161568)
(2.03222e-05 -2.69412e-05 0.0161715)
(-2.02153e-06 -1.88875e-05 0.0161464)
(1.14572e-05 -1.90597e-05 0.0161466)
(1.28001e-05 -1.9189e-05 0.0161546)
(2.06907e-05 -1.92722e-05 0.0161556)
(2.02905e-05 -1.92837e-05 0.0161703)
(-2.36413e-06 -1.81705e-05 0.0161368)
(1.12762e-05 -1.83593e-05 0.0161369)
(1.26775e-05 -1.85262e-05 0.016145)
(2.06594e-05 -1.86264e-05 0.0161459)
(2.03164e-05 -1.86808e-05 0.0161608)
(-2.58087e-06 -4.55011e-06 0.0161365)
(1.11014e-05 -4.75192e-06 0.0161365)
(1.2533e-05 -4.98998e-06 0.0161446)
(2.05362e-05 -5.1081e-06 0.0161456)
(2.02407e-05 -5.30516e-06 0.0161604)
(-2.68543e-06 -2.15982e-05 -0.00529705)
(9.70975e-06 -2.15702e-05 -0.00529654)
(1.13365e-05 -2.13643e-05 -0.00528982)
(1.79517e-05 -2.13431e-05 -0.00528849)
(1.74061e-05 -2.10928e-05 -0.00527816)
(-2.47853e-06 -2.40026e-05 -0.00530826)
(9.92835e-06 -2.39858e-05 -0.00530775)
(1.15489e-05 -2.37966e-05 -0.00530091)
(1.82068e-05 -2.37885e-05 -0.00529955)
(1.76564e-05 -2.35535e-05 -0.00528905)
(-2.478e-06 -1.77121e-05 -0.0053101)
(9.91529e-06 -1.77386e-05 -0.00530959)
(1.15333e-05 -1.76587e-05 -0.00530274)
(1.81947e-05 -1.76796e-05 -0.00530138)
(1.76569e-05 -1.7566e-05 -0.00529087)
(-2.41867e-06 -1.70758e-05 -0.00531771)
(9.98169e-06 -1.71243e-05 -0.00531723)
(1.16078e-05 -1.70912e-05 -0.00531032)
(1.82996e-05 -1.71318e-05 -0.00530896)
(1.7781e-05 -1.70659e-05 -0.00529834)
(-2.49852e-06 -4.88792e-06 -0.00531894)
(9.89988e-06 -4.99954e-06 -0.00531847)
(1.15258e-05 -5.11683e-06 -0.00531159)
(1.82201e-05 -5.19976e-06 -0.00531024)
(1.77325e-05 -5.33363e-06 -0.00529964)
(-1.25753e-06 -3.66189e-05 0.0118359)
(1.89519e-05 -3.67277e-05 0.0118368)
(2.10265e-05 -3.66151e-05 0.0118505)
(3.23413e-05 -3.66299e-05 0.0118527)
(3.1024e-05 -3.62963e-05 0.0118745)
(-1.64101e-06 -3.97706e-05 0.0118117)
(1.89453e-05 -3.99433e-05 0.0118126)
(2.11113e-05 -3.98936e-05 0.0118265)
(3.2639e-05 -3.99408e-05 0.0118287)
(3.13575e-05 -3.96399e-05 0.0118509)
(-1.82438e-06 -2.8357e-05 0.011809)
(1.88284e-05 -2.85505e-05 0.0118098)
(2.10286e-05 -2.86226e-05 0.0118237)
(3.2595e-05 -2.87024e-05 0.0118259)
(3.13461e-05 -2.85883e-05 0.0118482)
(-2.21481e-06 -2.70269e-05 0.0117934)
(1.86797e-05 -2.72482e-05 0.0117942)
(2.09594e-05 -2.73903e-05 0.0118081)
(3.26735e-05 -2.74993e-05 0.0118103)
(3.14855e-05 -2.74651e-05 0.0118328)
(-2.49102e-06 -6.18864e-06 0.0117918)
(1.8465e-05 -6.46195e-06 0.0117925)
(2.07775e-05 -6.79734e-06 0.0118064)
(3.25205e-05 -6.9613e-06 0.0118086)
(3.1392e-05 -7.24758e-06 0.0118311)
(-1.95232e-06 -4.67451e-05 -0.00181883)
(2.43287e-05 -4.67653e-05 -0.00181749)
(2.71895e-05 -4.63732e-05 -0.00180088)
(4.19555e-05 -4.63079e-05 -0.00179769)
(4.01671e-05 -4.56599e-05 -0.00177155)
(-2.0148e-06 -5.09215e-05 -0.00184757)
(2.46744e-05 -5.09896e-05 -0.00184622)
(2.76182e-05 -5.06231e-05 -0.00182923)
(4.26297e-05 -5.05785e-05 -0.00182594)
(4.08151e-05 -4.99191e-05 -0.00179922)
(-2.13633e-06 -3.60847e-05 -0.00185175)
(2.46266e-05 -3.62034e-05 -0.00185041)
(2.75999e-05 -3.60479e-05 -0.00183338)
(4.26594e-05 -3.6066e-05 -0.00183007)
(4.08651e-05 -3.57e-05 -0.00180325)
(-2.3019e-06 -3.42583e-05 -0.00187062)
(2.47112e-05 -3.44107e-05 -0.0018693)
(2.77556e-05 -3.43483e-05 -0.00185208)
(4.29782e-05 -3.44059e-05 -0.00184873)
(4.12074e-05 -3.41528e-05 -0.00182155)
(-2.53833e-06 -7.38103e-06 -0.00187317)
(2.45366e-05 -7.6361e-06 -0.00187189)
(2.76047e-05 -7.90999e-06 -0.0018547)
(4.28552e-05 -8.07014e-06 -0.00185135)
(4.11409e-05 -8.32249e-06 -0.00182418)
(-3.87428e-07 -6.66683e-05 0.00901772)
(3.69175e-05 -6.6762e-05 0.00901982)
(4.08471e-05 -6.62586e-05 0.00904564)
(6.16746e-05 -6.61646e-05 0.00905033)
(5.83438e-05 -6.51749e-05 0.00909075)
(-8.42829e-07 -7.27458e-05 0.00897316)
(3.72945e-05 -7.29146e-05 0.00897529)
(4.14058e-05 -7.2447e-05 0.00900169)
(6.27009e-05 -7.23709e-05 0.00900659)
(5.93334e-05 -7.1346e-05 0.00904809)
(-1.08799e-06 -5.1428e-05 0.00896713)
(3.72157e-05 -5.16533e-05 0.00896923)
(4.139e-05 -5.14917e-05 0.00899572)
(6.27755e-05 -5.15056e-05 0.00900065)
(5.94261e-05 -5.09387e-05 0.00904236)
(-1.61243e-06 -4.84596e-05 0.00893807)
(3.72307e-05 -4.8739e-05 0.00894013)
(4.15534e-05 -4.87246e-05 0.00896692)
(6.32546e-05 -4.88002e-05 0.00897193)
(5.99395e-05 -4.84136e-05 0.00901425)
(-2.01989e-06 -9.65753e-06 0.00893455)
(3.69507e-05 -1.00671e-05 0.00893653)
(4.13289e-05 -1.05736e-05 0.00896328)
(6.3087e-05 -1.08145e-05 0.00896827)
(5.9846e-05 -1.12383e-05 0.00901063)
(-1.69032e-07 -9.32295e-05 0.000377655)
(5.22332e-05 -9.32162e-05 0.000380982)
(5.76838e-05 -9.22132e-05 0.000415618)
(8.7121e-05 -9.19333e-05 0.000422847)
(8.24339e-05 -9.01997e-05 0.000477169)
(-4.51546e-07 -0.000101504 0.000317572)
(5.31886e-05 -0.000101574 0.000321037)
(5.88974e-05 -0.000100538 0.000356701)
(8.90362e-05 -0.000100263 0.000364337)
(8.41675e-05 -9.83621e-05 0.000420286)
(-7.10036e-07 -7.1147e-05 0.000308202)
(5.31982e-05 -7.13327e-05 0.000311698)
(5.89939e-05 -7.07978e-05 0.000347589)
(8.92967e-05 -7.06974e-05 0.000355346)
(8.44326e-05 -6.95269e-05 0.000411698)
(-1.1504e-06 -6.68234e-05 0.000268951)
(5.35379e-05 -6.70868e-05 0.000272483)
(5.95327e-05 -6.67668e-05 0.000308963)
(9.03083e-05 -6.67585e-05 0.000316949)
(8.54061e-05 -6.58677e-05 0.000374314)
(-1.61291e-06 -1.21759e-05 0.00026342)
(5.32548e-05 -1.26483e-05 0.000266908)
(5.93222e-05 -1.31595e-05 0.000303417)
(9.01968e-05 -1.34379e-05 0.000311437)
(8.53824e-05 -1.38354e-05 0.000368929)
(2.40092e-06 -0.00012944 0.00720126)
(7.49007e-05 -0.000129386 0.00720611)
(8.27335e-05 -0.000127803 0.00725652)
(0.000123247 -0.000127282 0.00726687)
(0.000115089 -0.000124529 0.00734559)
(1.86818e-06 -0.000142282 0.00711372)
(7.64444e-05 -0.000142281 0.0071189)
(8.47293e-05 -0.000140556 0.00717099)
(0.000126364 -0.000139951 0.00718212)
(0.000117842 -0.00013684 0.00726371)
(1.54425e-06 -0.000100075 0.00710028)
(7.66248e-05 -0.000100233 0.00710547)
(8.50623e-05 -9.9255e-05 0.00715799)
(0.000126964 -9.89182e-05 0.00716929)
(0.000118357 -9.6934e-05 0.00725165)
(8.14244e-07 -9.32645e-05 0.00704342)
(7.72643e-05 -9.35522e-05 0.00704872)
(8.60439e-05 -9.29197e-05 0.00710215)
(0.000128687 -9.27323e-05 0.00711388)
(0.000119935 -9.12052e-05 0.00719792)
(1.96873e-07 -1.67219e-05 0.00703566)
(7.69696e-05 -1.73411e-05 0.00704088)
(8.58822e-05 -1.80804e-05 0.00709439)
(0.00012868 -1.8405e-05 0.00710615)
(0.000119977 -1.89525e-05 0.00719051)
(4.28369e-06 -0.000184626 0.00171282)
(0.000107471 -0.000184266 0.00172083)
(0.000118428 -0.0001815 0.00179019)
(0.000176271 -0.000180414 0.00180646)
(0.000164748 -0.000175732 0.00191495)
(3.97701e-06 -0.000202519 0.00159092)
(0.000110436 -0.000202235 0.00159965)
(0.000122095 -0.000199095 0.00167189)
(0.000181778 -0.000197872 0.00168968)
(0.00016943 -0.000192388 0.00180257)
(3.5822e-06 -0.000141421 0.00156931)
(0.000110891 -0.000141478 0.00157832)
(0.000122787 -0.000139617 0.00165146)
(0.000182978 -0.000138912 0.00166976)
(0.000170493 -0.000135285 0.00178417)
(2.87821e-06 -0.000131409 0.00148977)
(0.000112241 -0.000131656 0.0014992)
(0.000124661 -0.000130339 0.0015742)
(0.000186113 -0.000129874 0.00159342)
(0.00017324 -0.000126979 0.00171067)
(2.10172e-06 -2.18067e-05 0.00147703)
(0.000111961 -2.2587e-05 0.00148655)
(0.000124569 -2.33564e-05 0.00156197)
(0.000186341 -2.37622e-05 0.00158147)
(0.000173547 -2.41701e-05 0.00169944)
(9.91512e-06 -0.000256749 0.00601448)
(0.000152293 -0.000255936 0.00602623)
(0.000168387 -0.00025134 0.0061254)
(0.000248062 -0.000249239 0.00614913)
(0.000228405 -0.000241804 0.00630366)
(9.69798e-06 -0.000285935 0.00583932)
(0.000157445 -0.000284936 0.00585251)
(0.000174783 -0.000279423 0.00595611)
(0.000257177 -0.000276777 0.00598257)
(0.00023584 -0.000267675 0.00614449)
(9.44074e-06 -0.000201253 0.00580725)
(0.000158801 -0.000200715 0.00582083)
(0.000176541 -0.000196972 0.00592611)
(0.000259809 -0.000195204 0.00595341)
(0.000237928 -0.000188859 0.00611804)
(8.68712e-06 -0.000185575 0.00569414)
(0.000161726 -0.000185346 0.00570838)
(0.000180294 -0.000182436 0.00581597)
(0.000265296 -0.000181057 0.00584498)
(0.000242486 -0.000175963 0.00601405)
(7.87045e-06 -3.18103e-05 0.00567579)
(0.00016194 -3.26283e-05 0.0056901)
(0.00018083 -3.34193e-05 0.0057983)
(0.000266287 -3.36724e-05 0.00582769)
(0.000243278 -3.3963e-05 0.00599814)
(1.57624e-05 -0.000367586 0.0024354)
(0.00021836 -0.000365719 0.00245456)
(0.000241296 -0.000358306 0.00259092)
(0.000354689 -0.000354391 0.00262787)
(0.000326349 -0.00034205 0.00284102)
(1.63093e-05 -0.000409837 0.00218772)
(0.000227203 -0.000407726 0.00220998)
(0.00025212 -0.000398465 0.00235462)
(0.000370244 -0.000393677 0.00239689)
(0.00033869 -0.000378168 0.00262213)
(1.60326e-05 -0.000286565 0.00213593)
(0.000229724 -0.00028557 0.00215939)
(0.000255336 -0.000279719 0.00230714)
(0.000374986 -0.000276465 0.00235132)
(0.000342559 -0.000265699 0.00258189)
(1.5371e-05 -0.000262836 0.00197372)
(0.000234049 -0.000262348 0.00199948)
(0.000261225 -0.000258118 0.00215341)
(0.000384273 -0.000255567 0.00220071)
(0.000349961 -0.000246848 0.00243944)
(1.42838e-05 -4.29232e-05 0.00194211)
(0.000234443 -4.40065e-05 0.00196868)
(0.000262116 -4.47742e-05 0.00212491)
(0.000386263 -4.50617e-05 0.00217344)
(0.000351713 -4.46618e-05 0.00241528)
(2.88905e-05 -0.000515317 0.00519399)
(0.000307847 -0.000511301 0.0052237)
(0.00034173 -0.000498076 0.00541891)
(0.000498297 -0.000490459 0.00547503)
(0.000451075 -0.000470315 0.00577853)
(3.10216e-05 -0.000585664 0.00483986)
(0.00032438 -0.000580353 0.0048751)
(0.000361733 -0.000563447 0.00508099)
(0.000524925 -0.000553558 0.00514678)
(0.000471219 -0.000526939 0.0054681)
(3.16259e-05 -0.000415288 0.00475724)
(0.000330052 -0.000411255 0.00479481)
(0.000368511 -0.000398221 0.00500739)
(0.000534805 -0.000391427 0.0050768)
(0.000478826 -0.000371581 0.00540775)
(3.23338e-05 -0.000379433 0.00453097)
(0.000341447 -0.000376093 0.00457088)
(0.000381562 -0.000364704 0.00478764)
(0.00055158 -0.000358976 0.00486385)
(0.000491902 -0.000342611 0.00520544)
(3.18467e-05 -6.69204e-05 0.00448357)
(0.000344781 -6.7401e-05 0.00452482)
(0.000385628 -6.67653e-05 0.00474363)
(0.000556911 -6.61205e-05 0.00482215)
(0.000495898 -6.4185e-05 0.00516916)
(4.57529e-05 -0.000737604 0.00266856)
(0.000443232 -0.000729993 0.00271489)
(0.000492583 -0.000711316 0.00297809)
(0.000714603 -0.000697408 0.00306383)
(0.000643716 -0.000666462 0.00347501)
(5.07745e-05 -0.000846803 0.00216155)
(0.000468293 -0.000836827 0.00221975)
(0.000523753 -0.000810179 0.00250707)
(0.00075756 -0.000792111 0.00261028)
(0.000674663 -0.000749238 0.00305545)
(5.24024e-05 -0.000595395 0.00203296)
(0.000479834 -0.000589736 0.0020959)
(0.000537272 -0.000573017 0.00239209)
(0.000775543 -0.000559346 0.00250196)
(0.000688485 -0.000528318 0.00296473)
(5.29037e-05 -0.000536466 0.00169466)
(0.000490672 -0.000532303 0.00176843)
(0.000554143 -0.000521838 0.00208742)
(0.000802286 -0.000510175 0.00220608)
(0.000707104 -0.0004854 0.00269262)
(5.25178e-05 -9.44965e-05 0.00160925)
(0.000494462 -9.47948e-05 0.00168657)
(0.000559398 -9.45614e-05 0.00201655)
(0.000812003 -9.29858e-05 0.00214007)
(0.00071448 -8.82528e-05 0.00263855)
(7.59282e-05 -0.00104447 0.00450553)
(0.000617428 -0.00102822 0.00458357)
(0.000690698 -0.000989982 0.00496745)
(0.000995512 -0.000964265 0.00510228)
(0.00088087 -0.000908639 0.0056962)
(8.85659e-05 -0.00122176 0.0037822)
(0.000669954 -0.00119984 0.00388079)
(0.000752305 -0.00114992 0.0042888)
(0.00107375 -0.00111587 0.00445815)
(0.000936496 -0.00103751 0.00509163)
(9.33317e-05 -0.000882217 0.0035553)
(0.00068923 -0.00086262 0.00366477)
(0.000774621 -0.000817916 0.00409943)
(0.00110792 -0.00079567 0.00428264)
(0.000962327 -0.000734443 0.00495062)
(0.000103354 -0.000803203 0.00310693)
(0.000734257 -0.000785478 0.0032212)
(0.000819255 -0.000740299 0.00365378)
(0.00115727 -0.00072092 0.00386416)
(0.00100007 -0.000668847 0.00455575)
(0.000105701 -0.000157449 0.00297188)
(0.000752134 -0.00015518 0.00309862)
(0.000839176 -0.000145268 0.00353497)
(0.00117941 -0.000140128 0.00375596)
(0.00101636 -0.000127974 0.00446788)
(0.000125383 -0.00149368 0.00243202)
(0.000905089 -0.00146476 0.00254785)
(0.00101123 -0.00142047 0.0030501)
(0.00144392 -0.00137091 0.00325761)
(0.00126468 -0.00129825 0.00403207)
(0.000149077 -0.00179753 0.00139001)
(0.000974834 -0.0017561 0.00154608)
(0.00110101 -0.00167866 0.00211399)
(0.00156085 -0.00161222 0.00237776)
(0.00133734 -0.00149538 0.00324541)
(0.000160945 -0.00127054 0.00104754)
(0.0010239 -0.00124921 0.00122655)
(0.00115503 -0.00120792 0.00181445)
(0.00162719 -0.00115322 0.00210607)
(0.00138681 -0.00106412 0.00303063)
(0.000163924 -0.00111979 0.000323832)
(0.00103746 -0.00109838 0.000544114)
(0.00119699 -0.00108623 0.00121472)
(0.00170474 -0.00103678 0.00152581)
(0.00143051 -0.000968081 0.00251531)
(0.000174763 -0.000236386 7.90325e-05)
(0.00105747 -0.000224668 0.000309479)
(0.00121662 -0.000222343 0.0010211)
(0.0017454 -0.000211273 0.00135635)
(0.00145895 -0.000188428 0.00238661)
(0.000194688 -0.00213219 0.00364757)
(0.0012356 -0.00207441 0.00385856)
(0.00140044 -0.00196818 0.00461002)
(0.00197806 -0.00188404 0.0049468)
(0.00169144 -0.00173162 0.00609822)
(0.00024512 -0.00260723 0.00212687)
(0.001394 -0.00252211 0.00242706)
(0.00158401 -0.00238652 0.00324478)
(0.00220602 -0.00226825 0.00369791)
(0.00184386 -0.00203954 0.00492949)
(0.000272035 -0.00194837 0.00145978)
(0.00145622 -0.00186458 0.00180807)
(0.00165416 -0.0017172 0.00273673)
(0.00232505 -0.00164764 0.0032361)
(0.00192877 -0.00146453 0.00458511)
(0.000320274 -0.00177179 0.000427402)
(0.00162521 -0.00170261 0.000837836)
(0.00180095 -0.00153373 0.00179)
(0.00245883 -0.00147071 0.00240081)
(0.00203375 -0.00131296 0.00381405)
(0.000331993 -0.000409479 -4.65375e-05)
(0.00169428 -0.000397996 0.000416839)
(0.00188602 -0.000350746 0.0014321)
(0.0025459 -0.000320721 0.00209161)
(0.00209209 -0.000271624 0.00359143)
(0.000340231 -0.00308161 0.00162389)
(0.00186743 -0.00296098 0.00194746)
(0.00209931 -0.00284693 0.00294128)
(0.00293324 -0.00267724 0.00346255)
(0.00246803 -0.00251916 0.00488067)
(0.000448995 -0.00398645 -0.000444687)
(0.00209263 -0.00380762 -5.32893e-06)
(0.00237157 -0.00355291 0.00111149)
(0.00324654 -0.0033239 0.001805)
(0.00262611 -0.00300962 0.00344389)
(0.000508003 -0.00296984 -0.00151286)
(0.00230079 -0.00283818 -0.000965206)
(0.00258273 -0.00266238 0.000269638)
(0.00347653 -0.00245002 0.00109958)
(0.0027968 -0.0021794 0.00291087)
(0.000568944 -0.0026263 -0.00291772)
(0.00240015 -0.00248971 -0.00227231)
(0.00275973 -0.00239079 -0.000982067)
(0.00372981 -0.00218116 -3.30824e-05)
(0.00290817 -0.00196164 0.0018993)
(0.00063197 -0.000721238 -0.00368614)
(0.0025363 -0.000659355 -0.0029447)
(0.00289122 -0.000598241 -0.00155445)
(0.00390585 -0.000540716 -0.000498833)
(0.00302572 -0.000435081 0.00155288)
(0.000526351 -0.00429333 0.00236624)
(0.00255306 -0.00411534 0.00293202)
(0.00291532 -0.00388073 0.00437753)
(0.00391858 -0.0036173 0.00518484)
(0.00317665 -0.00323578 0.00730508)
(0.000688245 -0.00574622 -0.000667176)
(0.00295038 -0.00543686 0.000155766)
(0.00339422 -0.00505995 0.001766)
(0.00453991 -0.00463271 0.00292973)
(0.00355817 -0.00401046 0.00515724)
(0.000823304 -0.00442137 -0.00267831)
(0.00323902 -0.00413152 -0.00156086)
(0.00371891 -0.00381071 0.000289838)
(0.00496806 -0.0034856 0.0017607)
(0.00382251 -0.00300892 0.00434297)
(0.000963954 -0.0039453 -0.00502538)
(0.00356108 -0.00368233 -0.00362571)
(0.00404014 -0.00335812 -0.0015893)
(0.00534226 -0.00306934 0.00012321)
(0.00405397 -0.00267104 0.00286833)
(0.00107077 -0.00118569 -0.0067837)
(0.0038262 -0.00107739 -0.0050395)
(0.00433186 -0.000936227 -0.00272259)
(0.00565546 -0.000800148 -0.000713587)
(0.00423604 -0.000640812 0.00228929)
(0.00091333 -0.00625054 0.00040624)
(0.00387868 -0.00586462 0.0012444)
(0.00435176 -0.00557836 0.00315263)
(0.005863 -0.00503935 0.0043279)
(0.00468663 -0.00476575 0.0071629)
(0.00127382 -0.00903401 -0.0038046)
(0.00452585 -0.00830325 -0.00251619)
(0.00514505 -0.0076431 -0.000385137)
(0.00663991 -0.00675019 0.00131061)
(0.00496023 -0.00597396 0.00429947)
(0.00162709 -0.00732775 -0.00697538)
(0.00526909 -0.00661934 -0.00523173)
(0.00590391 -0.00601729 -0.00257121)
(0.00753215 -0.00525605 -0.000399071)
(0.00549853 -0.00446793 0.0031133)
(0.00196278 -0.00673183 -0.0103685)
(0.00583631 -0.00596844 -0.0081296)
(0.00650833 -0.00540338 -0.00525907)
(0.00819017 -0.00465549 -0.00256088)
(0.00578028 -0.00401528 0.00117094)
(0.00236874 -0.00249571 -0.013094)
(0.00659754 -0.00209241 -0.0104086)
(0.00721686 -0.00175927 -0.0070293)
(0.00892073 -0.00140662 -0.00387378)
(0.00616362 -0.00104976 0.000319116)
(0.0013759 -0.00869319 0.000454608)
(0.00529965 -0.00804987 0.00200942)
(0.00599806 -0.00758063 0.00482153)
(0.00793114 -0.00677853 0.00684107)
(0.00614275 -0.00623075 0.0105184)
(0.0019776 -0.0131323 -0.00589094)
(0.00637 -0.0119171 -0.00336243)
(0.00722061 -0.0107875 -0.000287326)
(0.00922732 -0.0093625 0.00265151)
(0.00669051 -0.00806235 0.00679245)
(0.0025689 -0.0109855 -0.0124306)
(0.00764359 -0.00974488 -0.00854888)
(0.00855139 -0.00868446 -0.00438875)
(0.0106563 -0.00735668 -0.000286916)
(0.00749662 -0.00613667 0.00476693)
(0.00319305 -0.0100648 -0.0182985)
(0.00867092 -0.00885958 -0.0131092)
(0.00960881 -0.00781661 -0.00860597)
(0.0117764 -0.00654421 -0.00341547)
(0.00795928 -0.00546544 0.00190291)
(0.00375081 -0.0039324 -0.0257962)
(0.00989173 -0.00336788 -0.0183044)
(0.0108669 -0.00274176 -0.0124956)
(0.0130084 -0.00214236 -0.00594584)
(0.00861754 -0.00155067 0.000336284)
(0.00248016 -0.0128868 -0.00060715)
(0.00824568 -0.0114954 0.0013849)
(0.0091826 -0.0109261 0.00482244)
(0.0115645 -0.00943435 0.00736062)
(0.00854423 -0.00867261 0.0119011)
(0.0038037 -0.0219249 -0.0095334)
(0.0101289 -0.0188664 -0.00586371)
(0.0111577 -0.0168583 -0.00182559)
(0.0137237 -0.0138822 0.00219047)
(0.00930597 -0.0117301 0.00732317)
(0.00551166 -0.0197356 -0.0190367)
(0.0133106 -0.0163654 -0.0133776)
(0.0141648 -0.0143349 -0.00760904)
(0.0166928 -0.0113217 -0.00183954)
(0.0107905 -0.00935666 0.00478864)
(0.0071397 -0.0200976 -0.028169)
(0.0155284 -0.0157235 -0.0199323)
(0.0162014 -0.0135099 -0.0134135)
(0.0187039 -0.0103139 -0.00591872)
(0.0113569 -0.00844601 0.00129823)
(0.00985007 -0.0100347 -0.0388626)
(0.0198983 -0.0073393 -0.0282574)
(0.0195757 -0.00570793 -0.0191061)
(0.0217583 -0.00399484 -0.0096328)
(0.0127357 -0.00268438 -0.000677793)
(0.00338505 -0.0180383 -0.000827815)
(0.0107294 -0.0156583 0.00313801)
(0.0119719 -0.0145552 0.00782234)
(0.0150137 -0.0122161 0.0118948)
(0.0109109 -0.0110369 0.0175791)
(0.00564633 -0.0315695 -0.0144609)
(0.0140769 -0.0266861 -0.00705348)
(0.0152737 -0.0232257 -0.00159916)
(0.0183805 -0.0185671 0.00539887)
(0.01209 -0.0151787 0.0118166)
(0.00823414 -0.0296273 -0.035641)
(0.0190707 -0.0238156 -0.0218079)
(0.0200895 -0.0202724 -0.0125405)
(0.0230606 -0.0154648 -0.00158195)
(0.0144509 -0.0121597 0.00774519)
(0.0114111 -0.0298892 -0.0527857)
(0.0234251 -0.0237382 -0.0322723)
(0.0236245 -0.0193131 -0.0219227)
(0.0264946 -0.0143366 -0.00713212)
(0.0155355 -0.0109321 0.00296449)
(0.0143696 -0.0147048 -0.0897102)
(0.0296467 -0.0116939 -0.0527937)
(0.0294978 -0.0085036 -0.0357555)
(0.0314443 -0.00587947 -0.0145112)
(0.0179914 -0.00361685 -0.0010137)
(0.00646971 -0.0271614 0.00122501)
(0.0168956 -0.0222081 0.0058308)
(0.0179374 -0.0208173 0.0113089)
(0.0213291 -0.0162877 0.0157541)
(0.0145375 -0.0147451 0.0220794)
(0.0112125 -0.0567428 -0.0168529)
(0.022987 -0.0438158 -0.00634898)
(0.0236089 -0.0372282 0.000254593)
(0.027144 -0.0273636 0.00855403)
(0.0160801 -0.0215719 0.0156961)
(0.0193624 -0.0580797 -0.0451367)
(0.0364045 -0.0415903 -0.0260883)
(0.0343914 -0.0346589 -0.0133888)
(0.0369854 -0.0238515 0.000256666)
(0.0205863 -0.0182067 0.0112889)
(0.0276565 -0.0741582 -0.0754162)
(0.046375 -0.0466928 -0.040795)
(0.0413477 -0.0367184 -0.0261549)
(0.0435944 -0.0232394 -0.00640271)
(0.0219736 -0.0172047 0.0057147)
(0.0468809 -0.0471687 -0.123109)
(0.0738442 -0.0280896 -0.0755956)
(0.0578774 -0.0197074 -0.0451881)
(0.0565046 -0.0115078 -0.0169652)
(0.0268728 -0.00678064 0.00121436)
(0.00802171 -0.0370337 0.00529994)
(0.0208092 -0.028543 0.0129417)
(0.021889 -0.0262197 0.0195595)
(0.0257873 -0.019847 0.0257939)
(0.0176009 -0.0177856 0.0323186)
(0.0161444 -0.0779161 -0.0202329)
(0.0311754 -0.0586031 -0.00214497)
(0.0301805 -0.0479289 0.00596121)
(0.0338229 -0.0340655 0.0182857)
(0.0196622 -0.0259725 0.0256832)
(0.02733 -0.0882411 -0.0794765)
(0.0507854 -0.0582921 -0.0371747)
(0.0464434 -0.0466908 -0.0170361)
(0.0477436 -0.0304253 0.00601631)
(0.0260932 -0.0221349 0.0194702)
(0.0461677 -0.107599 -0.139221)
(0.0726049 -0.073165 -0.0623392)
(0.058047 -0.05108 -0.0373783)
(0.0583619 -0.0315497 -0.00223576)
(0.0283576 -0.0210027 0.0126972)
(0.0627065 -0.0635462 -0.337286)
(0.107304 -0.0466548 -0.139392)
(0.0881787 -0.0278034 -0.0797612)
(0.0778318 -0.0164301 -0.0202505)
(0.0370897 -0.00832681 0.00505501)
(0.0141594 -0.0540734 0.016969)
(0.0311503 -0.0382335 0.0248213)
(0.0307867 -0.0352204 0.0312595)
(0.0340942 -0.0243092 0.0356883)
(0.0215151 -0.0218348 0.0411235)
(0.0293482 -0.141467 -0.0120199)
(0.0491536 -0.0939153 0.0127546)
(0.0440574 -0.0738256 0.0191097)
(0.0468642 -0.0471395 0.0305892)
(0.0239896 -0.0344265 0.035603)
(0.0619534 -0.177208 -0.0909276)
(0.0987391 -0.101824 -0.0285234)
(0.0776157 -0.0780318 -0.00425734)
(0.073493 -0.0443905 0.0191825)
(0.0348437 -0.0311897 0.0312913)
(0.105744 -0.333255 -0.218077)
(0.147972 -0.148668 -0.052712)
(0.101489 -0.0993395 -0.028721)
(0.0936524 -0.0494785 0.0127613)
(0.0378437 -0.0316154 0.0246232)
(0.251043 -0.251768 -0.477101)
(0.332651 -0.107346 -0.21823)
(0.177162 -0.062712 -0.0908032)
(0.141268 -0.0298204 -0.012003)
(0.0535534 -0.0146533 0.0171601)
(0.0159258 -0.0678183 0.0472256)
(0.0350753 -0.0416958 0.051567)
(0.0327523 -0.0392568 0.0557143)
(0.0356466 -0.0254582 0.0575018)
(0.023482 -0.0237524 0.0591957)
(0.0410631 -0.185537 0.0241848)
(0.0622008 -0.111879 0.0441658)
(0.0480378 -0.0834167 0.0478236)
(0.0503027 -0.050558 0.0559513)
(0.0251876 -0.0358004 0.057406)
(0.0908706 -0.295733 -0.0541313)
(0.137043 -0.123546 0.000427194)
(0.0941993 -0.0945736 0.0302991)
(0.0832633 -0.0482766 0.0479396)
(0.0390898 -0.0331111 0.0556616)
(0.226921 -0.646577 -0.31311)
(0.26357 -0.264497 -0.0615535)
(0.123303 -0.137218 0.000105918)
(0.111639 -0.0626325 0.0441902)
(0.0413051 -0.0351105 0.0513586)
(0.317798 -0.531925 -1.20388)
(0.646938 -0.228262 -0.313656)
(0.295832 -0.09184 -0.054945)
(0.18552 -0.0412635 0.0245469)
(0.0680538 -0.0163989 0.0469918)
(0.0186407 -0.0793324 0.0886325)
(0.0396097 -0.0467497 0.080728)
(0.0367429 -0.0440297 0.0779838)
(0.0375782 -0.0263231 0.0711286)
(0.0236029 -0.0240194 0.0684275)
(0.0498014 -0.239678 0.11048)
(0.07247 -0.144726 0.0958067)
(0.0558508 -0.0991851 0.0865767)
(0.0564303 -0.056685 0.0784638)
(0.0259064 -0.0379635 0.0710671)
(0.119712 -0.370864 0.143499)
(0.181234 -0.166906 0.117285)
(0.125037 -0.125662 0.103452)
(0.0987999 -0.0561594 0.086743)
(0.0434828 -0.0372581 0.07812)
(0.221026 -1.07134 -0.0345227)
(0.339325 -0.44466 0.162155)
(0.166308 -0.182628 0.117047)
(0.144574 -0.0725498 0.0960115)
(0.0461257 -0.0402558 0.080582)
(0.539246 -2.93411 -1.73072)
(1.11552 -0.66485 -0.202115)
(0.369481 -0.121861 0.14433)
(0.240046 -0.0499336 0.111011)
(0.0782129 -0.0193864 0.0891761)
(0.00808168 -0.047389 0.149912)
(0.024417 -0.0272356 0.128708)
(0.0231665 -0.0312137 0.115156)
(0.026081 -0.0182775 0.100297)
(0.020902 -0.021235 0.0899434)
(0.0270517 -0.119859 0.189517)
(0.0380458 -0.0741686 0.15775)
(0.0307789 -0.0579768 0.139263)
(0.0348268 -0.0349768 0.114585)
(0.0179443 -0.0260987 0.100315)
(0.0646452 -0.155785 0.373332)
(0.0887011 -0.0709433 0.256815)
(0.0626397 -0.0631009 0.194194)
(0.0579592 -0.0308094 0.139202)
(0.031018 -0.0236106 0.115246)
(0.109225 -0.688498 0.683975)
(0.189038 -0.246412 0.4375)
(0.0705282 -0.0880547 0.257276)
(0.0740229 -0.038113 0.157627)
(0.0264933 -0.02404 0.128854)
(-0.0355679 0.00141895 -7.66771)
(0.754117 -0.471617 0.987411)
(0.155578 -0.0653618 0.374961)
(0.119567 -0.026553 0.189178)
(0.0476528 -0.00861133 0.150361)
(-0.00242471 -0.0397087 0.13139)
(0.00490555 -0.017506 0.114569)
(0.00835131 -0.0196545 0.103705)
(0.0124309 -0.0117242 0.0899007)
(0.0129766 -0.0133765 0.0793294)
(0.0184323 -0.0130767 0.155998)
(0.0228137 -0.0189457 0.135491)
(0.0128828 -0.0204464 0.124734)
(0.0175457 -0.0178455 0.103745)
(0.0113235 -0.0127251 0.090041)
(0.000481404 -0.0602492 0.272291)
(-0.00178183 0.0023864 0.200077)
(0.0097194 -0.00995739 0.168067)
(0.020153 -0.0133189 0.124708)
(0.019262 -0.00873952 0.103873)
(-0.0369267 0.0539575 0.213409)
(-0.0555972 0.0550784 0.230124)
(-0.00216996 0.00201907 0.200221)
(0.018527 -0.0231898 0.135406)
(0.0171573 -0.00519393 0.114992)
(-0.391757 1.0029 -5.7748)
(-0.415655 0.32929 0.0806446)
(0.0611969 -0.000264108 0.272386)
(0.0122902 -0.0188831 0.155824)
(0.0394016 0.00215146 0.13165)
(-0.00863307 -0.0208233 0.126086)
(-0.00322885 -0.00487726 0.119729)
(-0.0014653 -0.00893679 0.112624)
(0.00171431 -0.00361772 0.103699)
(0.00971178 -0.00990511 0.0930155)
(0.00663406 0.0213041 0.167122)
(0.00781126 0.00787322 0.146763)
(-0.000769001 0.00597776 0.133507)
(0.000288866 -0.00032322 0.119424)
(0.00342422 -0.00156265 0.103742)
(-0.0182291 -0.0504719 0.170313)
(-0.0190301 -0.000654037 0.163303)
(-0.00953023 0.00920274 0.153391)
(-0.00582446 0.000655682 0.133577)
(0.00893696 0.00130259 0.112584)
(-0.0248428 0.205441 -0.297066)
(-0.00915186 0.0100467 0.091325)
(0.000930957 0.0198533 0.162981)
(-0.00772 -0.00804531 0.147077)
(0.00464587 0.00370946 0.119749)
(0.0181908 -0.070665 -4.23017)
(-0.0735527 0.0363745 -0.570311)
(0.0519825 0.0176949 0.169389)
(-0.0214541 -0.00647385 0.167665)
(0.0215662 0.00845479 0.125795)
(-0.00883287 0.00520082 0.0993792)
(-0.00866813 0.0118997 0.0908928)
(-0.00776349 0.00314235 0.0794965)
(-0.00720659 0.00518796 0.071393)
(0.00141875 -0.00177797 0.0595994)
(-0.00308933 0.0373308 0.162539)
(-0.0112289 0.0237942 0.134396)
(-0.0145961 0.0204569 0.108743)
(-0.012171 0.0119842 0.0909098)
(-0.00554755 0.00687059 0.0716693)
(-0.0225768 0.026357 0.220535)
(-0.0270918 0.0362338 0.181972)
(-0.0194572 0.0189432 0.136086)
(-0.0207909 0.0144703 0.10861)
(-0.00365482 0.00735375 0.0796587)
(0.0595697 -0.202718 0.12047)
(0.0266506 -0.156881 0.333127)
(-0.0368656 0.0263337 0.182853)
(-0.0238729 0.0113187 0.134557)
(-0.0125452 0.00812202 0.0916263)
(0.303024 -0.699924 -6.09652)
(0.382761 -0.528438 0.225357)
(-0.0285624 0.0214372 0.220304)
(-0.0374707 0.00342334 0.162828)
(-0.00635356 0.00836947 0.0995049)
(-0.0166699 0.0461135 0.120962)
(-0.0229477 0.0414584 0.112158)
(-0.0209081 0.0222538 0.101198)
(-0.0181588 0.0173374 0.0933718)
(-0.00291834 0.00300043 0.0826766)
(-0.0217374 0.150291 0.163836)
(-0.0459581 0.0992282 0.140133)
(-0.0442776 0.0625592 0.124943)
(-0.0369041 0.0370159 0.108179)
(-0.0172554 0.018475 0.0935757)
(-0.0654665 0.240693 0.240628)
(-0.110553 0.161158 0.195253)
(-0.0834155 0.0838283 0.152914)
(-0.062246 0.0443301 0.124681)
(-0.0219676 0.0212063 0.101397)