/*--------------------------------*- C++ -*----------------------------------*\
| =========                 |                                                 |
| \\      /  F ield         | OpenFOAM: The Open Source CFD Toolbox           |
|  \\    /   O peration     | Version:  5.x                                   |
|   \\  /    A nd           | Web:      www.OpenFOAM.org                      |
|    \\/     M anipulation  |                                                 |
\*---------------------------------------------------------------------------*/
FoamFile
{
    version     2.0;
    format      ascii;
    class       volScalarField;
    location    "0.081";
    object      interFace;
}
// * * * * * * * * * * * * * * * * * * * * * * * * * * * * * * * * * * * * * //

dimensions      [0 0 0 0 0 0 0];

internalField   nonuniform List<scalar> 
1567
(
0
0
0
0
0
0
0
0
0
0
0
0
0
0
0
0
0
0
0
0
0
0
0
0
0
0
0
0
0
0
0
0
0
0
0
0
0
0
0
0
0
0
0
0
0
0
0
0
0
0
0
0
0
0
0
0
0
0
0
0
0
0
0
0
0
0
0
0
0
0
0
0
0
0
0
0
0
0
0
0
0
0
0
0
0
0
0
0
0
0
0
0
0
0
0
0
0
0
0
0
0
0
0
0
0
0
0
0
0
0
0
0
0
0
0
0
0
0
0
0
0
0
0
0
0
0
0
0
0
0
0
0
0
0
0
0
0
0
0
0
0
0
0
0
0
0
0
0
0
0
0
0
0
0
0
0
0
0
0
0
0
0
0
0
0
0
0
0
0
0
0
0
0
0
0
0
0
0
0
0
0
0
0
0
0
0
0
0
0
0
0
0
0
0
0
0
0
0
0
0
0
0
0
0
0
0
0
0
0
0
0
0
0
0
0
0
0
0
0
0
0
0
0
0
0
0
0
0
0
0
0
0
0
0
0
0
0
0
0
0
0
0
0
0
0
0
0
0
0
0
0
0
0
0
0
0
0
0
0
0
0
0
0
0
0
0
0
0
0
0
0
0
0
0
0
0
0
0
0
0
0
0
0
0
0
0
0
0
0
0
0
0
0
0
0
0
0
0
0
0
0
0
0
0
0
0
0
0
0
0
0
0
0
0
0
0
0
0
0
0
0
0
0
0
0
0
0
0
0
0
0
0
0
0
0
0
0
0
0
0
0
0
0
0
0
0
0
0
0
0
0
0
0
0
0
0
0
0
0
0
0
0
0
0
0
0
0
0
0
0
0
0
0
0
0
0
0
0
0
0
0
0
0
0
0
0
0
0
0
0
0
0
0
0
0
0
0
0
0
0
0
0
0
0
0
0
0
0
0
0
0
0
0
0
0
0
0
0
0
0
0
0
0
0
0
0
0
0
0
0
0
0
0
0
0
0
0
0
0
0
0
0
0
0
0
0
0
0
0
0
0
0
0
0
0
0
0
0
0
0
0
0
0
0
0
0
0
0
0
0
0
0
0
0
0
0
0
0
0
0
0
0
0
0
0
0
0
0
0
0
0
0
0
0
0
0
0
0
0
0
0
0
0
0
0
0
0
0
0
0
0
0
0
0
0
0
0
0
0
0
0
0
0
0
0
0
0
0
0
0
0
0
0
0
0
0
0
0
0
0
0
0
0
0
0
0
0
0
0
0
0
0
0
0
0
0
0
0
0
0
0
0
0
0
0
0
0
0
0
0
0
0
0
0
0
0
0
0
0
0
0
0
0
0
0
0
0
0
0
0
0
0
0
0
0
0
0
0
0
0
0
0
0
0
0
0
0
0
0
0
0
0
0
0
0
0
0
0
0
0
0
0
0
0
0
0
0
0
0
0
0
0
0
0
0
0
0
0
0
0
0
0
0
0
0
0
0
0
0
0
0
0
0
0
0
0
0
0
0
0
0
0
0
0
0
0
0
0
0
0
0
0
0
0
0.828452
0
0
0
0
0
0
0
0
0
0
0
0
0
0
0
0
0
0
0
0
0
0
0
0
0.553415
0
0
0
0
0
0
0
0
0
0
0
0
0
0
0
0
0
0
0
0
0
0
0
0
0.955596
0
0
0
0
0
0
0
0
0
0
0
0
0
0
0
0
0
0
0
0
0
0
0
0
0.858365
0
0
0
0
0
0
0
0
0
0
0
0
0
0
0
0
0
0
0
0
0
0
0
0
0.571443
0
0
0
0
0
0
0
0
0
0
0
0
0
0
0
0
0
0
0
0
0
0
0
0
0.74942
0
0
0
0
0
0
0
0
0
0
0
0
0
0
0
0
0
0
0
0
0
0
0
0
0
0
0
0
0
0
0
0
0
0
0
0
0
0
0
0
0
0
0
0
0
0
0
0
0
0
0
0
0
0
0
0
0
0
0
0
0
0
0
0
0
0
0
0
0
0
0
0
0
0
0
0
0
0
0
0
0
0
0
0
0
0
0
0
0
0
0
0
0
0
0
0
0
0
0
0
0
0
0
0
0
0
0
0
0
0
0
0
0
0
0
0
0
0
0
0
0
0
0
0
0
0
0
0
0
0
0
0
0
0
0
0
0
0
0
0
0
0
0
0
0
0
0
0
0
0
0
0
0
0
0
0
0
0
0
0
0
0
0
0
0
0
0
0
0
0
0
0
0
0
0
0
0
0
0
0
0
0
0
0
0
0
0
0
0
0
0
0
0
0
0
0
0
0
0
0
0.302665
0.302672
0.0338934
0.637695
0.368917
0.368924
0.100145
0.480642
0.480649
0.21187
0
0.90002
0.900024
0.720839
0.841816
0.841823
0.573045
0.639
0.370222
0.370229
0.101451
0.726796
0.7268
0.458089
0
0
0
0.993677
0
0
0
0
0
0
0
0
0
0
0
0
0
0
0
0
0.85575
0
0
0
0
0
0
0.85576
0
0
0
0
0.284705
0.284709
0.0159981
0.817753
0.549042
0.549046
0.280336
0.770162
0.502838
0.502839
0.680664
0.547587
0.725412
0.725413
0.85973
0.771546
0.592407
0.94937
0.637156
0.99412
0.814981
0.859732
0.771548
0.592409
0.949374
0.637158
0.994122
0.814983
0.457958
0.25664
0.256643
0.368416
0.301413
0.413186
0.413188
0.547549
0.525414
0.346231
0.637187
0.391003
0.68196
0.502776
0.547551
0.525419
0.346236
0.637194
0.391005
0.681964
0.502781
0.325084
0.325085
0.369834
0.236901
0.147403
0.192151
0.192152
0
0.732625
0.463915
0
0
0.958508
0.728252
0.732626
0
0.46392
0
0.958511
0
0.728257
0.593792
0.414653
0.459403
0.326469
0.416109
0.460859
0.28172
0.593795
0.414656
0.459404
0.326471
0.416113
0.460861
0.281722
0.637141
0.615007
0.615009
0.905966
0.480596
0.771552
0.771555
0.683362
0.683363
0.548973
0.41604
0.68482
0.550429
0.55043
0.122783
0.0332409
0.144915
0.144918
0.189688
0.0780107
0.0780131
0
0.750674
0.481896
0
0
0.816926
0.548148
0.750677
0
0.481906
0
0.816929
0
0.548158
0.212373
0.302012
0.413689
0.234506
0.346784
0.279278
0.167601
0.212376
0.302019
0.413694
0.23451
0.346789
0.27928
0.167606
0.559742
0.559746
0.291035
0.554944
0.286233
0.286237
0.0175266
0.148788
0.0607464
0.0607477
0.0592901
0.105496
0.104038
0.10404
0.238357
0.329454
0.150315
0.327997
0.195065
0.372746
0.193607
0.238358
0.329457
0.150318
0.328001
0.195066
0.372749
0.19361
0.773002
0.952283
0.997032
0.595319
0.640069
0.864099
0.81935
0.773006
0.952289
0.997038
0.595324
0.640073
0.864104
0.819356
0.301966
0.57079
0.503282
0.503284
0.436377
0.436379
0.368871
0.327927
0.419024
0.419026
0.596707
0.284635
0.462316
0.462318
0
0
0
0
0
0
0
0.100699
0.0786633
0.0786657
0.0111569
0.123436
0.0559267
0.0559291
0.190289
0.347437
0.168254
0.279928
0.213026
0.3247
0.145517
0.190292
0.347442
0.168258
0.279935
0.213028
0.324705
0.145522
0.481244
0.7722
0.59292
0.526016
0.816972
0.750068
0.705296
0.481253
0.592927
0.772212
0.526023
0.816982
0.750077
0.705307
0.0622749
0.0622762
0.107025
0.153374
0.0638756
0.108624
0.108625
0
0.967679
0.788539
0
0
0.734154
0.465443
0.967682
0
0.788544
0
0.734155
0
0.465448
0.508664
0.507207
0.551956
0.775987
0.687945
0.732695
0.731237
0.508668
0.507212
0.55196
0.775992
0.687952
0.7327
0.731244
0.330983
0.151844
0.196593
0.242942
0.332582
0.377332
0.198193
0.330985
0.151846
0.196595
0.242944
0.332586
0.377334
0.198195
0.279882
0.43703
0.437032
0.548706
0.302619
0.414293
0.414295
0.420553
0.420554
0.286164
0.332513
0.601293
0.466902
0.466903
0
0
0
0
0
0
0
0.750022
0
0.682513
0.615609
0.906565
0.839661
0.974074
0.750024
0
0.682518
0.615613
0.906572
0.839668
0.974079
0.14622
0.146223
0.190993
0.30337
0.213828
0.258598
0.2586
0.598234
0.775917
0.641526
0.865557
0.956655
0.822265
0.999948
0.598237
0.775918
0.641529
0.865561
0.956658
0.822269
0.99995
0
0
0
0
0
0.902432
0.549453
0
0
0
0
0.902437
0
0.549463
0.414994
0.235811
0.280583
0.392961
0.482599
0.527372
0.348188
0.414999
0.235816
0.280585
0.392963
0.482606
0.527376
0.348193
0.705948
0.526668
0.45916
0.75072
0.503932
0.727984
0.683212
0.526675
0.70596
0.459169
0.75073
0.503939
0.727993
0.683223
0
0
0
0.970881
0.791741
0.791743
0.471846
0.244543
0.335784
0.335785
0.155045
0.380533
0.199794
0.199795
0.504587
0.504589
0.370176
0.482553
0.751378
0.616964
0.616967
0.334112
0.604492
0.425352
0.423752
0.470102
0.468501
0.289362
0.334113
0.604494
0.425355
0.423756
0.470103
0.468504
0.289365
0.510193
0.689474
0.734223
0.511792
0.556542
0.780572
0.735823
0.510197
0.68948
0.734228
0.511797
0.556546
0.780577
0.735829
0.423682
0.694062
0.694063
0.692462
0.559672
0.558072
0.558073
0.974726
0.616261
0.727938
0.840313
0.593525
0.817577
0.95199
0.974731
0.616266
0.72794
0.84032
0.593529
0.817584
0.951995
0.460568
0.617815
0.617817
0.371026
0.662587
0.415796
0.415799
0
0
0
0
0
0
0
0.599763
0.958184
0.823793
0.780503
0.646112
0.870142
0
0.599765
0.958187
0.823797
0.780504
0.646115
0.870146
0
0.550159
0.886588
0.707405
0.639797
0.752177
0.68457
0.505387
0.550161
0.886593
0.70741
0.639805
0.75218
0.684574
0.505391
0.773505
0.594225
0.818277
0.661831
0.706603
0.930655
0.885883
0.594233
0.773517
0.818287
0.66184
0.70661
0.930665
0.885895
0.516594
0.516596
0.561344
0.786975
0.697477
0.742226
0.742227
)
;

boundaryField
{
    inlet
    {
        type            calculated;
        value           uniform 0;
    }
    wall
    {
        type            calculated;
        value           uniform 0;
    }
    outlet
    {
        type            calculated;
        value           uniform 0;
    }
    procBoundary0to1
    {
        type            processor;
        value           uniform 0;
    }
    procBoundary0to2
    {
        type            processor;
        value           uniform 0;
    }
}


// ************************************************************************* //
