/*--------------------------------*- C++ -*----------------------------------*\
| =========                 |                                                 |
| \\      /  F ield         | OpenFOAM: The Open Source CFD Toolbox           |
|  \\    /   O peration     | Version:  5.x                                   |
|   \\  /    A nd           | Web:      www.OpenFOAM.org                      |
|    \\/     M anipulation  |                                                 |
\*---------------------------------------------------------------------------*/
FoamFile
{
    version     2.0;
    format      ascii;
    class       surfaceScalarField;
    location    "0.081";
    object      phi;
}
// * * * * * * * * * * * * * * * * * * * * * * * * * * * * * * * * * * * * * //

dimensions      [0 3 -1 0 0 0 0];

internalField   nonuniform List<scalar> 
4339
(
-3.648e-07
-3.66364e-07
7.54168e-08
-2.99777e-07
-4.01421e-07
2.14442e-08
-2.62022e-07
-4.17864e-07
4.97462e-08
-1.68082e-07
-4.41169e-07
-3.41955e-10
-4.51352e-07
1.08697e-08
-3.99829e-07
-3.01339e-07
2.11167e-08
-3.4585e-07
-3.47419e-07
-1.07925e-07
-2.9268e-07
-3.65258e-07
-1.05718e-07
-1.90729e-07
-3.87932e-07
-1.55127e-07
-3.9861e-07
-1.45703e-07
-4.16276e-07
-2.63596e-07
4.94354e-08
-3.6369e-07
-2.94259e-07
-1.05688e-07
-3.04918e-07
-3.06497e-07
-1.17479e-07
-1.99692e-07
-3.25179e-07
-1.67921e-07
-3.34559e-07
-1.59125e-07
-4.39578e-07
-1.69595e-07
-7.25125e-10
-3.8636e-07
-1.92243e-07
-1.55173e-07
-3.23599e-07
-2.012e-07
-1.68001e-07
-2.15206e-07
-2.16725e-07
-2.16789e-07
-2.24954e-07
-2.07412e-07
-4.49768e-07
1.0581e-08
-3.97043e-07
-1.45651e-07
-3.32989e-07
-1.59116e-07
-2.23432e-07
-2.07313e-07
-1.97066e-07
-1.51431e-07
-1.51552e-07
1.64191e-07
-1.70227e-07
-8.72329e-08
6.48227e-08
-1.60961e-07
-6.62234e-08
5.7651e-08
-1.37796e-07
-4.84925e-08
-1.08516e-08
-4.24877e-08
-1.6386e-08
-8.71027e-08
-1.70567e-07
6.46899e-08
-1.18149e-07
-1.18495e-07
-4.55408e-08
-1.33628e-07
-1.00451e-07
-5.5937e-08
-1.22214e-07
-8.58049e-08
-1.29151e-07
-8.13229e-08
-1.36678e-07
-6.60955e-08
-1.61482e-07
5.74994e-08
-1.00104e-07
-1.34151e-07
-5.59499e-08
-1.24928e-07
-1.25452e-07
-6.75822e-08
-1.1848e-07
-1.17799e-07
-1.42301e-07
-1.16754e-07
-1.50345e-07
-4.83688e-08
-1.3844e-07
-1.11323e-08
-8.5465e-08
-1.2286e-07
-1.29291e-07
-1.17282e-07
-1.1913e-07
-1.4243e-07
-1.15258e-07
-1.15906e-07
-2.20626e-07
-1.17154e-07
-2.30211e-07
-4.23552e-08
-1.66878e-08
-8.09688e-08
-1.36836e-07
-1.16228e-07
-1.50493e-07
-1.16497e-07
-2.30228e-07
-2.4038e-07
-3.3025e-07
-3.31527e-07
2.73279e-07
-3.01943e-07
-3.54491e-07
9.70925e-08
-2.67049e-07
-3.61942e-07
8.51749e-08
-1.76425e-07
-3.78145e-07
-3.47015e-08
-3.85272e-07
-4.2034e-08
-3.53214e-07
-3.03303e-07
9.68131e-08
-3.248e-07
-3.26159e-07
-1.02222e-07
-2.87078e-07
-3.33909e-07
-1.21629e-07
-1.93477e-07
-3.50803e-07
-2.50031e-07
-3.58719e-07
-2.60971e-07
-3.60663e-07
-2.68483e-07
8.48674e-08
-3.32549e-07
-2.88509e-07
-1.21651e-07
-2.94176e-07
-2.95607e-07
-1.44199e-07
-1.99841e-07
-3.1195e-07
-2.75429e-07
-3.201e-07
-2.87541e-07
-3.76865e-07
-1.77872e-07
-3.51982e-08
-3.49443e-07
-1.94919e-07
-2.5024e-07
-3.10521e-07
-2.01281e-07
-2.75619e-07
-2.14749e-07
-2.16188e-07
-4.12101e-07
-2.24091e-07
-4.26492e-07
-3.83989e-07
-4.25558e-08
-3.57355e-07
-2.61202e-07
-3.18664e-07
-2.87753e-07
-2.22649e-07
-4.26515e-07
-4.4175e-07
-3.20077e-07
-3.20696e-07
3.84e-07
-3.04293e-07
-3.09558e-07
1.33927e-07
-2.71576e-07
-3.06744e-07
1.0401e-07
-1.93014e-07
-3.04799e-07
-6.20476e-08
-3.05376e-07
-8.09806e-08
-3.0894e-07
-3.05038e-07
1.33694e-07
-2.96133e-07
-2.96873e-07
-1.27656e-07
-2.68614e-07
-2.94955e-07
-1.60884e-07
-1.92961e-07
-2.94982e-07
-3.35452e-07
-2.9663e-07
-3.57737e-07
-3.06121e-07
-2.72408e-07
1.0371e-07
-2.94209e-07
-2.69438e-07
-1.60945e-07
-2.68642e-07
-2.6947e-07
-1.95203e-07
-1.94235e-07
-2.72227e-07
-3.72548e-07
-2.7536e-07
-3.95917e-07
-3.04177e-07
-1.93916e-07
-6.25509e-08
-2.94242e-07
-1.93845e-07
-3.35718e-07
-2.71405e-07
-1.95127e-07
-3.72756e-07
-1.98703e-07
-1.99584e-07
-5.57408e-07
-2.0379e-07
-5.8395e-07
-3.04745e-07
-8.15972e-08
-2.9588e-07
-3.58104e-07
-2.74529e-07
-3.96225e-07
-2.02902e-07
-5.84041e-07
-6.11927e-07
-4.79355e-07
-4.80644e-07
5.32299e-07
-4.37476e-07
-5.01626e-07
1.71515e-07
-3.80046e-07
-5.07999e-07
1.27445e-07
-2.42209e-07
-5.26e-07
-1.1426e-07
-5.33729e-07
-1.40806e-07
-5.0034e-07
-4.38883e-07
1.71192e-07
-4.59566e-07
-4.60968e-07
-2.09039e-07
-4.01551e-07
-4.6798e-07
-2.58876e-07
-2.61215e-07
-4.87411e-07
-5.14345e-07
-4.96246e-07
-5.46034e-07
-5.06707e-07
-3.81539e-07
1.27021e-07
-4.66574e-07
-4.03037e-07
-2.58968e-07
-4.08791e-07
-4.1028e-07
-3.10655e-07
-2.68133e-07
-4.30195e-07
-5.70399e-07
-4.39819e-07
-6.03757e-07
-5.24709e-07
-2.43738e-07
-1.14936e-07
-4.86008e-07
-2.62732e-07
-5.14689e-07
-4.28712e-07
-2.6965e-07
-5.70658e-07
-2.86689e-07
-2.88196e-07
-8.41421e-07
-2.97949e-07
-8.79286e-07
-5.32428e-07
-1.41645e-07
-4.94834e-07
-5.46522e-07
-4.38325e-07
-6.0416e-07
-2.96434e-07
-8.79416e-07
-9.19185e-07
-6.21698e-07
-6.22724e-07
7.29675e-07
-5.67267e-07
-6.36038e-07
2.19027e-07
-4.88305e-07
-6.40617e-07
1.51152e-07
-3.10027e-07
-6.54012e-07
-1.86308e-07
-6.60515e-07
-2.27445e-07
-6.35016e-07
-5.6842e-07
2.18693e-07
-5.82542e-07
-5.83685e-07
-3.13823e-07
-5.04323e-07
-5.89082e-07
-3.88596e-07
-3.2482e-07
-6.04561e-07
-7.43276e-07
-6.12368e-07
-7.90978e-07
-6.39586e-07
-4.8953e-07
1.50661e-07
-5.87931e-07
-5.05533e-07
-3.88741e-07
-5.10382e-07
-5.116e-07
-4.65664e-07
-3.30882e-07
-5.28381e-07
-8.26071e-07
-5.37357e-07
-8.75943e-07
-6.52983e-07
-3.11302e-07
-1.87071e-07
-6.03418e-07
-3.26077e-07
-7.43689e-07
-5.27174e-07
-3.32144e-07
-8.26349e-07
-3.47232e-07
-3.48476e-07
-1.20128e-06
-3.57952e-07
-1.25724e-06
-6.59468e-07
-2.28463e-07
-6.11205e-07
-7.91621e-07
-5.36132e-07
-8.76449e-07
-3.56694e-07
-1.25745e-06
-1.31604e-06
-8.48425e-07
-8.49944e-07
9.87579e-07
-7.66321e-07
-8.85979e-07
2.74469e-07
-6.51192e-07
-8.96299e-07
1.755e-07
-3.93313e-07
-9.27154e-07
-2.96838e-07
-9.39249e-07
-3.55061e-07
-8.84466e-07
-7.68007e-07
2.74059e-07
-8.04137e-07
-8.05806e-07
-4.74278e-07
-6.87625e-07
-8.17101e-07
-5.84271e-07
-4.24004e-07
-8.50172e-07
-1.08385e-06
-8.63929e-07
-1.15188e-06
-8.9477e-07
-6.52972e-07
1.74858e-07
-8.15419e-07
-6.89382e-07
-5.84481e-07
-6.99173e-07
-7.00942e-07
-6.98046e-07
-4.34631e-07
-7.34441e-07
-1.20633e-06
-7.49368e-07
-1.27764e-06
-9.25628e-07
-3.95145e-07
-2.97789e-07
-8.48502e-07
-4.25805e-07
-1.08437e-06
-7.3269e-07
-4.36437e-07
-1.20666e-06
-4.64686e-07
-4.66467e-07
-1.73727e-06
-4.8134e-07
-1.8173e-06
-9.37692e-07
-3.56382e-07
-8.62229e-07
-1.15272e-06
-7.47588e-07
-1.27829e-06
-4.7954e-07
-1.81759e-06
-1.90131e-06
-1.19641e-06
-1.19789e-06
1.36315e-06
-1.07861e-06
-1.23992e-06
3.54576e-07
-9.08715e-07
-1.25367e-06
2.06049e-07
-5.389e-07
-1.28933e-06
-4.56959e-07
-1.30446e-06
-5.43369e-07
-1.23846e-06
-1.08027e-06
3.5413e-07
-1.12369e-06
-1.12533e-06
-7.03594e-07
-9.51462e-07
-1.14028e-06
-8.69834e-07
-5.74981e-07
-1.17928e-06
-1.57034e-06
-1.19642e-06
-1.67149e-06
-1.25218e-06
-9.10465e-07
2.05259e-07
-1.13862e-06
-9.53178e-07
-8.70143e-07
-9.66412e-07
-9.68144e-07
-1.04235e-06
-5.88161e-07
-1.00724e-06
-1.75659e-06
-1.02562e-06
-1.86275e-06
-1.28784e-06
-5.40714e-07
-4.58069e-07
-1.17763e-06
-5.7675e-07
-1.57096e-06
-1.00554e-06
-5.89939e-07
-1.75693e-06
-6.23512e-07
-6.25251e-07
-2.50125e-06
-6.43223e-07
-2.62004e-06
-1.30293e-06
-5.45021e-07
-1.19473e-06
-1.67259e-06
-1.02388e-06
-1.86357e-06
-6.41454e-07
-2.62046e-06
-2.74449e-06
-1.60491e-06
-1.60688e-06
1.8559e-06
-1.44238e-06
-1.68581e-06
4.56917e-07
-1.205e-06
-1.70838e-06
2.3782e-07
-6.95215e-07
-1.77302e-06
-6.81373e-07
-1.79622e-06
-8.07089e-07
-1.68386e-06
-1.44461e-06
4.5639e-07
-1.52415e-06
-1.52633e-06
-1.02274e-06
-1.28105e-06
-1.5505e-06
-1.27076e-06
-7.54754e-07
-1.61862e-06
-2.25099e-06
-1.64453e-06
-2.39964e-06
-1.70639e-06
-1.20735e-06
2.3679e-07
-1.54828e-06
-1.28333e-06
-1.2712e-06
-1.30446e-06
-1.30678e-06
-1.52983e-06
-7.74536e-07
-1.37365e-06
-2.53143e-06
-1.40083e-06
-2.68842e-06
-1.77104e-06
-6.97643e-07
-6.82742e-07
-1.61644e-06
-7.57094e-07
-2.25175e-06
-1.37139e-06
-7.76893e-07
-2.5318e-06
-8.30735e-07
-8.33021e-07
-3.58245e-06
-8.5863e-07
-3.75855e-06
-1.79415e-06
-8.09253e-07
-1.64226e-06
-2.40109e-06
-1.39849e-06
-2.68947e-06
-8.5629e-07
-3.75912e-06
-3.94313e-06
-2.32673e-06
-2.3288e-06
2.601e-06
-2.09522e-06
-2.42857e-06
6.22962e-07
-1.74082e-06
-2.46471e-06
2.88229e-07
-9.89891e-07
-2.54445e-06
-1.00616e-06
-2.57806e-06
-1.19701e-06
-2.42652e-06
-2.09763e-06
6.22377e-07
-2.20207e-06
-2.20443e-06
-1.4713e-06
-1.83769e-06
-2.2427e-06
-1.85711e-06
-1.06707e-06
-2.32916e-06
-3.23685e-06
-2.36601e-06
-3.46567e-06
-2.46261e-06
-1.74336e-06
2.86917e-07
-2.24031e-06
-1.84013e-06
-1.85775e-06
-1.87362e-06
-1.87611e-06
-2.26306e-06
-1.09535e-06
-1.95848e-06
-3.6803e-06
-1.99572e-06
-3.92353e-06
-2.54235e-06
-9.9253e-07
-1.00782e-06
-2.3268e-06
-1.06959e-06
-3.2378e-06
-1.95605e-06
-1.09789e-06
-3.68069e-06
-1.16594e-06
-1.16839e-06
-5.16252e-06
-1.20208e-06
-5.43507e-06
-2.57586e-06
-1.19982e-06
-2.36356e-06
-3.4676e-06
-1.9932e-06
-3.92489e-06
-1.19956e-06
-5.4359e-06
-5.72101e-06
-3.10995e-06
-3.11266e-06
3.59095e-06
-2.80264e-06
-3.30028e-06
8.5573e-07
-2.31451e-06
-3.35871e-06
3.52813e-07
-1.29451e-06
-3.50712e-06
-1.43586e-06
-3.55934e-06
-1.72284e-06
-3.29763e-06
-2.80583e-06
8.55044e-07
-2.99715e-06
-3.0002e-06
-2.07184e-06
-2.49026e-06
-3.06199e-06
-2.66072e-06
-1.42292e-06
-3.21758e-06
-4.5937e-06
-3.27493e-06
-4.94422e-06
-3.35593e-06
-2.31786e-06
3.51065e-07
-3.05883e-06
-2.49343e-06
-2.66161e-06
-2.54658e-06
-2.54986e-06
-3.28741e-06
-1.46598e-06
-2.69874e-06
-5.27968e-06
-2.75622e-06
-5.65682e-06
-3.50437e-06
-1.29801e-06
-1.43792e-06
-3.21452e-06
-1.42618e-06
-4.59488e-06
-2.69561e-06
-1.46929e-06
-5.2801e-06
-1.58254e-06
-1.58566e-06
-7.38854e-06
-1.63499e-06
-7.81623e-06
-3.55636e-06
-1.7266e-06
-3.27166e-06
-4.94679e-06
-2.75288e-06
-5.65863e-06
-1.63173e-06
-7.81736e-06
-8.26741e-06
-4.57458e-06
-4.57755e-06
5.12736e-06
-4.14961e-06
-4.81396e-06
1.26376e-06
-3.4184e-06
-4.91783e-06
4.78077e-07
-1.90033e-06
-5.09705e-06
-2.04506e-06
-5.17988e-06
-2.49613e-06
-4.81104e-06
-4.15322e-06
1.26298e-06
-4.40749e-06
-4.41096e-06
-2.87842e-06
-3.64257e-06
-4.52049e-06
-3.823e-06
-2.06967e-06
-4.71651e-06
-6.54715e-06
-4.8054e-06
-7.10927e-06
-4.91479e-06
-3.42224e-06
4.75784e-07
-4.51691e-06
-3.64619e-06
-3.82428e-06
-3.74072e-06
-3.74444e-06
-4.83966e-06
-2.13913e-06
-3.91975e-06
-7.67801e-06
-4.00265e-06
-8.292e-06
-5.09401e-06
-1.90436e-06
-2.04764e-06
-4.71303e-06
-2.07339e-06
-6.54867e-06
-3.91618e-06
-2.14291e-06
-7.67846e-06
-2.28103e-06
-2.28456e-06
-1.06588e-05
-2.35326e-06
-1.13493e-05
-5.17658e-06
-2.50119e-06
-4.80169e-06
-7.1128e-06
-3.99883e-06
-8.29447e-06
-2.34955e-06
-1.13509e-05
-1.20842e-05
-6.10418e-06
-6.10812e-06
7.21024e-06
-5.56932e-06
-6.5733e-06
1.89041e-06
-4.57118e-06
-6.74605e-06
6.86096e-07
-2.51916e-06
-7.10732e-06
-2.79587e-06
-7.24788e-06
-3.49493e-06
-6.56953e-06
-5.57418e-06
1.88949e-06
-6.06194e-06
-6.06644e-06
-3.8929e-06
-5.0091e-06
-6.24889e-06
-5.37303e-06
-2.82487e-06
-6.63496e-06
-9.20377e-06
-6.78973e-06
-1.01053e-05
-6.74192e-06
-4.57635e-06
6.82987e-07
-6.2441e-06
-5.01379e-06
-5.37478e-06
-5.16697e-06
-5.17193e-06
-6.99376e-06
-2.93583e-06
-5.54143e-06
-1.10027e-05
-5.6918e-06
-1.20037e-05
-7.10331e-06
-2.52465e-06
-2.79912e-06
-6.63043e-06
-2.82971e-06
-9.20566e-06
-5.53686e-06
-2.94083e-06
-1.10031e-05
-3.21101e-06
-3.2155e-06
-1.53105e-05
-3.32909e-06
-1.64795e-05
-7.24323e-06
-3.50186e-06
-6.78464e-06
-1.011e-05
-5.68669e-06
-1.2007e-05
-3.32421e-06
-1.64817e-05
-1.77331e-05
-9.08478e-06
-9.08922e-06
1.0538e-05
-8.39033e-06
-9.67355e-06
3.04548e-06
-6.8925e-06
-1.00044e-05
1.12713e-06
-3.81219e-06
-1.04325e-05
-3.78875e-06
-1.0669e-05
-4.92636e-06
-9.66926e-06
-8.39606e-06
3.0444e-06
-9.05267e-06
-9.058e-06
-5.12505e-06
-7.44879e-06
-9.41658e-06
-7.56476e-06
-4.21201e-06
-9.89389e-06
-1.29791e-05
-1.01473e-05
-1.44767e-05
-9.99981e-06
-6.8987e-06
1.12298e-06
-9.41096e-06
-7.45441e-06
-7.56722e-06
-7.76408e-06
-7.77001e-06
-1.02872e-05
-4.42258e-06
-8.15646e-06
-1.60816e-05
-8.3723e-06
-1.77975e-05
-1.04278e-05
-3.81877e-06
-3.793e-06
-9.88852e-06
-4.21776e-06
-1.29816e-05
-8.15096e-06
-4.42852e-06
-1.60821e-05
-4.71408e-06
-4.71931e-06
-2.21845e-05
-4.89547e-06
-2.41133e-05
-1.06637e-05
-4.93593e-06
-1.01413e-05
-1.44832e-05
-8.3661e-06
-1.78023e-05
-4.88976e-06
-2.41162e-05
-2.6263e-05
-1.21384e-05
-1.21445e-05
1.52351e-05
-1.1387e-05
-1.33465e-05
5.00556e-06
-9.36258e-06
-1.39384e-05
2.01526e-06
-5.17107e-06
-1.48703e-05
-4.78701e-06
-1.53314e-05
-6.58848e-06
-1.33409e-05
-1.13948e-05
5.00423e-06
-1.27297e-05
-1.27366e-05
-6.34614e-06
-1.05512e-05
-1.33866e-05
-1.0295e-05
-5.99297e-06
-1.44534e-05
-1.79541e-05
-1.49911e-05
-2.04705e-05
-1.3932e-05
-9.37104e-06
2.00958e-06
-1.33789e-05
-1.05586e-05
-1.02983e-05
-1.10906e-05
-1.10986e-05
-1.48633e-05
-6.35584e-06
-1.21459e-05
-2.31238e-05
-1.26648e-05
-2.60876e-05
-1.48642e-05
-5.18029e-06
-4.79229e-06
-1.44464e-05
-6.00061e-06
-1.79573e-05
-1.21389e-05
-6.36393e-06
-2.31243e-05
-7.1526e-06
-7.1594e-06
-3.21573e-05
-7.57024e-06
-3.57583e-05
-1.53237e-05
-6.60171e-06
-1.49827e-05
-2.04792e-05
-1.26564e-05
-2.60942e-05
-7.56249e-06
-3.57625e-05
-4.00112e-05
-1.82659e-05
-1.8273e-05
2.29862e-05
-1.74988e-05
-1.9886e-05
8.78743e-06
-1.44598e-05
-2.11325e-05
4.01959e-06
-8.09188e-06
-2.23749e-05
-5.51278e-06
-2.32378e-05
-8.45385e-06
-1.98793e-05
-1.75083e-05
8.78565e-06
-1.94879e-05
-1.94965e-05
-7.12703e-06
-1.61856e-05
-2.1085e-05
-1.36447e-05
-9.31764e-06
-2.26506e-05
-2.45463e-05
-2.37414e-05
-2.88482e-05
-2.1125e-05
-1.44704e-05
4.01199e-06
-2.10758e-05
-1.61946e-05
-1.36493e-05
-1.79229e-05
-1.79313e-05
-2.11698e-05
-1.06255e-05
-1.96844e-05
-3.33874e-05
-2.10687e-05
-3.88902e-05
-2.23675e-05
-8.10327e-06
-5.51977e-06
-2.26421e-05
-9.32686e-06
-2.45505e-05
-1.96756e-05
-1.06338e-05
-3.33883e-05
-1.19416e-05
-1.19501e-05
-4.76255e-05
-1.34955e-05
-5.44865e-05
-2.32286e-05
-8.47233e-06
-2.37318e-05
-2.88601e-05
-2.10569e-05
-3.89003e-05
-1.3485e-05
-5.44925e-05
-6.50172e-05
-2.4296e-05
-2.43059e-05
3.399e-05
-2.42099e-05
-2.78309e-05
1.57568e-05
-2.04695e-05
-3.03897e-05
8.61714e-06
-1.17771e-05
-3.31628e-05
-4.6373e-06
-3.53074e-05
-9.4861e-06
-2.78221e-05
-2.42226e-05
1.57535e-05
-2.86424e-05
-2.86539e-05
-5.48366e-06
-2.52831e-05
-3.1707e-05
-1.56867e-05
-1.51323e-05
-3.7125e-05
-3.07349e-05
-4.09306e-05
-3.79938e-05
-3.03794e-05
-2.0483e-05
8.60665e-06
-3.16952e-05
-2.5295e-05
-1.56924e-05
-2.82744e-05
-2.82896e-05
-2.80079e-05
-1.76486e-05
-3.53905e-05
-4.57476e-05
-3.91585e-05
-5.78352e-05
-3.31536e-05
-1.17916e-05
-4.64649e-06
-3.71134e-05
-1.51456e-05
-3.074e-05
-3.53764e-05
-1.76665e-05
-4.57483e-05
-2.227e-05
-2.22848e-05
-7.38377e-05
-2.38924e-05
-9.10771e-05
-3.5294e-05
-9.51055e-06
-4.09174e-05
-3.80091e-05
-3.91408e-05
-5.78583e-05
-2.3875e-05
-9.10883e-05
-0.000110686
-3.49531e-05
-3.49661e-05
4.86793e-05
-3.60371e-05
-4.0642e-05
2.76891e-05
-3.14564e-05
-4.55486e-05
1.74738e-05
-1.91274e-05
-5.03782e-05
-4.09587e-07
-5.61665e-05
-7.77875e-06
-4.06301e-05
-3.60524e-05
2.76811e-05
-4.329e-05
-4.33045e-05
-1.61295e-07
-3.88758e-05
-5.01783e-05
-1.54711e-05
-2.39417e-05
-5.94243e-05
-3.66229e-05
-6.39896e-05
-5.35641e-05
-4.55367e-05
-3.14749e-05
1.74615e-05
-5.01657e-05
-3.88912e-05
-1.54766e-05
-4.61771e-05
-4.61976e-05
-3.59773e-05
-2.78687e-05
-4.95223e-05
-7.39581e-05
-5.19805e-05
-9.70553e-05
-5.03651e-05
-1.91512e-05
-4.1895e-07
-5.94081e-05
-2.39591e-05
-3.66292e-05
-4.95067e-05
-2.78877e-05
-7.39597e-05
-2.97428e-05
-2.97553e-05
-0.000113369
-3.16641e-05
-0.000140063
-5.61549e-05
-7.81044e-06
-6.39675e-05
-5.35986e-05
-5.19594e-05
-9.70839e-05
-3.16481e-05
-0.000140076
-0.000171592
-4.45668e-05
-4.45878e-05
6.70779e-05
-4.59583e-05
-5.30224e-05
4.25123e-05
-4.02662e-05
-6.21254e-05
3.0202e-05
-2.40018e-05
-6.95985e-05
6.2032e-06
-7.61203e-05
-5.8626e-06
-5.30044e-05
-4.59747e-05
4.24876e-05
-5.78342e-05
-5.78492e-05
9.49526e-06
-5.26726e-05
-6.89995e-05
-1.37587e-05
-3.24912e-05
-7.48646e-05
-5.15382e-05
-8.13656e-05
-8.05337e-05
-6.2106e-05
-4.0293e-05
3.01915e-05
-6.89847e-05
-5.26815e-05
-1.37658e-05
-5.76564e-05
-5.76742e-05
-5.86309e-05
-3.59027e-05
-6.26812e-05
-0.000107895
-6.92475e-05
-0.000144722
-6.95847e-05
-2.40306e-05
6.19092e-06
-7.48466e-05
-3.24979e-05
-5.15509e-05
-6.26648e-05
-3.5919e-05
-0.000107897
-4.06623e-05
-4.06763e-05
-0.000157376
-4.59489e-05
-0.000203139
-7.60963e-05
-5.8973e-06
-8.13379e-05
-8.05635e-05
-6.92237e-05
-0.000144748
-4.59294e-05
-0.000203152
-0.00026142
-6.63794e-05
-6.63917e-05
9.69998e-05
-6.62411e-05
-7.37035e-05
6.05717e-05
-5.4054e-05
-8.56966e-05
4.14639e-05
-3.27992e-05
-9.66538e-05
1.44811e-05
-0.000106762
-4.41527e-06
-7.3694e-05
-6.62666e-05
6.05586e-05
-7.99486e-05
-7.99654e-05
2.20116e-05
-6.99015e-05
-9.5626e-05
-1.38764e-05
-4.29771e-05
-0.000106089
-6.90271e-05
-0.00011831
-0.000111371
-8.56776e-05
-5.40847e-05
4.1452e-05
-9.56048e-05
-6.99196e-05
-1.38843e-05
-8.17154e-05
-8.17427e-05
-8.64037e-05
-5.19394e-05
-9.18439e-05
-0.000151917
-0.000103796
-0.000210483
-9.66383e-05
-3.28305e-05
1.44646e-05
-0.000106072
-4.2994e-05
-6.90425e-05
-9.18279e-05
-5.19638e-05
-0.00015192
-6.02484e-05
-6.02587e-05
-0.000220541
-6.82013e-05
-0.000297658
-0.000106733
-4.46032e-06
-0.000118285
-0.000111402
-0.000103764
-0.00021052
-6.81812e-05
-0.00029767
-0.000394757
-9.0913e-05
-9.09345e-05
0.000143978
-9.55458e-05
-0.000103811
9.50753e-05
-8.11075e-05
-0.00012252
6.42498e-05
-4.88918e-05
-0.0001339
2.57336e-05
-0.000154863
-4.85882e-07
-0.000103793
-9.55802e-05
9.50676e-05
-0.000113481
-0.00011351
4.13994e-05
-9.86443e-05
-0.000140583
-1.06502e-05
-6.56269e-05
-0.000159812
-7.61326e-05
-0.000189326
-0.000142288
-0.000122495
-8.11495e-05
6.42357e-05
-0.000140551
-9.86765e-05
-1.06625e-05
-0.000126378
-0.000126415
-0.000114745
-8.7519e-05
-0.000146829
-0.000203758
-0.000180247
-0.000306793
-0.000133876
-4.894e-05
2.57143e-05
-0.000159781
-6.56617e-05
-7.61519e-05
-0.000146798
-8.75543e-05
-0.000203764
-0.000105728
-0.000105756
-0.000302684
-0.000132647
-0.000449858
-0.00015483
-5.35437e-07
-0.000189288
-0.000142324
-0.000180211
-0.000306837
-0.000132616
-0.000449874
-0.000657716
-0.000124939
-0.000124964
0.000210009
-0.000134208
-0.000146257
0.000148583
-0.000116336
-0.00017867
0.000103953
-7.2323e-05
-0.000200365
5.11186e-05
-0.000235354
1.21762e-05
-0.000146239
-0.00013424
0.000148575
-0.000165175
-0.000165198
7.92777e-05
-0.000147906
-0.000211608
5.01762e-06
-0.00010042
-0.000246927
-7.70562e-05
-0.000298111
-0.000179258
-0.000178638
-0.000116381
0.000103942
-0.000211577
-0.000147935
5.01286e-06
-0.000196375
-0.000196424
-0.000145131
-0.000137438
-0.000236272
-0.000273349
-0.000294341
-0.000447167
-0.000200345
-7.23689e-05
5.10939e-05
-0.000246903
-0.000100443
-7.70857e-05
-0.000236252
-0.000137478
-0.000273362
-0.000174048
-0.000174058
-0.000427102
-0.00022326
-0.000693164
-0.000235311
1.21431e-05
-0.000298078
-0.000179294
-0.000294285
-0.000447226
-0.000223237
-0.000693173
-0.00109963
-0.000165878
-0.000165912
0.000308003
-0.00019183
-0.00019829
0.000245057
-0.000175112
-0.000264247
0.000187938
-0.000120165
-0.000297155
0.000119394
-0.000376148
5.44209e-05
-0.000198256
-0.000191882
0.000245051
-0.000244494
-0.000244544
0.00017177
-0.000223636
-0.000333621
5.35333e-05
-0.000164336
-0.000398878
-3.46319e-05
-0.000536237
-0.000183419
-0.000264213
-0.000175184
0.000187934
-0.00033357
-0.000223702
5.35279e-05
-0.000335253
-0.000335321
-0.000141748
-0.00026471
-0.000422378
-0.000320392
-0.000622013
-0.000626036
-0.000297115
-0.000120254
0.000119369
-0.000398823
-0.000164409
-3.46702e-05
-0.000422311
-0.00026478
-0.000320415
-0.000355137
-0.00035519
-0.000561463
-0.000570731
-0.0010982
-0.000376105
5.4377e-05
-0.000536186
-0.000183464
-0.000621949
-0.000626111
-0.000570687
-0.0010982
-0.00223878
-0.000215947
-0.00021598
0.000438409
-0.000251155
-0.000266997
0.000377355
-0.000236172
-0.000365999
0.000316103
-0.000166075
-0.000432402
0.000237024
-0.000567985
0.00014399
-0.000266971
-0.000251185
0.000377337
-0.000333886
-0.00033392
0.000305607
-0.000326604
-0.000486242
0.000166494
-0.000250646
-0.000608712
6.5721e-05
-0.000843016
-0.000158289
-0.000365962
-0.000236217
0.000316104
-0.000486206
-0.000326642
0.000166495
-0.000509341
-0.000509422
-9.54334e-05
-0.000410087
-0.00068575
-0.000342608
-0.0010119
-0.000866213
-0.000432382
-0.000166129
0.000236997
-0.000608677
-0.000250673
6.56556e-05
-0.00068574
-0.000410137
-0.000342637
-0.000615572
-0.00061555
-0.00070183
-0.000916749
-0.00180646
-0.000567933
0.000144004
-0.000842977
-0.000158342
-0.0010118
-0.00086627
-0.000916748
-0.0018064
-0.00406351
-0.000266647
-0.000266704
0.000618229
-0.000325774
-0.00033221
0.000575611
-0.000317775
-0.000511129
0.000539731
-0.000239768
-0.000618533
0.000475814
-0.000925647
0.000400225
-0.000332143
-0.00032585
0.000575585
-0.000447604
-0.000447701
0.00053656
-0.000469627
-0.000744054
0.000421441
-0.000409721
-0.000962462
0.000349744
-0.00155763
6.3686e-05
-0.000511085
-0.000317885
0.000539747
-0.000743972
-0.000469774
0.000421453
-0.000872788
-0.000872933
0.000162262
-0.000796802
-0.00123925
-0.00014181
-0.00247385
-0.000747192
-0.000618476
-0.000239868
0.000475756
-0.000962368
-0.000409883
0.000349657
-0.00123909
-0.000796973
-0.000141878
-0.00130916
-0.0013092
-0.00056181
-0.00286953
-0.00271834
-0.000925661
0.000400287
-0.00155758
6.37053e-05
-0.00247371
-0.000747307
-0.00286946
-0.00271813
-0.00189778
-0.00236701
-0.00236691
-0.00316961
-0.000302568
-0.000302595
0.000803802
-0.000366124
-0.000391743
0.000799544
-0.000371585
-0.000625516
0.000820585
-0.000284865
-0.000790601
0.000798349
-0.00127605
0.000799473
-0.000391709
-0.000366127
0.00079949
-0.000532455
-0.000532503
0.000818066
-0.00059486
-0.000930707
0.000789039
-0.000537222
-0.0013025
0.000804003
-0.00244352
0.000694752
-0.000625497
-0.000371582
0.000820594
-0.000930703
-0.000594889
0.000789046
-0.00121662
-0.00121665
0.000734122
-0.00119652
-0.00203793
0.000573523
-0.00470906
0.0003229
-0.000790601
-0.000284851
0.000798254
-0.00130245
-0.000537247
0.000803859
-0.00203803
-0.00119646
0.000573515
-0.00261586
-0.00261571
0.000126492
0.000180026
0.000180028
0.000107255
-0.00113807
-0.000314542
-0.00042503
-0.000758456
-0.00126371
-0.00124527
-0.00203015
-0.00286531
-0.00127606
0.000799587
-0.00244344
0.000694618
-0.00470897
0.000323045
-0.00113789
-0.00031469
-0.000758395
-0.000425172
-0.00126375
-0.00124517
-0.00203019
-0.00286518
-0.000847641
-0.000847949
-0.00247814
-0.000297052
-0.000297137
0.000999099
-0.000379037
-0.000385452
0.00105724
-0.000400762
-0.000683027
0.00117246
-0.000323875
-0.000903427
0.00125209
-0.00155824
0.00139427
-0.000385339
-0.000379159
0.00105719
-0.000557379
-0.000557557
0.00116221
-0.000656724
-0.00110854
0.0013139
-0.000637877
-0.00158724
0.00146897
-0.00314245
0.00164076
-0.000682968
-0.000400916
0.00117248
-0.00110839
-0.00065699
0.0013139
-0.00157405
-0.00157438
0.00166563
-0.00154974
-0.000800415
0.00207584
-0.000825058
-0.000723713
-0.000764692
-0.00164146
0.00269318
-0.00198112
-0.00155336
-0.00188507
-0.000903368
-0.000324037
0.001252
-0.00158708
-0.000638207
0.00146879
-0.000800301
-0.00155032
0.00207578
-0.000824975
-0.000723582
-0.000764556
-0.000925058
-0.000925036
0.00037587
-0.000720896
-0.00239834
0.000250262
0.000912978
-0.00155838
0.00139458
-0.00314212
0.00164057
-0.00164143
0.00269343
-0.00198146
-0.00155306
-0.00188496
-0.00239584
-0.000721565
0.000249278
0.000912003
0.00076998
0.000769399
0.000534712
-0.000823924
-0.000823915
-0.000426253
-0.000261601
-0.000261633
0.00110999
-0.000298136
-0.000327078
0.00122293
-0.000305809
-0.000549169
0.00139292
-0.000227184
-0.000677817
0.00152461
-0.00113405
0.00174423
-0.000326997
-0.000298123
0.00122282
-0.000436021
-0.00043614
0.0013803
-0.000496162
-0.000801217
0.00162609
-0.000489714
-0.00103556
0.00182027
-0.00207139
0.00208889
-0.000549174
-0.000305707
0.00139285
-0.000801314
-0.000496252
0.00162615
-0.00105969
-0.00105957
0.00218236
-0.00102931
-0.000517169
0.00267415
-0.000654794
-0.000270538
-0.000221735
-0.00122218
0.00364453
-0.00163657
-0.000487936
-0.000705747
-0.000677763
-0.000226963
0.00152426
-0.00103552
-0.000489819
0.00182011
-0.000517223
-0.00102894
0.00267372
-0.000654816
-0.000270374
-0.000221671
-0.000606412
-0.000605588
0.000832573
-0.000654965
-0.000544629
0.00126339
0.000703163
-0.000949206
-0.000325667
-0.000482599
-0.000512275
-0.000374353
-0.00113408
0.0017441
-0.00207126
0.00208878
-0.00122204
0.00364431
-0.00163723
-0.000487661
-0.000705615
-0.000544537
0.00126238
0.000702034
-0.000948511
-0.000325244
-0.000482201
-0.000512045
-0.000373916
0.000652104
0.000651657
-0.000190127
-0.000601176
-0.000601861
8.94018e-05
-0.000130292
-0.000130396
0.00113231
-0.000121803
-0.000125029
0.00125466
-9.41418e-05
-0.000194355
0.00140092
-4.67679e-05
-0.000147774
0.0015106
-0.000291007
0.00166838
-0.000124859
-0.000121973
0.00125457
-0.00014508
-0.000145413
0.0014209
-0.000179285
-0.000170964
0.0016369
-0.000243885
-6.18033e-05
0.0017989
-0.00051175
0.00206474
-0.000194313
-9.43203e-05
0.00140082
-0.00017071
-0.000179858
0.00163699
-0.000107364
-0.000107625
0.00205567
-0.000118316
0.000285507
0.00233779
4.30948e-05
0.00289014
-0.000279216
0.000174866
0.000185234
-0.000147757
-4.71371e-05
0.00151039
-6.16343e-05
-0.00024483
0.00179896
0.000285882
-0.000118899
0.00233748
-4.16544e-05
-4.16205e-05
0.00228547
0.000440111
-7.77238e-05
0.000613856
0.000440507
-7.84361e-05
0.000613425
-0.000784327
-0.000805532
-0.000805444
-0.00118724
-1.10802e-05
0.000465406
0.000385191
-0.000838077
-0.000291335
0.0016681
-0.000512032
0.00206509
4.3551e-05
0.00288989
-0.000279621
0.00017514
0.000184867
0.000465958
-1.13537e-05
0.000384432
-0.000837106
-0.00717953
-0.00131074
-0.00131121
0.000851339
0.000243499
0.000314743
0.000128899
0.000290985
0.000243162
0.000314593
0.000128732
0.000290877
0.00179999
0.00179961
0.00339505
-8.19395e-05
-8.21028e-05
0.00106215
-2.36433e-05
-8.63798e-05
0.00120318
1.13417e-05
-0.000112552
0.00130802
5.97789e-05
-0.000116631
0.0014356
-0.000200066
0.00154508
-8.62326e-05
-2.38161e-05
0.00120314
-7.66554e-05
-7.67929e-05
0.00140174
-0.000133602
-2.42536e-05
0.00160555
-0.000185686
-9.07837e-05
0.00182513
-0.000478985
0.00215824
-0.000112377
1.12229e-05
0.00130792
-2.40652e-05
-0.000133627
0.00160551
5.50588e-05
5.49034e-05
0.00189739
0.000148933
-0.000126567
0.0022797
0.000217719
0.00262711
0.000279226
-0.000142049
-0.000420968
-0.000116524
5.96877e-05
0.0014355
-9.0724e-05
-0.000185602
0.00182514
-0.000127078
0.000148966
0.00227977
-0.000104779
-0.000104285
0.000586097
0.00070554
0.000705525
0.000600352
0.000134911
0.00015713
-0.000471108
0.000135603
0.000157553
-0.000470714
0.000208208
-4.29175e-05
0.000374499
-0.000426849
-0.000199829
0.00154477
-0.000478359
0.00215811
0.000217762
0.00262677
0.000279181
-0.000142144
-0.000421148
0.000208422
0.000374077
-4.22956e-05
-0.000426726
0.00666887
-0.000462219
-0.000461756
-0.00203313
-0.00125226
-0.00155597
-0.00155589
-4.2219e-05
0.000158158
9.93306e-05
0.000110753
-4.21853e-05
0.000158219
9.94669e-05
0.000110835
3.14395e-05
3.123e-05
0.000957503
8.47223e-05
0.000136156
0.00108856
9.33229e-05
0.000181418
0.00117563
9.23355e-05
0.000317324
0.00131521
0.000368576
0.0014034
0.000136338
8.4485e-05
0.00108855
0.000198516
0.00019833
0.00127739
0.000206775
0.000300354
0.00147836
0.000120654
0.000550607
0.00167797
0.000665881
0.00198007
0.000181527
9.30724e-05
0.00117554
0.000300632
0.000206433
0.0014783
0.000360744
0.000360454
0.00177718
0.000348428
0.000112056
0.00225924
-8.08532e-05
0.000337211
0.000214969
0.000113738
0.00262387
-7.11904e-05
0.000508713
0.000468487
0.000317405
9.20164e-05
0.0013152
0.000550827
0.000120146
0.001678
0.000112154
0.00034796
0.00225942
-8.07942e-05
0.000337281
0.00021503
6.37434e-05
6.35971e-05
0.000682967
-7.57131e-05
0.000179485
1.436e-05
0.00027899
-6.51994e-05
-0.000149636
-6.04463e-05
-8.1015e-06
0.000368442
0.00140314
0.00066605
0.00197993
0.000113787
0.00262374
-7.11545e-05
0.000508779
0.000468537
-7.60827e-05
0.000179539
1.45784e-05
0.000278934
-6.51627e-05
-0.000149595
-6.03917e-05
-8.0322e-06
0.000917205
0.000237431
0.000237394
-0.000385956
-0.000386002
-0.000620072
9.66052e-05
9.63968e-05
0.000778633
0.000200418
0.000210871
0.000888815
0.00022739
0.000347005
0.000929648
0.000218016
0.000553546
0.00102484
0.000783356
0.00105421
0.000211086
0.000200201
0.000888837
0.000335171
0.000334985
0.00102919
0.000355779
0.000663332
0.00114142
0.000255234
0.00106686
0.0012652
0.00160787
0.00141101
0.00034724
0.00022717
0.000929592
0.000663557
0.000355594
0.00114138
0.000910563
0.000910358
0.00128315
0.000883059
0.00181345
0.00154015
0.000736061
0.00163096
0.000652379
0.000973949
0.00112255
0.000553788
0.000217802
0.00102486
0.00106707
0.000255078
0.00126524
0.00181375
0.000882859
0.00154023
0.000453082
0.000452961
0.00161223
0.00063657
0.000498859
0.00102448
0.000636536
0.000498764
0.0010244
-0.000645436
-0.000739728
-0.000739755
-0.00108576
0.00028502
0.00116964
7.37493e-05
-0.000339266
0.000783557
0.00105398
0.00160802
0.00141099
0.000736076
0.00163084
0.000652381
0.000973964
0.00112253
0.00116969
0.000284882
7.37883e-05
-0.000339328
0.000281382
-0.000334734
-0.000334748
0.000412699
0.000412664
-0.000437263
0.000168789
0.000168634
0.000606564
0.000257545
0.000356825
0.000681452
0.000283568
0.00054852
0.000669558
0.000234399
0.000872321
0.000719889
0.00122007
0.000686662
0.000357
0.000257376
0.000681495
0.000502322
0.000502137
0.000738554
0.000562043
0.000878746
0.000751475
0.000417423
0.00150867
0.000773476
0.00229634
0.000749089
0.000548684
0.000283376
0.000669532
0.000878945
0.000561832
0.000751423
0.00115928
0.00115907
0.000722483
0.0010714
0.0023767
0.000759994
0.00448976
0.00050617
0.000872462
0.000234182
0.00071998
0.00150887
0.000417134
0.000773531
0.00237699
0.00107109
0.00076009
0.00290499
0.0029047