/*--------------------------------*- C++ -*----------------------------------*\
| =========                 |                                                 |
| \\      /  F ield         | OpenFOAM: The Open Source CFD Toolbox           |
|  \\    /   O peration     | Version:  5.x                                   |
|   \\  /    A nd           | Web:      www.OpenFOAM.org                      |
|    \\/     M anipulation  |                                                 |
\*---------------------------------------------------------------------------*/
FoamFile
{
    version     2.0;
    format      ascii;
    class       volScalarField;
    location    "0.15";
    object      Ksl;
}
// * * * * * * * * * * * * * * * * * * * * * * * * * * * * * * * * * * * * * //

dimensions      [1 -3 -1 0 0 0 0];

internalField   nonuniform List<scalar> 
160
(
0.0299846
0.285863
0.208587
0.0142763
0.725335
2.4398
1.36279
0.22423
2.79557
3.15889
1.52842
1.22004
1.06199
1.27411
0.973915
0.109482
0.106668
0.0714349
0.0622932
0.00508546
0.000695404
0.000968993
0.00105941
0.00027117
1.16743e-05
1.53085e-05
1.71141e-05
5.23635e-06
0
0
0
0
0
0
0
0
0
0
0
0
0.285863
2.9777
3.96144
0.128353
2.4398
3.34568
1.57463
1.95925
3.15889
3.19683
1.51167
1.50991
1.27411
5.02448
1.86265
1.09826
0.0714349
0.135267
0.134245
0.110836
0.000968993
0.00170829
0.0016535
0.00315181
1.53085e-05
2.45131e-05
2.31981e-05
4.59316e-05
0
3.7523e-07
3.43676e-07
0
0
0
0
0
0
0
0
0
0.208587
3.96144
3.42658
0.149123
1.36279
1.57463
1.04472
1.17944
1.52842
1.51167
1.01046
1.01716
0.973915
1.86265
1.16422
0.800894
0.0622932
0.134245
0.140276
0.115585
0.00105941
0.0016535
0.00164992
0.00506793
1.71141e-05
2.31981e-05
2.29514e-05
9.28708e-05
0
3.43676e-07
3.26666e-07
0
0
0
0
0
0
0
0
0
0.0142763
0.128353
0.149123
0.0108227
0.22423
1.95925
1.17944
0.846816
1.22004
1.50991
1.01716
0.98466
0.109482
1.09826
0.800894
0.174977
0.00508546
0.110836
0.115585
0.00361036
0.00027117
0.00315181
0.00506793
7.0884e-05
5.23635e-06
4.59316e-05
9.28708e-05
0
0
0
0
0
0
0
0
0
0
0
0
0
)
;

boundaryField
{
    inlet
    {
        type            zeroGradient;
    }
    outlet
    {
        type            zeroGradient;
    }
    walls
    {
        type            zeroGradient;
    }
    procBoundary0to1
    {
        type            processor;
        value           uniform 0;
    }
}


// ************************************************************************* //
