/*--------------------------------*- C++ -*----------------------------------*\
| =========                 |                                                 |
| \\      /  F ield         | OpenFOAM: The Open Source CFD Toolbox           |
|  \\    /   O peration     | Version:  5.x                                   |
|   \\  /    A nd           | Web:      www.OpenFOAM.org                      |
|    \\/     M anipulation  |                                                 |
\*---------------------------------------------------------------------------*/
FoamFile
{
    version     2.0;
    format      ascii;
    class       surfaceScalarField;
    location    "0.15";
    object      phi;
}
// * * * * * * * * * * * * * * * * * * * * * * * * * * * * * * * * * * * * * //

dimensions      [0 3 -1 0 0 0 0];

internalField   nonuniform List<scalar> 
384
(
-1.00297e-11
3.96251e-11
-1.00297e-11
2.78061e-13
6.78374e-12
-7.40961e-11
5.6978e-12
1.76059e-11
-4.9342e-11
3.43299e-11
-2.89716e-11
-2.01019e-11
4.41927e-11
-2.01019e-11
-2.70313e-13
2.35339e-11
-2.73302e-10
1.3345e-11
2.95849e-11
-1.68108e-10
4.69858e-11
-7.95508e-11
-3.26325e-11
3.03121e-11
-3.26325e-11
8.75753e-13
-2.80895e-11
-6.61263e-10
2.93905e-11
8.14133e-12
-3.82066e-10
5.94073e-11
-1.408e-10
-1.01154e-11
7.06239e-12
-1.01154e-11
-1.1059e-13
-1.90572e-10
-5.5039e-10
2.09866e-11
-7.29781e-11
-3.25055e-10
4.38631e-11
-1.41828e-10
2.19953e-12
1.45991e-11
2.19953e-12
2.65336e-11
-2.64666e-10
-5.57786e-11
2.86256e-11
-1.20229e-10
-7.00673e-11
2.2042e-11
-6.19139e-11
-2.02151e-11
1.82513e-11
-2.02151e-11
2.69497e-11
-2.99978e-10
1.08021e-10
4.26464e-11
-1.39956e-10
2.78783e-11
2.84671e-11
-1.93815e-11
-1.77708e-11
1.47084e-11
-1.77708e-11
1.80645e-11
-3.15773e-10
1.47157e-10
3.62933e-11
-1.53955e-10
6.1421e-11
3.82585e-11
2.19218e-11
-1.9347e-12
1.14911e-11
-1.9347e-12
1.16555e-11
-3.00031e-10
2.2099e-10
1.82181e-11
-1.48948e-10
1.15566e-10
4.33657e-11
6.35374e-11
1.38466e-11
2.7214e-11
1.38466e-11
5.05325e-13
-2.19943e-10
3.07745e-10
5.86301e-12
-1.061e-10
1.53947e-10
4.42519e-11
9.90653e-11
5.27908e-11
5.27908e-11
-4.17375e-12
4.15844e-10
-3.99019e-11
2.85156e-10
1.39146e-10
-7.40961e-11
6.78374e-12
2.78061e-13
7.8029e-12
-4.79839e-10
7.8029e-12
3.71707e-11
-2.59762e-10
-1.08595e-12
-7.89375e-11
-4.56641e-12
-2.73302e-10
2.35339e-11
-2.70313e-13
4.60314e-11
-1.11851e-09
4.60314e-11
1.51014e-10
-5.38955e-10
6.10266e-12
-7.28996e-11
-7.80935e-12
-6.61263e-10
-2.80895e-11
8.75753e-13
1.62577e-10
-2.76619e-09
1.62577e-10
4.52149e-10
-1.24794e-09
3.73508e-11
-1.9169e-12
-7.88238e-12
-5.5039e-10
-1.90572e-10
-1.1059e-13
8.52115e-11
-4.03739e-09
8.52115e-11
4.05168e-10
-1.90487e-09
1.19154e-11
4.20959e-11
-1.29637e-11
-5.57786e-11
-2.64666e-10
2.65336e-11
-6.83178e-11
-4.01231e-09
-6.83178e-11
2.00936e-11
-2.04579e-09
-1.75601e-11
6.65617e-12
-2.94684e-11
1.08021e-10
-2.99978e-10
2.69497e-11
-4.05234e-11
-3.71522e-09
-4.05234e-11
-8.08152e-11
-1.97009e-09
-7.53337e-12
-3.45634e-11
-1.79218e-11
1.47157e-10
-3.15773e-10
1.80645e-11
-1.76129e-11
-3.38568e-09
-1.76129e-11
-6.54936e-11
-1.86517e-09
4.38454e-12
-5.80411e-11
3.21078e-12
2.2099e-10
-3.00031e-10
1.16555e-11
-2.17767e-11
-2.90015e-09
-2.17767e-11
-1.06629e-10
-1.66835e-09
3.60423e-12
-6.94462e-11
1.21283e-11
3.07745e-10
-2.19943e-10
5.05325e-13
-5.59961e-11
-2.17267e-09
-5.59961e-11
-1.69489e-10
-1.37425e-09
-2.6661e-11
-9.72265e-11
1.30254e-11
4.15844e-10
-4.17375e-12
-5.72447e-11
-5.72447e-11
-2.88875e-10
-7.9643e-12
1.80004e-11
-4.9342e-11
1.76059e-11
5.6978e-12
-1.08595e-12
-2.59762e-10
3.71707e-11
2.33583e-11
-1.71181e-10
2.33583e-11
-4.19953e-11
3.74493e-12
-1.68108e-10
2.95849e-11
1.3345e-11
6.10266e-12
-5.38955e-10
1.51014e-10
9.50609e-11
-3.49097e-10
9.50609e-11
-2.41831e-11
1.78347e-11
-3.82066e-10
8.14133e-12
2.93905e-11
3.73508e-11
-1.24794e-09
4.52149e-10
2.71212e-10
-8.1682e-10
2.71212e-10
2.31868e-11
4.09389e-11
-3.25055e-10
-7.29781e-11
2.09866e-11
1.19154e-11
-1.90487e-09
4.05168e-10
2.35961e-10
-1.26491e-09
2.35961e-10
3.81994e-11
3.69981e-11
-7.00673e-11
-1.20229e-10
2.86256e-11
-1.75601e-11
-2.04579e-09
2.00936e-11
3.78282e-11
-1.37569e-09
3.78282e-11
9.0778e-12
4.70676e-12
2.78783e-11
-1.39956e-10
4.26464e-11
-7.53337e-12
-1.97009e-09
-8.08152e-11
-2.44653e-11
-1.34182e-09
-2.44653e-11
-1.28934e-11
8.88186e-14
6.1421e-11
-1.53955e-10
3.62933e-11
4.38454e-12
-1.86517e-09
-6.54936e-11
-1.37346e-11
-1.30558e-09
-1.37346e-11
-2.6667e-11
6.77728e-12
1.15566e-10
-1.48948e-10
1.82181e-11
3.60423e-12
-1.66835e-09
-1.06629e-10
-4.19272e-11
-1.21452e-09
-4.19272e-11
-3.97903e-11
6.45557e-14
1.53947e-10
-1.061e-10
5.86301e-12
-2.6661e-11
-1.37425e-09
-1.69489e-10
-5.15173e-11
-1.16481e-09
-5.15173e-11
-8.23423e-11
-5.97473e-12
2.85156e-10
-3.99019e-11
-7.9643e-12
-2.88875e-10
-1.87277e-10
-1.87277e-10
-3.73429e-11
-2.89716e-11
3.43299e-11
-4.56641e-12
-7.89375e-11
3.74493e-12
-4.19953e-11
-2.46088e-11
-7.95508e-11
4.69858e-11
-7.80935e-12
-7.28996e-11
1.78347e-11
-2.41831e-11
-2.372e-12
-1.408e-10
5.94073e-11
-7.88238e-12
-1.9169e-12
4.09389e-11
2.31868e-11
4.01697e-11
-1.41828e-10
4.38631e-11
-1.29637e-11
4.20959e-11
3.69981e-11
3.81994e-11
8.23271e-11
-6.19139e-11
2.2042e-11
-2.94684e-11
6.65617e-12
4.70676e-12
9.0778e-12
1.11457e-10
-1.93815e-11
2.84671e-11
-1.79218e-11
-3.45634e-11
8.88186e-14
-1.28934e-11
1.20901e-10
2.19218e-11
3.82585e-11
3.21078e-12
-5.80411e-11
6.77728e-12
-2.6667e-11
1.16296e-10
6.35374e-11
4.33657e-11
1.21283e-11
-6.94462e-11
6.45557e-14
-3.97903e-11
9.7421e-11
9.90653e-11
4.42519e-11
1.30254e-11
-9.72265e-11
-5.97473e-12
-8.23423e-11
5.68204e-11
1.39146e-10
1.80004e-11
-3.73429e-11
)
;

boundaryField
{
    inlet
    {
        type            calculated;
        value           nonuniform 0();
    }
    outlet
    {
        type            calculated;
        value           nonuniform List<scalar> 
16
(
-3.57929e-11
-8.69505e-12
-1.55216e-11
-2.81388e-11
-8.69505e-12
3.16041e-10
1.82138e-10
7.38667e-11
-1.55216e-11
1.82138e-10
1.22292e-10
4.47482e-11
-2.81388e-11
7.38667e-11
4.47482e-11
3.12316e-11
)
;
    }
    walls
    {
        type            calculated;
        value           nonuniform List<scalar> 
160
(
8.11358e-12
1.78182e-11
3.95728e-11
2.17403e-11
-5.96789e-12
1.8389e-11
1.95423e-11
3.54332e-12
-2.1708e-11
-5.59998e-11
6.56996e-11
2.36721e-10
6.79378e-10
7.02867e-10
1.05538e-10
-1.19874e-10
-1.67197e-10
-2.50322e-10
-3.74492e-10
-4.71688e-10
4.1838e-11
1.42514e-10
3.74994e-10
3.85077e-10
1.15227e-10
-2.38488e-11
-6.56505e-11
-1.27135e-10
-2.02152e-10
-3.04445e-10
2.53553e-11
7.22026e-11
1.37007e-10
1.56654e-10
9.14297e-11
2.77451e-11
-2.18216e-11
-6.39273e-11
-1.07736e-10
-1.42773e-10
3.12312e-12
8.03721e-12
2.07613e-11
2.17047e-11
2.09309e-11
2.78577e-11
2.64017e-11
1.35007e-11
1.36473e-11
-2.62685e-11
1.78363e-11
7.3235e-11
2.48249e-10
2.32291e-10
2.30878e-11
-4.10554e-11
-2.3305e-11
-4.38152e-11
-5.56691e-11
-1.60111e-10
1.2294e-11
5.16046e-11
1.75021e-10
1.70986e-10
3.27746e-11
-2.05048e-11
-3.52751e-12
-1.674e-11
1.00348e-11
-1.22732e-10
4.33558e-13
6.71632e-12
1.96681e-11
1.59193e-11
-9.85818e-12
-4.63316e-12
9.07983e-12
9.50201e-12
1.43256e-11
-1.70257e-11
8.11358e-12
1.78182e-11
3.95728e-11
2.17403e-11
-5.96789e-12
1.8389e-11
1.95423e-11
3.54332e-12
-2.1708e-11
-5.59998e-11
6.56996e-11
2.36721e-10
6.79378e-10
7.02867e-10
1.05538e-10
-1.19874e-10
-1.67197e-10
-2.50322e-10
-3.74492e-10
-4.71688e-10
4.1838e-11
1.42514e-10
3.74994e-10
3.85077e-10
1.15227e-10
-2.38488e-11
-6.56505e-11
-1.27135e-10
-2.02152e-10
-3.04445e-10
2.53553e-11
7.22026e-11
1.37007e-10
1.56654e-10
9.14297e-11
2.77451e-11
-2.18216e-11
-6.39273e-11
-1.07736e-10
-1.42773e-10
3.12312e-12
8.03721e-12
2.07613e-11
2.17047e-11
2.09309e-11
2.78577e-11
2.64017e-11
1.35007e-11
1.36473e-11
-2.62685e-11
1.78363e-11
7.3235e-11
2.48249e-10
2.32291e-10
2.30878e-11
-4.10554e-11
-2.3305e-11
-4.38152e-11
-5.56691e-11
-1.60111e-10
1.2294e-11
5.16046e-11
1.75021e-10
1.70986e-10
3.27746e-11
-2.05048e-11
-3.52751e-12
-1.674e-11
1.00348e-11
-1.22732e-10
4.33558e-13
6.71632e-12
1.96681e-11
1.59193e-11
-9.85818e-12
-4.63316e-12
9.07983e-12
9.50201e-12
1.43256e-11
-1.70257e-11
)
;
    }
    procBoundary0to1
    {
        type            processor;
        value           nonuniform List<scalar> 
16
(
3.36318e-11
-1.07134e-10
-5.1083e-11
3.42452e-11
-1.07134e-10
-1.22649e-09
-8.49503e-10
-1.04845e-10
-5.1083e-11
-8.49503e-10
-8.06184e-10
-9.15442e-11
3.42452e-11
-1.04845e-10
-9.15442e-11
1.6186e-11
)
;
    }
}


// ************************************************************************* //
