/*--------------------------------*- C++ -*----------------------------------*\
| =========                 |                                                 |
| \\      /  F ield         | OpenFOAM: The Open Source CFD Toolbox           |
|  \\    /   O peration     | Version:  5.x                                   |
|   \\  /    A nd           | Web:      www.OpenFOAM.org                      |
|    \\/     M anipulation  |                                                 |
\*---------------------------------------------------------------------------*/
FoamFile
{
    version     2.0;
    format      ascii;
    class       volVectorField;
    location    "0.15";
    object      U;
}
// * * * * * * * * * * * * * * * * * * * * * * * * * * * * * * * * * * * * * //

dimensions      [0 1 -1 0 0 0 0];

internalField   nonuniform List<vector> 
160
(
(-1.38975e-06 5.75775e-06 -1.38975e-06)
(-1.01793e-06 1.49061e-06 -1.12146e-05)
(9.91008e-07 2.55632e-06 -7.11316e-06)
(5.52737e-07 4.56491e-06 -4.22673e-06)
(-3.05695e-06 6.18002e-06 -3.05695e-06)
(-2.57342e-06 1.41111e-06 -4.10029e-05)
(2.16243e-06 2.92603e-06 -2.44435e-05)
(1.43478e-06 5.71538e-06 -1.19896e-05)
(-6.12734e-06 6.27102e-06 -6.12734e-06)
(-4.48026e-06 3.74652e-06 -0.000111206)
(5.41508e-06 4.93102e-06 -6.08664e-05)
(3.25923e-06 8.01581e-06 -2.23575e-05)
(-2.81873e-06 2.11993e-06 -2.81873e-06)
(-2.9301e-06 -1.63936e-05 -0.00011004)
(3.80423e-06 -3.66648e-06 -6.02391e-05)
(3.16708e-06 8.62811e-06 -2.49338e-05)
(5.70126e-07 7.64315e-07 5.70126e-07)
(1.28989e-06 -4.12802e-05 -1.39313e-05)
(4.81492e-06 -1.72626e-05 -1.72162e-05)
(3.45372e-06 5.20274e-06 -1.42214e-05)
(-3.32867e-06 2.41709e-06 -3.32867e-06)
(-9.33768e-07 -5.29662e-05 1.9699e-05)
(7.53648e-06 -2.54111e-05 4.14335e-06)
(4.53704e-06 2.60272e-06 -4.18699e-06)
(-3.20816e-06 2.56088e-06 -3.20816e-06)
(-1.49398e-06 -5.33473e-05 2.7099e-05)
(6.52558e-06 -2.5411e-05 1.06732e-05)
(4.24027e-06 4.8128e-06 3.68573e-06)
(-5.89354e-07 1.04149e-06 -5.89354e-07)
(1.62935e-07 -5.49896e-05 4.03994e-05)
(3.22275e-06 -2.83044e-05 2.05219e-05)
(2.16613e-06 5.9973e-06 1.04173e-05)
(3.49822e-06 1.88057e-06 3.49822e-06)
(8.76472e-07 -4.76927e-05 6.01469e-05)
(-6.11704e-07 -2.34007e-05 3.24821e-05)
(2.17398e-06 6.59227e-06 1.74093e-05)
(9.00797e-06 5.32724e-06 9.00797e-06)
(6.6082e-06 -2.82803e-05 7.56356e-05)
(-7.69877e-06 -1.43685e-05 4.88142e-05)
(-4.23252e-06 5.76253e-06 2.29895e-05)
(-1.12146e-05 1.49061e-06 -1.01793e-06)
(-6.7757e-06 -5.14939e-05 -6.7757e-06)
(7.75802e-06 -2.94563e-05 -5.18046e-06)
(3.15586e-06 -1.1684e-05 -3.26888e-06)
(-4.10029e-05 1.41111e-06 -2.57342e-06)
(-2.40016e-05 -0.000104762 -2.40016e-05)
(3.08219e-05 -5.42432e-05 -1.71556e-05)
(1.307e-05 -1.32115e-05 -8.65457e-06)
(-0.000111206 3.74652e-06 -4.48026e-06)
(-5.91184e-05 -0.000215113 -5.91184e-05)
(9.44237e-05 -0.000102661 -4.14977e-05)
(4.00875e-05 -6.78678e-06 -1.50115e-05)
(-0.00011004 -1.63936e-05 -2.9301e-06)
(-5.99606e-05 -0.000651683 -5.99606e-05)
(8.95203e-05 -0.000318609 -4.1768e-05)
(3.56182e-05 4.7675e-06 -1.64165e-05)
(-1.39313e-05 -4.12802e-05 1.28989e-06)
(-1.56105e-05 -0.000573519 -1.56105e-05)
(4.43084e-06 -0.00029919 -1.35498e-05)
(2.98691e-06 6.16447e-06 -1.00759e-05)
(1.9699e-05 -5.29662e-05 -9.33768e-07)
(7.41556e-06 -0.000586154 7.41556e-06)
(-1.67291e-05 -0.000307343 2.1776e-06)
(-6.56385e-06 -4.0285e-06 -4.02376e-06)
(2.7099e-05 -5.33473e-05 -1.49398e-06)
(1.30334e-05 -0.000547183 1.30334e-05)
(-1.66049e-05 -0.000299962 5.97248e-06)
(-3.68731e-06 -9.44622e-06 1.63615e-06)
(4.03994e-05 -5.49896e-05 1.62935e-07)
(2.15172e-05 -0.000480958 2.15172e-05)
(-2.62302e-05 -0.000277416 1.22789e-05)
(-6.99551e-06 -1.208e-05 6.85509e-06)
(6.01469e-05 -4.76927e-05 8.76472e-07)
(2.85065e-05 -0.00039287 2.85065e-05)
(-4.32151e-05 -0.000233905 1.24541e-05)
(-8.88258e-06 -1.29789e-05 1.03696e-05)
(7.56356e-05 -2.82803e-05 6.6082e-06)
(4.57697e-05 -0.00026362 4.57697e-05)
(-6.12158e-05 -0.000187476 3.53942e-05)
(-2.56042e-05 -2.15181e-05 1.69049e-05)
(-7.11316e-06 2.55632e-06 9.91008e-07)
(-5.18046e-06 -2.94563e-05 7.75802e-06)
(4.27254e-06 -1.97543e-05 4.27254e-06)
(2.17236e-06 -7.05606e-06 1.1595e-06)
(-2.44435e-05 2.92603e-06 2.16243e-06)
(-1.71556e-05 -5.42432e-05 3.08219e-05)
(1.70805e-05 -3.54318e-05 1.70805e-05)
(9.16213e-06 -6.38634e-06 4.79054e-06)
(-6.08664e-05 4.93102e-06 5.41508e-06)
(-4.14977e-05 -0.000102661 9.44237e-05)
(4.92908e-05 -6.6804e-05 4.92908e-05)
(2.82734e-05 -6.82458e-07 1.09846e-05)
(-6.02391e-05 -3.66648e-06 3.80423e-06)
(-4.1768e-05 -0.000318609 8.95203e-05)
(4.74414e-05 -0.000212264 4.74414e-05)
(2.62879e-05 5.88518e-06 1.16019e-05)
(-1.72162e-05 -1.72626e-05 4.81492e-06)
(-1.35498e-05 -0.00029919 4.43084e-06)
(1.07679e-05 -0.000201257 1.07679e-05)
(4.69326e-06 4.65546e-06 3.29817e-06)
(4.14335e-06 -2.54111e-05 7.53648e-06)
(2.1776e-06 -0.000307343 -1.67291e-05)
(-3.47602e-06 -0.000208748 -3.47602e-06)
(-3.31718e-06 -1.84525e-06 2.22641e-07)
(1.06732e-05 -2.5411e-05 6.52558e-06)
(5.97248e-06 -0.000299962 -1.66049e-05)
(-3.97493e-06 -0.000206352 -3.97493e-06)
(-5.30668e-07 -3.48278e-06 -3.03953e-08)
(2.05219e-05 -2.83044e-05 3.22275e-06)
(1.22789e-05 -0.000277416 -2.62302e-05)
(-1.05787e-05 -0.000199877 -1.05787e-05)
(-2.66794e-06 -6.57225e-06 -1.82215e-06)
(3.24821e-05 -2.34007e-05 -6.11704e-07)
(1.24541e-05 -0.000233905 -4.32151e-05)
(-1.93468e-05 -0.000173863 -1.93468e-05)
(1.62365e-06 -7.89113e-06 -5.00063e-06)
(4.88142e-05 -1.43685e-05 -7.69877e-06)
(3.53942e-05 -0.000187476 -6.12158e-05)
(-3.71654e-05 -0.000182486 -3.71654e-05)
(-1.96179e-05 -2.14974e-05 -9.98747e-06)
(-4.22673e-06 4.56491e-06 5.52737e-07)
(-3.26888e-06 -1.1684e-05 3.15586e-06)
(1.1595e-06 -7.05606e-06 2.17236e-06)
(1.0521e-07 -4.89939e-06 1.0521e-07)
(-1.19896e-05 5.71538e-06 1.43478e-06)
(-8.65457e-06 -1.32115e-05 1.307e-05)
(4.79054e-06 -6.38634e-06 9.16213e-06)
(1.17614e-06 -2.60946e-06 1.17614e-06)
(-2.23575e-05 8.01581e-06 3.25923e-06)
(-1.50115e-05 -6.78678e-06 4.00875e-05)
(1.09846e-05 -6.82458e-07 2.82734e-05)
(3.1103e-06 2.00125e-06 3.1103e-06)
(-2.49338e-05 8.62811e-06 3.16708e-06)
(-1.64165e-05 4.7675e-06 3.56182e-05)
(1.16019e-05 5.88518e-06 2.62879e-05)
(2.28843e-06 9.39075e-06 2.28843e-06)
(-1.42214e-05 5.20274e-06 3.45372e-06)
(-1.00759e-05 6.16447e-06 2.98691e-06)
(3.29817e-06 4.65546e-06 4.69326e-06)
(-1.64793e-06 1.52068e-05 -1.64793e-06)
(-4.18699e-06 2.60272e-06 4.53704e-06)
(-4.02376e-06 -4.0285e-06 -6.56385e-06)
(2.22641e-07 -1.84525e-06 -3.31718e-06)
(-5.93288e-07 1.77337e-05 -5.93288e-07)
(3.68573e-06 4.8128e-06 4.24027e-06)
(1.63615e-06 -9.44622e-06 -3.68731e-06)
(-3.03953e-08 -3.48278e-06 -5.30668e-07)
(1.54332e-06 1.80092e-05 1.54332e-06)
(1.04173e-05 5.9973e-06 2.16613e-06)
(6.85509e-06 -1.208e-05 -6.99551e-06)
(-1.82215e-06 -6.57225e-06 -2.66794e-06)
(1.61128e-06 1.59859e-05 1.61128e-06)
(1.74093e-05 6.59227e-06 2.17398e-06)
(1.03696e-05 -1.29789e-05 -8.88258e-06)
(-5.00063e-06 -7.89113e-06 1.62365e-06)
(2.38595e-06 1.24644e-05 2.38595e-06)
(2.29895e-05 5.76253e-06 -4.23252e-06)
(1.69049e-05 -2.15181e-05 -2.56042e-05)
(-9.98747e-06 -2.14974e-05 -1.96179e-05)
(-2.68924e-06 3.86292e-06 -2.68924e-06)
)
;

boundaryField
{
    inlet
    {
        type            fixedValue;
        value           nonuniform 0();
    }
    outlet
    {
        type            zeroGradient;
    }
    walls
    {
        type            fixedValue;
        value           uniform (0 0 0);
    }
    procBoundary0to1
    {
        type            processor;
        value           nonuniform List<vector> 
16
(
(8.04845e-06 4.2789e-06 8.04845e-06)
(8.39992e-06 -8.62099e-06 5.50992e-05)
(-7.80136e-06 -3.80462e-06 4.05427e-05)
(-6.97469e-06 4.117e-06 1.8773e-05)
(5.50992e-05 -8.62099e-06 8.39992e-06)
(4.18315e-05 -0.000108078 4.18315e-05)
(-4.45943e-05 -7.30601e-05 4.16237e-05)
(-2.64279e-05 -1.37758e-05 1.66125e-05)
(4.05427e-05 -3.80462e-06 -7.80136e-06)
(4.16237e-05 -7.30601e-05 -4.45943e-05)
(-3.22107e-05 -6.36201e-05 -3.22107e-05)
(-2.874e-05 -9.70384e-06 -7.33932e-06)
(1.8773e-05 4.117e-06 -6.97469e-06)
(1.66125e-05 -1.37758e-05 -2.64279e-05)
(-7.33932e-06 -9.70384e-06 -2.874e-05)
(-3.88573e-06 5.97395e-07 -3.88573e-06)
)
;
    }
}


// ************************************************************************* //
