/*--------------------------------*- C++ -*----------------------------------*\
| =========                 |                                                 |
| \\      /  F ield         | OpenFOAM: The Open Source CFD Toolbox           |
|  \\    /   O peration     | Version:  5.x                                   |
|   \\  /    A nd           | Web:      www.OpenFOAM.org                      |
|    \\/     M anipulation  |                                                 |
\*---------------------------------------------------------------------------*/
FoamFile
{
    version     2.0;
    format      ascii;
    class       volVectorField;
    location    "0.15";
    object      Us;
}
// * * * * * * * * * * * * * * * * * * * * * * * * * * * * * * * * * * * * * //

dimensions      [0 1 -1 0 0 0 0];

internalField   nonuniform List<vector> 
160
(
(-2.62581e-11 -5.45016e-08 -2.62581e-11)
(-4.79773e-10 -9.95823e-07 -4.79773e-10)
(-4.67479e-10 -9.70304e-07 -4.67479e-10)
(-1.30224e-11 -2.70294e-08 -1.30224e-11)
(-9.42707e-10 -1.95669e-06 -9.42707e-10)
(-2.3071e-08 -4.78865e-05 -2.3071e-08)
(-2.27755e-08 -4.7273e-05 -2.27755e-08)
(-6.2669e-10 -1.30077e-06 -6.2669e-10)
(-2.30815e-08 -4.79082e-05 -2.30815e-08)
(-8.47134e-07 -0.00175832 -8.47134e-07)
(-8.47283e-07 -0.00175863 -8.47283e-07)
(-2.30835e-08 -4.79124e-05 -2.30835e-08)
(-6.24484e-10 -1.29619e-06 -6.24484e-10)
(-2.2924e-08 -4.75813e-05 -2.2924e-08)
(-2.29242e-08 -4.75817e-05 -2.29242e-08)
(-6.24574e-10 -1.29637e-06 -6.24574e-10)
(-8.34084e-12 -1.73123e-08 -8.34084e-12)
(-3.06182e-10 -6.35514e-07 -3.06182e-10)
(-3.10191e-10 -6.43836e-07 -3.10191e-10)
(-1.26758e-11 -2.631e-08 -1.26758e-11)
(-1.11408e-13 -2.31239e-10 -1.11408e-13)
(-4.08963e-12 -8.48849e-09 -4.08963e-12)
(-4.19672e-12 -8.71077e-09 -4.19672e-12)
(-2.28675e-13 -4.74641e-10 -2.28675e-13)
(-1.48812e-15 -3.08876e-12 -1.48812e-15)
(-5.4627e-14 -1.13384e-10 -5.4627e-14)
(-5.67727e-14 -1.17838e-10 -5.67727e-14)
(-3.86755e-15 -8.02754e-12 -3.86755e-15)
(-1.98783e-17 -4.12596e-14 -1.98783e-17)
(-7.29707e-16 -1.51459e-12 -7.29707e-16)
(-7.67923e-16 -1.59391e-12 -7.67923e-16)
(-6.27946e-17 -1.30337e-13 -6.27946e-17)
(-2.65545e-19 -5.51168e-16 -2.65545e-19)
(-9.74782e-18 -2.02327e-14 -9.74782e-18)
(-1.0386e-17 -2.15572e-14 -1.0386e-17)
(-9.91222e-19 -2.05739e-15 -9.91222e-19)
(-3.54584e-21 -7.35978e-18 -3.54584e-21)
(-1.30187e-19 -2.70217e-16 -1.30187e-19)
(-1.40415e-19 -2.91447e-16 -1.40415e-19)
(-1.53225e-20 -3.18035e-17 -1.53225e-20)
(-4.79773e-10 -9.95823e-07 -4.79773e-10)
(-1.16915e-08 -2.42671e-05 -1.16915e-08)
(-1.15389e-08 -2.39502e-05 -1.15389e-08)
(-3.1653e-10 -6.56994e-07 -3.1653e-10)
(-2.3071e-08 -4.78865e-05 -2.3071e-08)
(-8.46973e-07 -0.00175799 -8.46973e-07)
(-8.46981e-07 -0.001758 -8.46981e-07)
(-2.29263e-08 -4.75862e-05 -2.29263e-08)
(-8.47134e-07 -0.00175832 -8.47134e-07)
(-6.21606e-05 -0.129021 -6.21606e-05)
(-6.21606e-05 -0.129021 -6.21606e-05)
(-8.47441e-07 -0.00175896 -8.47441e-07)
(-2.2924e-08 -4.75813e-05 -2.2924e-08)
(-8.47273e-07 -0.00175861 -8.47273e-07)
(-8.47134e-07 -0.00175832 -8.47134e-07)
(-2.27816e-08 -4.72858e-05 -2.27816e-08)
(-3.06182e-10 -6.35514e-07 -3.06182e-10)
(-1.12445e-08 -2.33393e-05 -1.12445e-08)
(-1.13879e-08 -2.36368e-05 -1.13879e-08)
(-4.59356e-10 -9.53445e-07 -4.59356e-10)
(-4.08963e-12 -8.48849e-09 -4.08963e-12)
(-1.49231e-10 -3.09745e-07 -1.49231e-10)
(-1.53059e-10 -3.17692e-07 -1.53059e-10)
(-8.23288e-12 -1.70883e-08 -8.23288e-12)
(-5.4627e-14 -1.13384e-10 -5.4627e-14)
(-1.98052e-12 -4.11078e-09 -1.98052e-12)
(-2.05688e-12 -4.26929e-09 -2.05688e-12)
(-1.38327e-13 -2.87114e-10 -1.38327e-13)
(-7.29707e-16 -1.51459e-12 -7.29707e-16)
(-2.62845e-14 -5.45565e-11 -2.62845e-14)
(-2.76371e-14 -5.73639e-11 -2.76371e-14)
(-2.23109e-15 -4.63087e-12 -2.23109e-15)
(-9.74782e-18 -2.02327e-14 -9.74782e-18)
(-3.48838e-16 -7.24053e-13 -3.48838e-16)
(-3.71287e-16 -7.70648e-13 -3.71287e-16)
(-3.49841e-17 -7.26134e-14 -3.49841e-17)
(-1.30187e-19 -2.70217e-16 -1.30187e-19)
(-4.62883e-18 -9.60766e-15 -4.62883e-18)
(-4.98638e-18 -1.03498e-14 -4.98638e-18)
(-5.3723e-19 -1.11508e-15 -5.3723e-19)
(-4.67479e-10 -9.70304e-07 -4.67479e-10)
(-1.15389e-08 -2.39502e-05 -1.15389e-08)
(-1.13938e-08 -2.3649e-05 -1.13938e-08)
(-3.1242e-10 -6.48463e-07 -3.1242e-10)
(-2.27755e-08 -4.7273e-05 -2.27755e-08)
(-8.46981e-07 -0.001758 -8.46981e-07)
(-8.47271e-07 -0.00175861 -8.47271e-07)
(-2.29284e-08 -4.75904e-05 -2.29284e-08)
(-8.47283e-07 -0.00175863 -8.47283e-07)
(-6.21606e-05 -0.129021 -6.21606e-05)
(-6.21606e-05 -0.129021 -6.21606e-05)
(-8.47445e-07 -0.00175897 -8.47445e-07)
(-2.29242e-08 -4.75817e-05 -2.29242e-08)
(-8.47134e-07 -0.00175832 -8.47134e-07)
(-8.47277e-07 -0.00175862 -8.47277e-07)
(-2.30795e-08 -4.79041e-05 -2.30795e-08)
(-3.10191e-10 -6.43836e-07 -3.10191e-10)
(-1.13879e-08 -2.36368e-05 -1.13879e-08)
(-1.15386e-08 -2.39497e-05 -1.15386e-08)
(-4.71367e-10 -9.78374e-07 -4.71367e-10)
(-4.19672e-12 -8.71077e-09 -4.19672e-12)
(-1.53059e-10 -3.17692e-07 -1.53059e-10)
(-1.57085e-10 -3.26048e-07 -1.57085e-10)
(-8.5557e-12 -1.77583e-08 -8.5557e-12)
(-5.67727e-14 -1.17838e-10 -5.67727e-14)
(-2.05688e-12 -4.26929e-09 -2.05688e-12)
(-2.13784e-12 -4.43732e-09 -2.13784e-12)
(-1.45558e-13 -3.02121e-10 -1.45558e-13)
(-7.67923e-16 -1.59391e-12 -7.67923e-16)
(-2.76371e-14 -5.73639e-11 -2.76371e-14)
(-2.90854e-14 -6.037e-11 -2.90854e-14)
(-2.37683e-15 -4.93337e-12 -2.37683e-15)
(-1.0386e-17 -2.15572e-14 -1.0386e-17)
(-3.71287e-16 -7.70648e-13 -3.71287e-16)
(-3.95585e-16 -8.21081e-13 -3.95585e-16)
(-3.77257e-17 -7.8304e-14 -3.77257e-17)
(-1.40415e-19 -2.91447e-16 -1.40415e-19)
(-4.98638e-18 -1.03498e-14 -4.98638e-18)
(-5.37767e-18 -1.1162e-14 -5.37767e-18)
(-5.86337e-19 -1.21701e-15 -5.86337e-19)
(-1.30224e-11 -2.70294e-08 -1.30224e-11)
(-3.1653e-10 -6.56994e-07 -3.1653e-10)
(-3.1242e-10 -6.48463e-07 -3.1242e-10)
(-8.68192e-12 -1.80203e-08 -8.68192e-12)
(-6.2669e-10 -1.30077e-06 -6.2669e-10)
(-2.29263e-08 -4.75862e-05 -2.29263e-08)
(-2.29284e-08 -4.75904e-05 -2.29284e-08)
(-6.28721e-10 -1.30498e-06 -6.28721e-10)
(-2.30835e-08 -4.79124e-05 -2.30835e-08)
(-8.47441e-07 -0.00175896 -8.47441e-07)
(-8.47445e-07 -0.00175897 -8.47445e-07)
(-2.30901e-08 -4.79261e-05 -2.30901e-08)
(-6.24574e-10 -1.29637e-06 -6.24574e-10)
(-2.27816e-08 -4.72858e-05 -2.27816e-08)
(-2.30795e-08 -4.79041e-05 -2.30795e-08)
(-9.43055e-10 -1.95742e-06 -9.43055e-10)
(-1.26758e-11 -2.631e-08 -1.26758e-11)
(-4.59356e-10 -9.53445e-07 -4.59356e-10)
(-4.71367e-10 -9.78374e-07 -4.71367e-10)
(-2.56812e-11 -5.33042e-08 -2.56812e-11)
(-2.28675e-13 -4.74641e-10 -2.28675e-13)
(-8.23288e-12 -1.70883e-08 -8.23288e-12)
(-8.5557e-12 -1.77583e-08 -8.5557e-12)
(-5.82761e-13 -1.20959e-09 -5.82761e-13)
(-3.86755e-15 -8.02754e-12 -3.86755e-15)
(-1.38327e-13 -2.87114e-10 -1.38327e-13)
(-1.45558e-13 -3.02121e-10 -1.45558e-13)
(-1.19007e-14 -2.47012e-11 -1.19007e-14)
(-6.27946e-17 -1.30337e-13 -6.27946e-17)
(-2.23109e-15 -4.63087e-12 -2.23109e-15)
(-2.37683e-15 -4.93337e-12 -2.37683e-15)
(-2.26803e-16 -4.70756e-13 -2.26803e-16)
(-9.91222e-19 -2.05739e-15 -9.91222e-19)
(-3.49841e-17 -7.26134e-14 -3.49841e-17)
(-3.77257e-17 -7.8304e-14 -3.77257e-17)
(-4.11619e-18 -8.54361e-15 -4.11619e-18)
(-1.53225e-20 -3.18035e-17 -1.53225e-20)
(-5.3723e-19 -1.11508e-15 -5.3723e-19)
(-5.86337e-19 -1.21701e-15 -5.86337e-19)
(-7.20117e-20 -1.49468e-16 -7.20117e-20)
)
;

boundaryField
{
    inlet
    {
        type            zeroGradient;
    }
    outlet
    {
        type            zeroGradient;
    }
    walls
    {
        type            zeroGradient;
    }
    procBoundary0to1
    {
        type            processor;
        value           uniform (0 0 0);
    }
}


// ************************************************************************* //
