FoamFile
{version 2.0; format ascii;class Cloud<passiveParticle>; location 0;object  positions;}
2
(
( 0.499984 0.499984 3.25412 ) 0 
( 0.499983 0.499982 2.91461 ) 0 
)
