FoamFile
{version 2.0; format ascii;class vectorField; location 0;object  v;}
2
(
( -0.00121292 -0.00122859 -7.29012 )  
( -0.00113918 -0.00120056 -7.37126 )  
)
