/*--------------------------------*- C++ -*----------------------------------*\
| =========                 |                                                 |
| \\      /  F ield         | OpenFOAM: The Open Source CFD Toolbox           |
|  \\    /   O peration     | Version:  5.x                                   |
|   \\  /    A nd           | Web:      www.OpenFOAM.org                      |
|    \\/     M anipulation  |                                                 |
\*---------------------------------------------------------------------------*/
FoamFile
{
    version     2.0;
    format      ascii;
    class       volScalarField;
    location    "0.01";
    object      Ksl;
}
// * * * * * * * * * * * * * * * * * * * * * * * * * * * * * * * * * * * * * //

dimensions      [1 -3 -1 0 0 0 0];

internalField   nonuniform List<scalar> 
320
(
0
0
0
0
0
0
0
0
0
0
0
0
0
0
0
0
0
0
0
0
0.000219484
0.0034876
0.0020254
0.000115281
0.00322665
0.0509553
0.0267812
0.00181394
0.0938815
1.82662
0.918877
0.0464554
0.746836
2.58926
1.28998
0.367781
2.51702
2.95178
1.42782
1.20542
0.746838
2.58969
1.28996
0.367723
0.0943389
1.82904
0.919214
0.0465708
0.00324765
0.050978
0.0267838
0.00181336
0.00022194
0.00348955
0.00202562
0
0
0
0
0
0
0
0
0
0
0
0
0
0
0
0
0
0
0
0
0
0
0
0
0
0
0
0
0
0
0
0
0
0
0
0
0
0
0
0
0
0
0.000868625
0.000607387
0
0.0034876
0.016723
0.0118488
0.00239938
0.0509553
1.33045
0.477817
0.0315243
1.82662
4.86319
1.98646
1.13311
2.58926
2.94128
1.42528
1.25235
2.95178
2.99262
1.41582
1.40001
2.58969
2.94129
1.42528
1.25225
1.82904
4.86349
1.98696
1.13538
0.050978
1.3305
0.477823
0.0315228
0.00348955
0.0167233
0.0118486
0.00239922
0
0.000868734
0.00060739
0
0
0
0
0
0
0
0
0
0
0
0
0
0
0
0
0
0
0
0
0
0
0
0
0
0
0
0
0
0
0
0
0
0
0
0
0
0
0.000607387
0.000486987
0
0.0020254
0.0118488
0.00878761
0.00189197
0.0267812
0.477817
0.405083
0.0226757
0.918877
1.98646
1.43698
0.748197
1.28998
1.42528
0.956363
0.849509
1.42782
1.41582
0.946862
0.946671
1.28996
1.42528
0.956367
0.849504
0.919214
1.98696
1.43775
0.748348
0.0267838
0.477823
0.40508
0.0226708
0.00202562
0.0118486
0.00878753
0.00189236
0
0.00060739
0.000486979
0
0
0
0
0
0
0
0
0
0
0
0
0
0
0
0
0
0
0
0
0
0
0
0
0
0
0
0
0
0
0
0
0
0
0
0
0
0
0
0
0
0.000115281
0.00239938
0.00189197
2.50474e-19
0.00181394
0.0315243
0.0226757
0.0014038
0.0464554
1.13311
0.748197
0.0335498
0.367781
1.25235
0.849509
0.241938
1.20542
1.40001
0.946671
0.80229
0.367723
1.25225
0.849504
0.241921
0.0465708
1.13538
0.748348
0.033546
0.00181336
0.0315228
0.0226708
0.00140326
0.000115197
0.00239922
0.00189236
2.50801e-19
0
0
0
0
0
0
0
0
0
0
0
0
0
0
0
0
0
0
0
0
0
0
0
0
)
;

boundaryField
{
    inlet
    {
        type            zeroGradient;
    }
    outlet
    {
        type            zeroGradient;
    }
    walls
    {
        type            zeroGradient;
    }
}


// ************************************************************************* //
