/*--------------------------------*- C++ -*----------------------------------*\
| =========                 |                                                 |
| \\      /  F ield         | OpenFOAM: The Open Source CFD Toolbox           |
|  \\    /   O peration     | Version:  5.x                                   |
|   \\  /    A nd           | Web:      www.OpenFOAM.org                      |
|    \\/     M anipulation  |                                                 |
\*---------------------------------------------------------------------------*/
FoamFile
{
    version     2.0;
    format      ascii;
    class       volScalarField;
    location    "0.01";
    object      p;
}
// * * * * * * * * * * * * * * * * * * * * * * * * * * * * * * * * * * * * * //

dimensions      [0 2 -2 0 0 0 0];

internalField   nonuniform List<scalar> 
320
(
9.7466e-10
9.33847e-10
3.1001e-10
-3.0018e-10
3.30725e-09
3.36188e-09
1.03891e-09
-1.27015e-09
6.8247e-09
7.67135e-09
2.20111e-09
-3.7042e-09
1.24154e-08
1.56586e-08
4.06366e-09
-1.043e-08
2.21294e-08
4.22264e-08
8.61183e-09
-2.85011e-08
1.25189e-08
3.7475e-08
-2.54752e-09
-8.56422e-08
4.49755e-08
2.58621e-07
1.02852e-07
-1.70483e-07
-2.73413e-07
-5.8701e-08
-3.22526e-07
-6.71219e-07
-5.5354e-07
9.08338e-07
4.28567e-07
-9.33989e-07
-3.61994e-06
-3.61997e-06
-3.61996e-06
-3.61993e-06
-6.68627e-06
-8.14819e-06
-7.66839e-06
-6.30579e-06
-6.96628e-06
-7.18093e-06
-6.91713e-06
-6.56845e-06
-7.28467e-06
-7.49831e-06
-7.34253e-06
-7.06918e-06
-7.25221e-06
-7.27715e-06
-7.23711e-06
-7.15401e-06
-7.26185e-06
-7.28193e-06
-7.24828e-06
-7.21115e-06
-7.25221e-06
-7.25542e-06
-7.24376e-06
-7.22921e-06
-7.24678e-06
-7.24755e-06
-7.24194e-06
-7.23592e-06
-7.24357e-06
-7.24349e-06
-7.24087e-06
-7.23832e-06
-7.24184e-06
-7.24159e-06
-7.24033e-06
-7.23916e-06
-7.2411e-06
-7.24085e-06
-7.2401e-06
-7.23943e-06
9.33847e-10
9.48734e-10
3.10156e-10
-3.49679e-10
3.36188e-09
3.7361e-09
1.34221e-09
-1.23479e-09
7.67135e-09
9.91893e-09
4.08374e-09
-2.87465e-09
1.56586e-08
2.52949e-08
1.18433e-08
-6.74957e-09
4.22264e-08
6.90704e-08
3.67479e-08
-1.25107e-08
3.7475e-08
1.3645e-07
6.70974e-08
-6.73021e-08
2.58621e-07
6.73179e-07
4.55676e-07
1.56573e-08
-5.8701e-08
6.17489e-07
-4.66697e-08
-6.79617e-07
9.08338e-07
7.38878e-06
4.78384e-06
1.00539e-07
-3.61997e-06
-3.62012e-06
-3.62003e-06
-3.61996e-06
-8.14819e-06
-1.46287e-05
-1.20237e-05
-7.34036e-06
-7.18093e-06
-7.85693e-06
-7.19287e-06
-6.56e-06
-7.49831e-06
-7.91285e-06
-7.69533e-06
-7.25531e-06
-7.27715e-06
-7.3761e-06
-7.30674e-06
-7.17233e-06
-7.28193e-06
-7.30875e-06
-7.2764e-06
-7.22712e-06
-7.25542e-06
-7.26501e-06
-7.2515e-06
-7.23285e-06
-7.24755e-06
-7.24973e-06
-7.24375e-06
-7.23668e-06
-7.24349e-06
-7.24374e-06
-7.24105e-06
-7.23822e-06
-7.24159e-06
-7.24142e-06
-7.24014e-06
-7.2389e-06
-7.24085e-06
-7.24062e-06
-7.23986e-06
-7.23917e-06
3.1001e-10
3.10156e-10
-2.9332e-10
-9.52869e-10
1.03891e-09
1.34221e-09
-8.79511e-10
-3.47427e-09
2.20111e-09
4.08374e-09
-1.10394e-09
-8.15523e-09
4.06366e-09
1.18433e-08
9.67349e-10
-1.79083e-08
8.61183e-09
3.67479e-08
1.73402e-08
-3.89352e-08
-2.54752e-09
6.70974e-08
4.81541e-08
-1.04432e-07
1.02852e-07
4.55676e-07
4.15231e-07
-7.22912e-08
-3.22526e-07
-4.66697e-08
-2.94685e-07
-9.41133e-07
4.28567e-07
4.78384e-06
5.20751e-06
3.3498e-08
-3.61996e-06
-3.62003e-06
-3.62009e-06
-3.61997e-06
-7.66839e-06
-1.20237e-05
-1.24474e-05
-7.27334e-06
-6.91713e-06
-7.19287e-06
-6.94477e-06
-6.29847e-06
-7.34253e-06
-7.69533e-06
-7.65487e-06
-7.16736e-06
-7.23711e-06
-7.30674e-06
-7.28778e-06
-7.13519e-06
-7.24828e-06
-7.2764e-06
-7.25696e-06
-7.20066e-06
-7.24376e-06
-7.2515e-06
-7.24055e-06
-7.22163e-06
-7.24194e-06
-7.24375e-06
-7.23843e-06
-7.23126e-06
-7.24087e-06
-7.24105e-06
-7.23854e-06
-7.2357e-06
-7.24033e-06
-7.24014e-06
-7.23892e-06
-7.23768e-06
-7.2401e-06
-7.23986e-06
-7.23912e-06
-7.23843e-06
-3.0018e-10
-3.49679e-10
-9.52869e-10
-1.58457e-09
-1.27015e-09
-1.23479e-09
-3.47427e-09
-5.90427e-09
-3.7042e-09
-2.87465e-09
-8.15523e-09
-1.44787e-08
-1.043e-08
-6.74957e-09
-1.79083e-08
-3.37523e-08
-2.85011e-08
-1.25107e-08
-3.89352e-08
-7.85353e-08
-8.56422e-08
-6.73021e-08
-1.04432e-07
-1.85972e-07
-1.70483e-07
1.56573e-08
-7.22912e-08
-3.73685e-07
-6.71219e-07
-6.79617e-07
-9.41133e-07
-1.08617e-06
-9.33989e-07
1.00539e-07
3.3498e-08
-1.24001e-06
-3.61993e-06
-3.61996e-06
-3.61997e-06
-3.61994e-06
-6.30579e-06
-7.34036e-06
-7.27334e-06
-5.99979e-06
-6.56845e-06
-6.56e-06
-6.29847e-06
-6.15348e-06
-7.06918e-06
-7.25531e-06
-7.16736e-06
-6.86596e-06
-7.15401e-06
-7.17233e-06
-7.13519e-06
-7.05364e-06
-7.21115e-06
-7.22712e-06
-7.20066e-06
-7.16104e-06
-7.22921e-06
-7.23285e-06
-7.22163e-06
-7.20573e-06
-7.23592e-06
-7.23668e-06
-7.23126e-06
-7.22483e-06
-7.23832e-06
-7.23822e-06
-7.2357e-06
-7.23302e-06
-7.23916e-06
-7.2389e-06
-7.23768e-06
-7.23649e-06
-7.23943e-06
-7.23917e-06
-7.23843e-06
-7.23776e-06
)
;

boundaryField
{
    inlet
    {
        type            zeroGradient;
    }
    outlet
    {
        type            totalPressure;
        rho             rho;
        psi             none;
        gamma           1;
        p0              uniform 0;
        value           nonuniform List<scalar> 
16
(
-7.41012e-19
0
-1.09202e-19
-7.94504e-19
0
0
0
0
-1.09202e-19
0
0
-3.58547e-20
-7.94504e-19
0
-3.58547e-20
-3.77203e-19
)
;
    }
    walls
    {
        type            zeroGradient;
    }
}


// ************************************************************************* //
