/*--------------------------------*- C++ -*----------------------------------*\
| =========                 |                                                 |
| \\      /  F ield         | OpenFOAM: The Open Source CFD Toolbox           |
|  \\    /   O peration     | Version:  5.x                                   |
|   \\  /    A nd           | Web:      www.OpenFOAM.org                      |
|    \\/     M anipulation  |                                                 |
\*---------------------------------------------------------------------------*/
FoamFile
{
    version     2.0;
    format      ascii;
    class       surfaceScalarField;
    location    "0.01";
    object      phi;
}
// * * * * * * * * * * * * * * * * * * * * * * * * * * * * * * * * * * * * * //

dimensions      [0 3 -1 0 0 0 0];

internalField   nonuniform List<scalar> 
784
(
-1.74883e-15
4.92446e-15
-1.74883e-15
2.20463e-15
-7.47128e-15
-2.17411e-15
3.35185e-15
8.92384e-16
-2.23704e-15
1.34062e-14
-1.97825e-15
-8.05996e-15
2.10431e-14
-8.05996e-15
7.89242e-15
-1.34787e-14
-9.94976e-15
1.30768e-14
5.733e-15
-1.00278e-14
3.50723e-14
-8.59002e-15
-2.52986e-14
7.16368e-14
-2.52986e-14
1.94672e-14
-2.39414e-14
-3.43085e-14
3.61735e-14
2.27269e-14
-3.37027e-14
9.84798e-14
-2.7234e-14
-7.52777e-14
2.22189e-13
-7.52777e-14
4.38063e-14
-2.9473e-14
-1.13557e-13
9.55027e-14
7.92035e-14
-1.08175e-13
2.74375e-13
-8.03921e-14
-2.39337e-13
7.00859e-13
-2.39337e-13
1.23289e-13
-4.46671e-14
-3.47437e-13
2.55438e-13
2.90975e-13
-3.43921e-13
7.66052e-13
-2.36238e-13
-5.13579e-13
1.72801e-12
-5.13579e-13
1.53639e-13
4.27153e-13
-1.13904e-12
6.03313e-13
8.12647e-13
-9.71345e-13
1.91817e-12
-5.48809e-13
-2.0179e-12
5.76382e-12
-2.0179e-12
7.56233e-13
1.52097e-12
-3.86796e-12
2.02366e-12
3.18085e-12
-3.63563e-12
5.89463e-12
-1.95279e-12
-2.29018e-12
1.03442e-11
-2.29018e-12
5.80119e-13
5.49167e-12
-6.84098e-12
2.38084e-12
6.77903e-12
-5.3989e-12
1.03732e-11
-2.09778e-12
-1.22915e-11
3.49272e-11
-1.22915e-11
2.63109e-12
4.41967e-11
-5.36276e-11
1.20486e-11
4.25293e-11
-4.51677e-11
3.43828e-11
-1.1961e-11
2.01663e-16
3.49268e-11
2.01663e-16
-1.49499e-16
4.4196e-11
1.05958e-15
-1.70085e-16
4.25288e-11
5.06724e-16
3.43825e-11
1.83133e-16
1.22916e-11
1.03436e-11
1.22916e-11
-2.63117e-12
5.49088e-12
5.36278e-11
-1.20486e-11
6.7784e-12
4.51679e-11
1.03728e-11
1.19611e-11
2.2899e-12
5.76375e-12
2.2899e-12
-5.79967e-13
1.52092e-12
6.83982e-12
-2.38067e-12
3.18075e-12
5.39835e-12
5.89455e-12
2.09757e-12
2.01788e-12
1.72799e-12
2.01788e-12
-7.56251e-13
4.2718e-13
3.86788e-12
-2.02367e-12
8.12617e-13
3.63556e-12
1.9181e-12
1.95277e-12
5.13527e-13
7.00931e-13
5.13527e-13
-1.53656e-13
-4.45861e-14
1.13895e-12
-6.03322e-13
2.90996e-13
9.71285e-13
7.66017e-13
5.48765e-13
2.39288e-13
2.22354e-13
2.39288e-13
-1.23377e-13
-2.92975e-14
3.47377e-13
-2.55511e-13
7.92622e-14
3.4387e-13
2.74307e-13
2.362e-13
7.52199e-14
7.19141e-14
7.52199e-14
-4.39933e-14
-2.35696e-14
1.13488e-13
-9.56684e-14
2.28292e-14
1.0811e-13
9.83015e-14
8.03376e-14
2.52091e-14
2.14981e-14
2.52091e-14
-1.98674e-14
-1.27068e-14
3.42151e-14
-3.65934e-14
5.94283e-15
3.36129e-14
3.45456e-14
2.71633e-14
8.01597e-15
5.46718e-15
8.01597e-15
-8.77903e-15
-5.82441e-15
9.91162e-15
-1.40636e-14
1.18294e-15
1.00449e-14
1.18916e-14
8.59078e-15
2.18099e-15
1.10438e-15
2.18099e-15
-4.10889e-15
-2.1804e-15
2.64472e-15
-5.77194e-15
9.22967e-17
2.75289e-15
3.63913e-15
2.47953e-15
5.51695e-16
5.51695e-16
-2.30165e-15
6.71178e-16
-2.94239e-15
7.30964e-16
6.95385e-16
-2.17411e-15
-7.47128e-15
2.20463e-15
2.28252e-15
-2.25277e-14
2.28252e-15
3.75127e-15
-1.32649e-14
1.76902e-15
1.95659e-15
1.51344e-15
-9.94976e-15
-1.34787e-14
7.89242e-15
8.51652e-15
-5.94648e-14
8.51652e-15
1.5227e-14
-3.62785e-14
6.27395e-15
3.44183e-15
5.15198e-15
-3.43085e-14
-2.39414e-14
1.94672e-14
2.21474e-14
-1.7238e-13
2.21474e-14
4.49786e-14
-1.06935e-13
1.41221e-14
9.89757e-15
1.12884e-14
-1.13557e-13
-2.9473e-14
4.38063e-14
5.61899e-14
-5.11879e-13
5.61899e-14
1.31341e-13
-3.18386e-13
2.81247e-14
3.81033e-14
2.27444e-14
-3.47437e-13
-4.46671e-14
1.23289e-13
1.5036e-13
-1.50748e-12
1.5036e-13
3.90361e-13
-9.47456e-13
4.515e-14
1.39637e-13
5.25892e-14
-1.13904e-12
4.27153e-13
1.53639e-13
3.51298e-13
-4.48815e-12
3.51298e-13
1.13539e-12
-2.71634e-12
1.34474e-14
6.78745e-13
4.7476e-14
-3.86796e-12
1.52097e-12
7.56233e-13
1.29218e-12
-1.48084e-11
1.29218e-12
3.98257e-12
-9.04068e-12
-1.67054e-15
2.51819e-12
1.90337e-13
-6.84098e-12
5.49167e-12
5.80119e-13
2.24503e-12
-3.29805e-11
2.24503e-12
6.3613e-12
-1.802e-11
-5.35797e-13
6.60146e-12
1.80249e-13
-5.36276e-11
4.41967e-11
2.63109e-12
1.36525e-11
-1.67541e-10
1.36525e-11
4.96614e-11
-9.34786e-11
-5.71807e-12
4.45662e-11
-2.64338e-13
1.05958e-15
4.4196e-11
-1.49499e-16
-6.44898e-16
-1.67537e-10
-6.44898e-16
-6.3686e-16
-9.34781e-11
4.40929e-17
4.45658e-11
-1.79706e-18
5.36278e-11
5.49088e-12
-2.63117e-12
-1.3653e-11
-3.29758e-11
-1.3653e-11
-4.96617e-11
-1.80197e-11
5.71812e-12
6.60083e-12
2.64306e-13
6.83982e-12
1.52092e-12
-5.79967e-13
-2.24413e-12
-1.48079e-11
-2.24413e-12
-6.36057e-12
-9.04053e-12
5.35665e-13
2.51808e-12
-1.80251e-13
3.86788e-12
4.2718e-13
-7.56251e-13
-1.29218e-12
-4.48779e-12
-1.29218e-12
-3.98252e-12
-2.71626e-12
1.62552e-15
6.78691e-13
-1.90359e-13
1.13895e-12
-4.45861e-14
-1.53656e-13
-3.51281e-13
-1.50733e-12
-3.51281e-13
-1.13537e-12
-9.4741e-13
-1.34684e-14
1.39587e-13
-4.75021e-14
3.47377e-13
-2.92975e-14
-1.23377e-13
-1.50439e-13
-5.11694e-13
-1.50439e-13
-3.90421e-13
-3.18324e-13
-4.5231e-14
3.80331e-14
-5.26682e-14
1.13488e-13
-2.35696e-14
-4.39933e-14
-5.63754e-14
-1.71965e-13
-5.63754e-14
-1.3152e-13
-1.06766e-13
-2.83027e-14
9.76487e-15
-2.29137e-14
3.42151e-14
-1.27068e-14
-1.98674e-14
-2.2562e-14
-5.84102e-14
-2.2562e-14
-4.54e-14
-3.57985e-14
-1.45153e-14
3.17251e-15
-1.16431e-14
9.91162e-15
-5.82441e-15
-8.77903e-15
-9.41037e-15
-1.97662e-14
-9.41037e-15
-1.62527e-14
-1.18437e-14
-7.06718e-15
1.39154e-15
-5.88055e-15
2.64472e-15
-2.1804e-15
-4.10889e-15
-4.23108e-15
-6.0164e-15
-4.23108e-15
-6.31043e-15
-3.52455e-15
-3.48864e-15
5.84973e-16
-3.02527e-15
6.71178e-16
-2.30165e-15
-2.33852e-15
-2.33852e-15
-3.08612e-15
-2.04803e-15
-1.80612e-15
-2.23704e-15
8.92384e-16
3.35185e-15
1.76902e-15
-1.32649e-14
3.75127e-15
3.46938e-15
-6.73855e-15
3.46938e-15
7.35166e-15
3.0022e-15
-1.00278e-14
5.733e-15
1.30768e-14
6.27395e-15
-3.62785e-14
1.5227e-14
1.38853e-14
-2.19611e-14
1.38853e-14
1.45967e-14
1.17907e-14
-3.37027e-14
2.27269e-14
3.61735e-14
1.41221e-14
-1.06935e-13
4.49786e-14
4.07676e-14
-7.5253e-14
4.07676e-14
3.36813e-14
3.29718e-14
-1.08175e-13
7.92035e-14
9.55027e-14
2.81247e-14
-3.18386e-13
1.31341e-13
1.17821e-13
-2.54643e-13
1.17821e-13
8.49884e-14
8.92622e-14
-3.43921e-13
2.90975e-13
2.55438e-13
4.515e-14
-9.47456e-13
3.90361e-13
3.66369e-13
-8.97077e-13
3.66369e-13
2.62963e-13
2.40982e-13
-9.71345e-13
8.12647e-13
6.03313e-13
1.34474e-14
-2.71634e-12
1.13539e-12
1.04839e-12
-2.96695e-12
1.04839e-12
7.72888e-13
5.85941e-13
-3.63563e-12
3.18085e-12
2.02366e-12
-1.67054e-15
-9.04068e-12
3.98257e-12
3.80784e-12
-1.0586e-11
3.80784e-12
2.78212e-12
1.98895e-12
-5.3989e-12
6.77903e-12
2.38084e-12
-5.35797e-13
-1.802e-11
6.3613e-12
6.1228e-12
-2.39032e-11
6.1228e-12
6.99556e-12
2.08961e-12
-4.51677e-11
4.25293e-11
1.20486e-11
-5.71807e-12
-9.34786e-11
4.96614e-11
4.94519e-11
-1.34243e-10
4.94519e-11
4.3815e-11
1.23682e-11
5.06725e-16
4.25288e-11
-1.70086e-16
4.40931e-17
-9.34781e-11
-6.36861e-16
-6.51348e-16
-1.34242e-10
-6.51349e-16
4.38145e-11
-1.6595e-16
4.51679e-11
6.7784e-12
-1.20486e-11
5.71812e-12
-1.80197e-11
-4.96617e-11
-4.9452e-11
-2.39014e-11
-4.9452e-11
6.99499e-12
-1.23682e-11
5.39835e-12
3.18075e-12
-2.38067e-12
5.35665e-13
-9.04053e-12
-6.36057e-12
-6.12215e-12
-1.05857e-11
-6.12215e-12
2.782e-12
-2.08941e-12
3.63556e-12
8.12617e-13
-2.02367e-12
1.62552e-15
-2.71626e-12
-3.98252e-12
-3.80778e-12
-2.96692e-12
-3.80778e-12
7.7281e-13
-1.98895e-12
9.71285e-13
2.90996e-13
-6.03322e-13
-1.34684e-14
-9.4741e-13
-1.13537e-12
-1.04838e-12
-8.9709e-13
-1.04838e-12
2.62874e-13
-5.85953e-13
3.4387e-13
7.92622e-14
-2.55511e-13
-4.5231e-14
-3.18324e-13
-3.90421e-13
-3.66435e-13
-2.54682e-13
-3.66435e-13
8.48206e-14
-2.41051e-13
1.0811e-13
2.28292e-14
-9.56684e-14
-2.83027e-14
-1.06766e-13
-1.3152e-13
-1.17993e-13
-7.53012e-14
-1.17993e-13
3.33353e-14
-8.94204e-14
3.36129e-14
5.94283e-15
-3.65934e-14
-1.45153e-14
-3.57985e-14
-4.54e-14
-4.11793e-14
-2.19714e-14
-4.11793e-14
1.38613e-14
-3.33462e-14
1.00449e-14
1.18294e-15
-1.40636e-14
-7.06718e-15
-1.18437e-14
-1.62527e-14
-1.48675e-14
-6.36966e-15
-1.48675e-14
5.79695e-15
-1.26823e-14
2.75289e-15
9.22967e-17
-5.77194e-15
-3.48865e-15
-3.52455e-15
-6.31043e-15
-5.83847e-15
-1.67059e-15
-5.83847e-15
2.07861e-15
-5.14538e-15
7.30964e-16
-2.94239e-15
-2.04803e-15
-3.08612e-15
-2.88373e-15
-2.88373e-15
-2.61115e-15
-1.97825e-15
1.34062e-14
1.51344e-15
1.95659e-15
3.0022e-15
7.35166e-15
1.86291e-14
-8.59002e-15
3.50723e-14
5.15198e-15
3.44183e-15
1.17907e-14
1.45967e-14
4.22109e-14
-2.7234e-14
9.84798e-14
1.12884e-14
9.89757e-15
3.29718e-14
3.36813e-14
1.08159e-13
-8.03921e-14
2.74375e-13
2.27444e-14
3.81033e-14
8.92622e-14
8.49884e-14
2.86681e-13
-2.36238e-13
7.66052e-13
5.25892e-14
1.39637e-13
2.40982e-13
2.62963e-13
7.6865e-13
-5.48809e-13
1.91817e-12
4.7476e-14
6.78745e-13
5.85941e-13
7.72888e-13
1.94052e-12
-1.95279e-12
5.89463e-12
1.90337e-13
2.51819e-12
1.98895e-12
2.78212e-12
5.91842e-12
-2.09778e-12
1.03732e-11
1.80249e-13
6.60146e-12
2.08961e-12
6.99556e-12
1.00976e-11
-1.1961e-11
3.43828e-11
-2.64338e-13
4.45662e-11
1.23682e-11
4.3815e-11
3.4834e-11
1.83134e-16
3.43825e-11
-1.79674e-18
4.45658e-11
-1.6595e-16
4.38145e-11
3.48336e-11
1.19611e-11
1.03728e-11
2.64306e-13
6.60083e-12
-1.23682e-11
6.99499e-12
1.00971e-11
2.09757e-12
5.89455e-12
-1.80251e-13
2.51808e-12
-2.08941e-12
2.782e-12
5.91832e-12
1.95277e-12
1.9181e-12
-1.90359e-13
6.78691e-13
-1.98895e-12
7.7281e-13
1.94042e-12
5.48765e-13
7.66017e-13
-4.75021e-14
1.39587e-13
-5.85953e-13
2.62874e-13
7.68509e-13
2.362e-13
2.74307e-13
-5.26682e-14
3.80331e-14
-2.41051e-13
8.48206e-14
2.86408e-13
8.03376e-14
9.83015e-14
-2.29137e-14
9.76487e-15
-8.94204e-14
3.33353e-14
1.07569e-13
2.71633e-14
3.45456e-14
-1.16431e-14
3.17251e-15
-3.33462e-14
1.38613e-14
4.08779e-14
8.59078e-15
1.18916e-14
-5.88055e-15
1.39154e-15
-1.26823e-14
5.79695e-15
1.55135e-14
2.47953e-15
3.63913e-15
-3.02527e-15
5.84973e-16
-5.14538e-15
2.07861e-15
5.22235e-15
6.95385e-16
-1.80612e-15
-2.61115e-15
)
;

boundaryField
{
    inlet
    {
        type            calculated;
        value           uniform 0;
    }
    outlet
    {
        type            calculated;
        value           nonuniform List<scalar> 
16
(
-1.4268e-15
5.68992e-15
1.95791e-16
-8.07689e-15
5.68992e-15
1.36114e-14
7.78837e-15
-1.69729e-15
1.95791e-16
7.78837e-15
3.33748e-15
-5.371e-15
-8.07689e-15
-1.69729e-15
-5.371e-15
-1.26262e-14
)
;
    }
    walls
    {
        type            calculated;
        value           nonuniform List<scalar> 
320
(
0
0
0
0
0
9.64614e-35
6.9363e-32
8.88549e-29
2.5937e-26
2.13872e-24
2.59263e-26
7.41743e-29
4.81941e-32
5.69395e-35
0
0
0
0
0
0
0
0
0
0
0
1.88155e-32
1.61253e-29
3.17908e-26
2.20378e-24
9.21777e-23
2.20375e-24
3.16785e-26
1.58516e-29
1.82046e-32
0
0
0
0
0
0
0
0
0
0
0
1.09255e-32
8.47468e-30
1.59934e-26
1.09806e-24
4.45942e-23
1.09806e-24
1.5989e-26
8.43419e-30
1.08096e-32
0
0
0
0
0
0
0
0
0
0
0
4.99548e-35
3.8668e-32
4.38149e-29
1.27725e-26
1.02428e-24
1.27682e-26
4.02401e-29
3.47685e-32
4.48957e-35
0
0
0
0
0
0
0
0
0
0
0
-4.99548e-35
-3.8668e-32
-4.38149e-29
-1.27725e-26
-1.02428e-24
-1.27682e-26
-4.02401e-29
-3.47685e-32
0
0
0
0
0
0
0
0
0
0
0
0
-1.28197e-32
-9.93514e-30
-1.97176e-26
-1.06604e-24
-4.3726e-23
-1.06606e-24
-1.9673e-26
-9.90738e-30
-1.28357e-32
0
0
0
0
0
0
0
0
0
0
0
-9.96377e-33
-7.1043e-30
-1.3023e-26
-7.23159e-25
-2.95684e-23
-7.23164e-25
-1.30196e-26
-7.16771e-30
-1.01951e-32
0
0
0
0
0
0
0
0
0
0
0
-8.65864e-50
-2.69158e-32
-3.16816e-29
-8.40328e-27
-6.81824e-25
-8.40123e-27
-3.174e-29
-3.01482e-32
-1.1013e-49
0
0
0
0
0
0
0
0
0
0
0
9.64616e-35
6.93632e-32
8.88551e-29
2.5937e-26
2.13872e-24
2.59263e-26
7.41745e-29
4.81942e-32
5.69396e-35
0
0
0
0
0
0
0
0
0
0
0
1.88156e-32
1.61253e-29
3.17908e-26
2.20378e-24
9.21779e-23
2.20376e-24
3.16786e-26
1.58516e-29
1.82047e-32
0
0
0
0
0
0
0
0
0
0
0
1.09255e-32
8.4747e-30
1.59935e-26
1.09806e-24
4.45943e-23
1.09807e-24
1.59891e-26
8.43421e-30
1.08096e-32
0
0
0
0
0
0
0
0
0
0
0
4.99549e-35
3.86681e-32
4.3815e-29
1.27725e-26
1.02429e-24
1.27683e-26
4.02402e-29
3.47686e-32
0
0
0
0
0
0
0
0
0
0
0
0
-4.99549e-35
-3.86681e-32
-4.3815e-29
-1.27725e-26
-1.02429e-24
-1.27683e-26
-4.02402e-29
-3.47686e-32
-4.48958e-35
0
0
0
0
0
0
0
0
0
0
0
-1.28197e-32
-9.93516e-30
-1.97177e-26
-1.06604e-24
-4.37261e-23
-1.06606e-24
-1.96731e-26
-9.9074e-30
-1.28357e-32
0
0
0
0
0
0
0
0
0
0
0
-9.96379e-33
-7.10431e-30
-1.3023e-26
-7.23161e-25
-2.95684e-23
-7.23165e-25
-1.30196e-26
-7.16772e-30
-1.01952e-32
0
0
0
0
0
0
0
0
0
0
0
-8.65866e-50
-2.69159e-32
-3.16817e-29
-8.4033e-27
-6.81826e-25
-8.40125e-27
-3.17401e-29
-3.01483e-32
-1.1013e-49
0
0
0
0
0
0
)
;
    }
}


// ************************************************************************* //
