/*--------------------------------*- C++ -*----------------------------------*\
| =========                 |                                                 |
| \\      /  F ield         | OpenFOAM: The Open Source CFD Toolbox           |
|  \\    /   O peration     | Version:  5.x                                   |
|   \\  /    A nd           | Web:      www.OpenFOAM.org                      |
|    \\/     M anipulation  |                                                 |
\*---------------------------------------------------------------------------*/
FoamFile
{
    version     2.0;
    format      ascii;
    class       volVectorField;
    location    "0.01";
    object      U;
}
// * * * * * * * * * * * * * * * * * * * * * * * * * * * * * * * * * * * * * //

dimensions      [0 1 -1 0 0 0 0];

internalField   nonuniform List<vector> 
320
(
(-2.18219e-10 3.27669e-10 -2.18219e-10)
(-1.72622e-11 -9.89235e-10 -2.6716e-10)
(5.11534e-10 1.50996e-11 -2.59589e-10)
(3.03559e-10 1.536e-09 -2.22454e-10)
(-1.07229e-09 1.62936e-09 -1.07229e-09)
(-2.7798e-10 -1.58335e-09 -1.29782e-09)
(2.03548e-09 3.86943e-10 -1.23632e-09)
(1.20917e-09 3.47822e-09 -1.03297e-09)
(-3.37916e-09 6.28964e-09 -3.37916e-09)
(-1.25026e-09 -2.84583e-09 -4.45883e-09)
(5.59733e-09 1.88364e-09 -4.13466e-09)
(3.36604e-09 9.61211e-09 -3.29358e-09)
(-1.00902e-08 2.0158e-08 -1.00902e-08)
(-4.69453e-09 -7.36661e-09 -1.45884e-08)
(1.45876e-08 6.31861e-09 -1.31259e-08)
(8.88172e-09 2.68302e-08 -9.68358e-09)
(-3.06425e-08 6.71337e-08 -3.06425e-08)
(-1.51928e-08 7.80468e-09 -4.54281e-08)
(4.00667e-08 2.78704e-08 -4.09158e-08)
(2.37588e-08 7.64582e-08 -2.78708e-08)
(-6.86308e-08 1.53722e-07 -6.86308e-08)
(-4.44275e-08 -7.29718e-08 -1.46505e-07)
(8.40334e-08 2.37607e-08 -1.16373e-07)
(5.71258e-08 1.85124e-07 -6.65528e-08)
(-2.56231e-07 5.84749e-07 -2.56231e-07)
(-1.46439e-07 3.6414e-07 -4.96749e-07)
(3.00226e-07 4.25447e-07 -4.16334e-07)
(1.85083e-07 6.01901e-07 -2.25227e-07)
(-2.87886e-07 9.52292e-07 -2.87886e-07)
(-2.09702e-07 -3.35326e-07 -9.12868e-07)
(3.28413e-07 2.56275e-08 -6.26408e-07)
(2.33774e-07 9.9108e-07 -2.58291e-07)
(-1.53646e-06 3.50875e-06 -1.53646e-06)
(-1.08073e-06 3.79754e-06 -6.80835e-06)
(1.63662e-06 3.73291e-06 -4.96095e-06)
(1.15068e-06 3.47906e-06 -1.37556e-06)
(1.54987e-11 6.0251e-06 1.54987e-11)
(-1.09069e-12 7.41242e-06 2.76437e-11)
(-1.84234e-11 7.16395e-06 -3.38658e-12)
(-1.47869e-11 5.89037e-06 1.48727e-11)
(1.53647e-06 3.50865e-06 1.53647e-06)
(1.08072e-06 3.79737e-06 6.80836e-06)
(-1.63662e-06 3.73279e-06 4.96094e-06)
(-1.15069e-06 3.47899e-06 1.37557e-06)
(2.87856e-07 9.52223e-07 2.87856e-07)
(2.09691e-07 -3.35414e-07 9.12734e-07)
(-3.28381e-07 2.55536e-08 6.26359e-07)
(-2.33762e-07 9.91025e-07 2.58271e-07)
(2.56228e-07 5.84746e-07 2.56228e-07)
(1.46435e-07 3.64163e-07 4.96739e-07)
(-3.00227e-07 4.25449e-07 4.16328e-07)
(-1.85084e-07 6.0189e-07 2.25226e-07)
(6.86257e-08 1.53726e-07 6.86257e-08)
(4.4422e-08 -7.29689e-08 1.46497e-07)
(-8.40346e-08 2.37571e-08 1.16368e-07)
(-5.7127e-08 1.85116e-07 6.65491e-08)
(3.06393e-08 6.71514e-08 3.06393e-08)
(1.51826e-08 7.82556e-09 4.5424e-08)
(-4.00801e-08 2.78758e-08 4.09128e-08)
(-2.37653e-08 7.64505e-08 2.78689e-08)
(1.00877e-08 2.01963e-08 1.00877e-08)
(4.67595e-09 -7.32632e-09 1.45866e-08)
(-1.46174e-08 6.33429e-09 1.31248e-08)
(-8.89558e-09 2.68139e-08 9.68044e-09)
(3.37727e-09 6.35217e-09 3.37727e-09)
(1.21623e-09 -2.75887e-09 4.45711e-09)
(-5.66731e-09 1.90711e-09 4.13194e-09)
(-3.40412e-09 9.56108e-09 3.29136e-09)
(1.09264e-09 1.71894e-09 1.09264e-09)
(2.18008e-10 -1.40211e-09 1.316e-09)
(-2.20363e-09 4.25655e-10 1.25792e-09)
(-1.29693e-09 3.32979e-09 1.0512e-09)
(3.03146e-10 4.26421e-10 3.03146e-10)
(-6.92979e-11 -6.02804e-10 3.62568e-10)
(-9.04181e-10 7.68439e-11 3.52416e-10)
(-5.2278e-10 1.11841e-09 3.04224e-10)
(8.08872e-11 6.33855e-11 8.08872e-11)
(-1.1866e-10 -1.62612e-10 9.51793e-11)
(-4.62378e-10 4.31326e-12 9.55898e-11)
(-2.60164e-10 2.64749e-10 8.59382e-11)
(-2.6716e-10 -9.89235e-10 -1.72622e-11)
(-5.36604e-11 -2.5754e-09 -5.36604e-11)
(5.58994e-10 -1.49138e-09 -9.64949e-11)
(3.43384e-10 2.78124e-10 -8.79517e-11)
(-1.29782e-09 -1.58335e-09 -2.7798e-10)
(-4.21933e-10 -5.82596e-09 -4.21933e-10)
(2.30836e-09 -3.51981e-09 -5.84169e-10)
(1.42193e-09 3.96147e-10 -5.11659e-10)
(-4.45883e-09 -2.84583e-09 -1.25026e-09)
(-1.94896e-09 -1.62875e-08 -1.94896e-09)
(6.77667e-09 -1.01017e-08 -2.4543e-09)
(4.22809e-09 9.31614e-10 -1.97727e-09)
(-1.45884e-08 -7.36661e-09 -4.69453e-09)
(-7.58128e-09 -4.86866e-08 -7.58128e-09)
(1.95283e-08 -3.07077e-08 -9.07863e-09)
(1.23685e-08 2.18418e-09 -6.68975e-09)
(-4.54281e-08 7.80468e-09 -1.51928e-08)
(-2.50515e-08 -1.25845e-07 -2.50515e-08)
(5.76333e-08 -7.64928e-08 -3.25622e-08)
(3.69014e-08 1.93332e-08 -2.06581e-08)
(-1.46505e-07 -7.29718e-08 -4.44275e-08)
(-9.14014e-08 -5.27614e-07 -9.14014e-08)
(1.64706e-07 -3.53415e-07 -1.03553e-07)
(1.07139e-07 -1.20652e-08 -5.6872e-08)
(-4.96749e-07 3.6414e-07 -1.46439e-07)
(-3.0342e-07 -4.14198e-07 -3.0342e-07)
(5.72531e-07 -9.15985e-08 -3.94128e-07)
(3.76673e-07 4.10431e-07 -1.88084e-07)
(-9.12868e-07 -3.35326e-07 -2.09702e-07)
(-5.4725e-07 -6.74198e-06 -5.4725e-07)
(9.91481e-07 -4.57449e-06 -6.99374e-07)
(6.0158e-07 -1.58477e-07 -2.40183e-07)
(-6.80835e-06 3.79754e-06 -1.08073e-06)
(-4.50056e-06 2.95405e-06 -4.50056e-06)
(7.11487e-06 3.27099e-06 -5.69316e-06)
(4.73558e-06 3.75757e-06 -1.35675e-06)
(2.76437e-11 7.41242e-06 -1.09074e-12)
(1.30727e-10 -6.67412e-05 1.30727e-10)
(-1.99879e-10 -4.0325e-05 1.07908e-10)
(-9.62146e-13 7.61988e-06 8.75426e-12)
(6.80836e-06 3.79737e-06 1.08072e-06)
(4.50059e-06 2.95546e-06 4.50059e-06)
(-7.11499e-06 3.27126e-06 5.69321e-06)
(-4.73554e-06 3.75745e-06 1.35673e-06)
(9.12734e-07 -3.35414e-07 2.09691e-07)
(5.47197e-07 -6.74214e-06 5.47197e-07)
(-9.91316e-07 -4.57458e-06 6.99305e-07)
(-6.01537e-07 -1.58553e-07 2.40165e-07)
(4.96739e-07 3.64163e-07 1.46435e-07)
(3.03412e-07 -4.14031e-07 3.03412e-07)
(-5.72523e-07 -9.15421e-08 3.94117e-07)
(-3.7667e-07 4.10437e-07 1.8808e-07)
(1.46497e-07 -7.29689e-08 4.4422e-08)
(9.13955e-08 -5.27605e-07 9.13955e-08)
(-1.64702e-07 -3.53415e-07 1.03546e-07)
(-1.07138e-07 -1.20744e-08 5.68667e-08)
(4.5424e-08 7.82556e-09 1.51826e-08)
(2.50412e-08 -1.25817e-07 2.50412e-08)
(-5.76447e-08 -7.64831e-08 3.25526e-08)
(-3.69067e-08 1.9326e-08 2.06495e-08)
(1.45866e-08 -7.32632e-09 4.67595e-09)
(7.56377e-09 -4.86433e-08 7.56377e-09)
(-1.95601e-08 -3.06915e-08 9.06168e-09)
(-1.23847e-08 2.16749e-09 6.67311e-09)
(4.45711e-09 -2.75887e-09 1.21623e-09)
(1.91358e-09 -1.61792e-08 1.91358e-09)
(-6.84856e-09 -1.00554e-08 2.42081e-09)
(-4.2664e-09 9.01604e-10 1.94636e-09)
(1.316e-09 -1.40211e-09 2.18008e-10)
(3.61762e-10 -5.54328e-09 3.61762e-10)
(-2.47922e-09 -3.3836e-09 5.36511e-10)
(-1.51423e-09 3.32401e-10 4.66009e-10)
(3.62568e-10 -6.02804e-10 -6.92979e-11)
(-2.84735e-11 -1.83834e-09 -2.84735e-11)
(-9.69996e-10 -1.09491e-09 3.28387e-11)
(-5.76054e-10 1.48362e-10 3.60275e-11)
(9.51793e-11 -1.62612e-10 -1.1866e-10)
(-1.08898e-10 -4.32335e-10 -1.08898e-10)
(-4.79736e-10 -2.543e-10 -8.33972e-11)
(-2.73823e-10 4.45042e-11 -7.00666e-11)
(-2.59589e-10 1.50996e-11 5.11534e-10)
(-9.64949e-11 -1.49138e-09 5.58994e-10)
(4.87609e-10 -6.7349e-10 4.87609e-10)
(3.20177e-10 9.51263e-10 4.18633e-10)
(-1.23632e-09 3.86943e-10 2.03548e-09)
(-5.84169e-10 -3.51981e-09 2.30836e-09)
(1.98227e-09 -1.97829e-09 1.98227e-09)
(1.31066e-09 1.62639e-09 1.67237e-09)
(-4.13466e-09 1.88364e-09 5.59733e-09)
(-2.4543e-09 -1.01017e-08 6.77667e-09)
(5.65489e-09 -6.62502e-09 5.65489e-09)
(3.91247e-09 3.53216e-09 4.58735e-09)
(-1.31259e-08 6.31861e-09 1.45876e-08)
(-9.07863e-09 -3.07077e-08 1.95283e-08)
(1.567e-08 -2.38113e-08 1.567e-08)
(1.14242e-08 8.42484e-09 1.19597e-08)
(-4.09158e-08 2.78704e-08 4.00667e-08)
(-3.25622e-08 -7.64928e-08 5.76333e-08)
(4.48954e-08 -6.65791e-08 4.48954e-08)
(3.60104e-08 2.70618e-08 3.17036e-08)
(-1.16373e-07 2.37607e-08 8.40334e-08)
(-1.03553e-07 -3.53415e-07 1.64706e-07)
(1.1948e-07 -3.38156e-07 1.1948e-07)
(1.0433e-07 1.97207e-08 7.1431e-08)
(-4.16334e-07 4.25447e-07 3.00226e-07)
(-3.94128e-07 -9.15985e-08 5.72531e-07)
(4.18094e-07 -1.67741e-07 4.18094e-07)
(3.92862e-07 4.25115e-07 2.36997e-07)
(-6.26408e-07 2.56275e-08 3.28413e-07)
(-6.99374e-07 -4.57449e-06 9.91481e-07)
(6.38939e-07 -5.30374e-06 6.38939e-07)
(6.90534e-07 -1.6758e-07 2.72562e-07)
(-4.96095e-06 3.73291e-06 1.63662e-06)
(-5.69316e-06 3.27099e-06 7.11487e-06)
(4.79719e-06 3.08063e-06 4.79719e-06)
(5.47336e-06 3.72522e-06 1.35262e-06)
(-3.38656e-12 7.16395e-06 -1.84234e-11)
(1.07908e-10 -4.0325e-05 -1.99879e-10)
(-1.16285e-10 -5.55506e-05 -1.16285e-10)
(-2.29186e-12 7.29331e-06 -6.90287e-12)
(4.96094e-06 3.73279e-06 -1.63662e-06)
(5.69321e-06 3.27126e-06 -7.11499e-06)
(-4.79724e-06 3.08131e-06 -4.79724e-06)
(-5.47335e-06 3.72509e-06 -1.35261e-06)
(6.26359e-07 2.55536e-08 -3.28381e-07)
(6.99305e-07 -4.57458e-06 -9.91316e-07)
(-6.38879e-07 -5.30384e-06 -6.38879e-07)
(-6.90486e-07 -1.6766e-07 -2.72542e-07)
(4.16328e-07 4.25449e-07 -3.00227e-07)
(3.94117e-07 -9.15421e-08 -5.72523e-07)
(-4.18091e-07 -1.67682e-07 -4.18091e-07)
(-3.92857e-07 4.25117e-07 -2.36999e-07)
(1.16368e-07 2.37571e-08 -8.40346e-08)
(1.03546e-07 -3.53415e-07 -1.64702e-07)
(-1.19481e-07 -3.38159e-07 -1.19481e-07)
(-1.0433e-07 1.97063e-08 -7.1434e-08)
(4.09128e-08 2.78758e-08 -4.00801e-08)
(3.25526e-08 -7.64831e-08 -5.76447e-08)
(-4.49078e-08 -6.65843e-08 -4.49078e-08)
(-3.60162e-08 2.70427e-08 -3.17162e-08)
(1.31248e-08 6.33429e-09 -1.46174e-08)
(9.06168e-09 -3.06915e-08 -1.95601e-08)
(-1.57003e-08 -2.38191e-08 -1.57003e-08)
(-1.14386e-08 8.38599e-09 -1.19875e-08)
(4.13194e-09 1.90711e-09 -5.66731e-09)
(2.42081e-09 -1.00554e-08 -6.84856e-09)
(-5.72323e-09 -6.63169e-09 -5.72323e-09)
(-3.94978e-09 3.45137e-09 -4.65053e-09)
(1.25792e-09 4.25655e-10 -2.20363e-09)
(5.36511e-10 -3.3836e-09 -2.47922e-09)
(-2.14163e-09 -1.97052e-09 -2.14163e-09)
(-1.40009e-09 1.45334e-09 -1.81845e-09)
(3.52416e-10 7.68439e-11 -9.04181e-10)
(3.28387e-11 -1.09491e-09 -9.69996e-10)
(-8.61384e-10 -5.52351e-10 -8.61384e-10)
(-5.35389e-10 5.88743e-10 -7.53222e-10)
(9.55898e-11 4.31325e-12 -4.62378e-10)
(-8.33972e-11 -2.543e-10 -4.79736e-10)
(-4.37022e-10 -1.19657e-10 -4.37022e-10)
(-2.56657e-10 1.55263e-10 -3.91571e-10)
(-2.22454e-10 1.536e-09 3.03559e-10)
(-8.79517e-11 2.78124e-10 3.43384e-10)
(4.18633e-10 9.51263e-10 3.20177e-10)
(2.74193e-10 2.32371e-09 2.74193e-10)
(-1.03297e-09 3.47822e-09 1.20917e-09)
(-5.11659e-10 3.96147e-10 1.42193e-09)
(1.67237e-09 1.62639e-09 1.31066e-09)
(1.11092e-09 4.50378e-09 1.11092e-09)
(-3.29358e-09 9.61211e-09 3.36604e-09)
(-1.97727e-09 9.31614e-10 4.22809e-09)
(4.58735e-09 3.53216e-09 3.91247e-09)
(3.1571e-09 1.10662e-08 3.1571e-09)
(-9.68358e-09 2.68302e-08 8.88172e-09)
(-6.68975e-09 2.18418e-09 1.23685e-08)
(1.19597e-08 8.42484e-09 1.14242e-08)
(8.65355e-09 2.89273e-08 8.65355e-09)
(-2.78708e-08 7.64582e-08 2.37588e-08)
(-2.06581e-08 1.93332e-08 3.69014e-08)
(3.17036e-08 2.70618e-08 3.60104e-08)
(2.36671e-08 7.78555e-08 2.36671e-08)
(-6.65528e-08 1.85124e-07 5.71258e-08)
(-5.6872e-08 -1.20652e-08 1.07139e-07)
(7.1431e-08 1.97207e-08 1.0433e-07)
(5.93873e-08 1.90889e-07 5.93873e-08)
(-2.25227e-07 6.01901e-07 1.85083e-07)
(-1.88084e-07 4.10431e-07 3.76673e-07)
(2.36997e-07 4.25115e-07 3.92862e-07)
(1.95287e-07 6.04869e-07 1.95287e-07)
(-2.58291e-07 9.9108e-07 2.33774e-07)
(-2.40183e-07 -1.58477e-07 6.0158e-07)
(2.72562e-07 -1.6758e-07 6.90534e-07)
(2.39659e-07 9.46673e-07 2.39659e-07)
(-1.37556e-06 3.47906e-06 1.15068e-06)
(-1.35675e-06 3.75757e-06 4.73558e-06)
(1.35262e-06 3.72522e-06 5.47336e-06)
(1.31127e-06 3.47234e-06 1.31127e-06)
(1.48727e-11 5.89037e-06 -1.47869e-11)
(8.75433e-12 7.61988e-06 -9.62172e-13)
(-6.90282e-12 7.29331e-06 -2.29188e-12)
(-1.37846e-11 5.95382e-06 -1.37846e-11)
(1.37557e-06 3.47899e-06 -1.15069e-06)
(1.35673e-06 3.75745e-06 -4.73554e-06)
(-1.35261e-06 3.72509e-06 -5.47335e-06)
(-1.31127e-06 3.47227e-06 -1.31127e-06)
(2.58271e-07 9.91025e-07 -2.33762e-07)
(2.40165e-07 -1.58553e-07 -6.01537e-07)
(-2.72542e-07 -1.6766e-07 -6.90486e-07)
(-2.39643e-07 9.4661e-07 -2.39643e-07)
(2.25226e-07 6.0189e-07 -1.85084e-07)
(1.8808e-07 4.10437e-07 -3.7667e-07)
(-2.36999e-07 4.25117e-07 -3.92857e-07)
(-1.95287e-07 6.04853e-07 -1.95287e-07)
(6.65491e-08 1.85116e-07 -5.7127e-08)
(5.68667e-08 -1.20744e-08 -1.07138e-07)
(-7.1434e-08 1.97063e-08 -1.0433e-07)
(-5.93885e-08 1.9087e-07 -5.93885e-08)
(2.78689e-08 7.64505e-08 -2.37653e-08)
(2.06495e-08 1.9326e-08 -3.69067e-08)
(-3.17162e-08 2.70427e-08 -3.60162e-08)
(-2.36729e-08 7.78241e-08 -2.36729e-08)
(9.68044e-09 2.68139e-08 -8.89558e-09)
(6.67311e-09 2.16749e-09 -1.23847e-08)
(-1.19875e-08 8.38599e-09 -1.14386e-08)
(-8.66754e-09 2.88614e-08 -8.66754e-09)
(3.29136e-09 9.56108e-09 -3.40412e-09)
(1.94636e-09 9.01604e-10 -4.2664e-09)
(-4.65053e-09 3.45137e-09 -3.94978e-09)
(-3.19049e-09 1.09211e-08 -3.19049e-09)
(1.0512e-09 3.32979e-09 -1.29693e-09)
(4.66009e-10 3.324e-10 -1.51423e-09)
(-1.81845e-09 1.45334e-09 -1.40009e-09)
(-1.19058e-09 4.16842e-09 -1.19058e-09)
(3.04224e-10 1.11841e-09 -5.2278e-10)
(3.60275e-11 1.48362e-10 -5.76054e-10)
(-7.53222e-10 5.88743e-10 -5.35389e-10)
(-4.68554e-10 1.54209e-09 -4.68554e-10)
(8.59382e-11 2.64749e-10 -2.60164e-10)
(-7.00666e-11 4.45042e-11 -2.73823e-10)
(-3.91571e-10 1.55263e-10 -2.56657e-10)
(-2.31339e-10 3.8916e-10 -2.31339e-10)
)
;

boundaryField
{
    inlet
    {
        type            fixedValue;
        value           uniform (0 0 0);
    }
    outlet
    {
        type            zeroGradient;
    }
    walls
    {
        type            fixedValue;
        value           uniform (0 0 0);
    }
}


// ************************************************************************* //
