/*--------------------------------*- C++ -*----------------------------------*\
| =========                 |                                                 |
| \\      /  F ield         | OpenFOAM: The Open Source CFD Toolbox           |
|  \\    /   O peration     | Version:  5.x                                   |
|   \\  /    A nd           | Web:      www.OpenFOAM.org                      |
|    \\/     M anipulation  |                                                 |
\*---------------------------------------------------------------------------*/
FoamFile
{
    version     2.0;
    format      ascii;
    class       volVectorField;
    location    "0.01";
    object      Us;
}
// * * * * * * * * * * * * * * * * * * * * * * * * * * * * * * * * * * * * * //

dimensions      [0 1 -1 0 0 0 0];

internalField   nonuniform List<vector> 
320
(
(-1.2507e-30 -2.44351e-20 -1.2507e-30)
(-8.39083e-30 -1.63933e-19 -8.39084e-30)
(-8.37944e-30 -1.63711e-19 -8.37946e-30)
(-1.19137e-30 -2.3276e-20 -1.19137e-30)
(-7.38246e-29 -1.44232e-18 -7.38247e-29)
(-5.44879e-28 -1.06454e-17 -5.4488e-28)
(-5.44349e-28 -1.0635e-17 -5.4435e-28)
(-7.08523e-29 -1.38425e-18 -7.08524e-29)
(-4.331e-27 -8.46155e-17 -4.33101e-27)
(-3.54791e-26 -6.93162e-16 -3.54792e-26)
(-3.54555e-26 -6.927e-16 -3.54556e-26)
(-4.18663e-27 -8.17948e-17 -4.18663e-27)
(-2.47056e-25 -4.82678e-15 -2.47057e-25)
(-2.27462e-24 -4.44397e-14 -2.27463e-24)
(-2.27364e-24 -4.44205e-14 -2.27365e-24)
(-2.40481e-25 -4.69833e-15 -2.40482e-25)
(-1.35913e-23 -2.65536e-13 -1.35914e-23)
(-1.42887e-22 -2.79161e-12 -1.42887e-22)
(-1.42851e-22 -2.7909e-12 -1.42851e-22)
(-1.33176e-23 -2.60187e-13 -1.33176e-23)
(-7.12187e-22 -1.39141e-11 -7.12189e-22)
(-8.72865e-21 -1.70533e-10 -8.72867e-21)
(-8.72747e-21 -1.7051e-10 -8.72749e-21)
(-7.02207e-22 -1.37191e-11 -7.02209e-22)
(-3.48353e-20 -6.80584e-10 -3.48354e-20)
(-5.12009e-19 -1.00032e-08 -5.12011e-19)
(-5.11979e-19 -1.00026e-08 -5.1198e-19)
(-3.45439e-20 -6.7489e-10 -3.4544e-20)
(-1.53373e-18 -2.99648e-08 -1.53374e-18)
(-2.81636e-17 -5.50238e-07 -2.81637e-17)
(-2.81631e-17 -5.50228e-07 -2.81632e-17)
(-1.52838e-18 -2.98602e-08 -1.52838e-18)
(-5.6282e-17 -1.09959e-06 -5.62822e-17)
(-1.3774e-15 -2.69105e-05 -1.3774e-15)
(-1.3774e-15 -2.69104e-05 -1.3774e-15)
(-5.62788e-17 -1.09953e-06 -5.6279e-17)
(-1.37727e-15 -2.6908e-05 -1.37727e-15)
(-5.0539e-14 -0.000987389 -5.05391e-14)
(-5.05389e-14 -0.000987386 -5.0539e-14)
(-1.37714e-15 -2.69054e-05 -1.37714e-15)
(-5.62587e-17 -1.09914e-06 -5.62588e-17)
(-1.37716e-15 -2.69058e-05 -1.37716e-15)
(-1.37741e-15 -2.69107e-05 -1.37741e-15)
(-5.6269e-17 -1.09934e-06 -5.62692e-17)
(-1.27412e-18 -2.48927e-08 -1.27412e-18)
(-2.80271e-17 -5.47569e-07 -2.80271e-17)
(-2.81451e-17 -5.49875e-07 -2.81451e-17)
(-1.4002e-18 -2.7356e-08 -1.40021e-18)
(-2.40474e-20 -4.69819e-10 -2.40475e-20)
(-5.03095e-19 -9.82906e-09 -5.03096e-19)
(-5.09482e-19 -9.95384e-09 -5.09483e-19)
(-3.10704e-20 -6.07028e-10 -3.10705e-20)
(-4.15741e-22 -8.12239e-12 -4.15741e-22)
(-8.44051e-21 -1.64904e-10 -8.44053e-21)
(-8.63389e-21 -1.68682e-10 -8.63391e-21)
(-6.31552e-22 -1.23387e-11 -6.31553e-22)
(-6.82473e-24 -1.33336e-13 -6.82474e-24)
(-1.35739e-22 -2.65195e-12 -1.35739e-22)
(-1.40351e-22 -2.74206e-12 -1.40351e-22)
(-1.20393e-23 -2.35213e-13 -1.20393e-23)
(-1.08266e-25 -2.11521e-15 -1.08266e-25)
(-2.12049e-24 -4.14283e-14 -2.12049e-24)
(-2.21701e-24 -4.33141e-14 -2.21702e-24)
(-2.18787e-25 -4.27448e-15 -2.18788e-25)
(-1.67629e-27 -3.27499e-17 -1.67629e-27)
(-3.24327e-26 -6.33644e-16 -3.24328e-26)
(-3.42931e-26 -6.6999e-16 -3.42932e-26)
(-3.83298e-27 -7.48856e-17 -3.83299e-27)
(-2.54876e-29 -4.97955e-19 -2.54876e-29)
(-4.88138e-28 -9.53684e-18 -4.88139e-28)
(-5.22013e-28 -1.01987e-17 -5.22014e-28)
(-6.52441e-29 -1.27468e-18 -6.52442e-29)
(-3.82125e-31 -7.46563e-21 -3.82125e-31)
(-7.25447e-30 -1.41732e-19 -7.25449e-30)
(-7.84618e-30 -1.53292e-19 -7.8462e-30)
(-1.08513e-30 -2.12003e-20 -1.08513e-30)
(-5.78658e-33 -1.13053e-22 -5.7866e-33)
(-1.08326e-31 -2.11637e-21 -1.08326e-31)
(-1.18475e-31 -2.31466e-21 -1.18475e-31)
(-1.7997e-32 -3.51611e-22 -1.79971e-32)
(-8.39083e-30 -1.63933e-19 -8.39084e-30)
(-6.17634e-29 -1.20668e-18 -6.17635e-29)
(-6.16479e-29 -1.20443e-18 -6.1648e-29)
(-7.98881e-30 -1.56079e-19 -7.98883e-30)
(-5.44879e-28 -1.06454e-17 -5.4488e-28)
(-4.45816e-27 -8.70998e-17 -4.45817e-27)
(-4.45236e-27 -8.69866e-17 -4.45237e-27)
(-5.23481e-28 -1.02273e-17 -5.23482e-28)
(-3.54791e-26 -6.93162e-16 -3.54792e-26)
(-3.26302e-25 -6.37502e-15 -3.26303e-25)
(-3.26022e-25 -6.36956e-15 -3.26023e-25)
(-3.43755e-26 -6.71601e-16 -3.43756e-26)
(-2.27462e-24 -4.44397e-14 -2.27463e-24)
(-2.3891e-23 -4.66762e-13 -2.3891e-23)
(-2.38785e-23 -4.66518e-13 -2.38785e-23)
(-2.22145e-24 -4.34009e-14 -2.22146e-24)
(-1.42887e-22 -2.79161e-12 -1.42887e-22)
(-1.74985e-21 -3.4187e-11 -1.74985e-21)
(-1.74934e-21 -3.41772e-11 -1.74935e-21)
(-1.40576e-22 -2.74647e-12 -1.40577e-22)
(-8.72865e-21 -1.70533e-10 -8.72867e-21)
(-1.28209e-19 -2.50485e-09 -1.2821e-19)
(-1.28192e-19 -2.50452e-09 -1.28193e-19)
(-8.6444e-21 -1.68887e-10 -8.64442e-21)
(-5.12009e-19 -1.00032e-08 -5.12011e-19)
(-9.39715e-18 -1.83594e-07 -9.39717e-18)
(-9.39674e-18 -1.83586e-07 -9.39676e-18)
(-5.09902e-19 -9.96205e-09 -5.09904e-19)
(-2.81636e-17 -5.50238e-07 -2.81637e-17)
(-6.89019e-16 -1.34615e-05 -6.89021e-16)
(-6.89015e-16 -1.34614e-05 -6.89017e-16)
(-2.8157e-17 -5.50109e-07 -2.81571e-17)
(-1.3774e-15 -2.69105e-05 -1.3774e-15)
(-5.0539e-14 -0.000987389 -5.05391e-14)
(-5.0539e-14 -0.000987389 -5.05391e-14)
(-1.3774e-15 -2.69105e-05 -1.3774e-15)
(-5.0539e-14 -0.000987389 -5.05391e-14)
(-3.70802e-12 -0.0724441 -3.70802e-12)
(-3.70802e-12 -0.0724441 -3.70802e-12)
(-5.05389e-14 -0.000987386 -5.0539e-14)
(-1.37716e-15 -2.69058e-05 -1.37716e-15)
(-5.05387e-14 -0.000987384 -5.05388e-14)
(-5.0539e-14 -0.000987389 -5.05391e-14)
(-1.37754e-15 -2.69132e-05 -1.37754e-15)
(-2.80271e-17 -5.47569e-07 -2.80271e-17)
(-6.89e-16 -1.34611e-05 -6.89002e-16)
(-6.8889e-16 -1.3459e-05 -6.88891e-16)
(-2.80372e-17 -5.47768e-07 -2.80373e-17)
(-5.03095e-19 -9.82906e-09 -5.03096e-19)
(-9.39303e-18 -1.83513e-07 -9.39305e-18)
(-9.39339e-18 -1.8352e-07 -9.39341e-18)
(-5.08501e-19 -9.93467e-09 -5.08502e-19)
(-8.44051e-21 -1.64904e-10 -8.44053e-21)
(-1.2805e-19 -2.50173e-09 -1.2805e-19)
(-1.28125e-19 -2.5032e-09 -1.28125e-19)
(-8.65579e-21 -1.6911e-10 -8.65581e-21)
(-1.35739e-22 -2.65195e-12 -1.35739e-22)
(-1.74555e-21 -3.41031e-11 -1.74555e-21)
(-1.74814e-21 -3.41537e-11 -1.74815e-21)
(-1.4154e-22 -2.76529e-12 -1.4154e-22)
(-2.12049e-24 -4.14283e-14 -2.12049e-24)
(-2.37937e-23 -4.64862e-13 -2.37938e-23)
(-2.38583e-23 -4.66124e-13 -2.38584e-23)
(-2.25119e-24 -4.39818e-14 -2.25119e-24)
(-3.24327e-26 -6.33644e-16 -3.24328e-26)
(-3.24313e-25 -6.33615e-15 -3.24313e-25)
(-3.25698e-25 -6.36321e-15 -3.25698e-25)
(-3.50864e-26 -6.85489e-16 -3.50865e-26)
(-4.88138e-28 -9.53684e-18 -4.88139e-28)
(-4.42012e-27 -8.63566e-17 -4.42012e-27)
(-4.44727e-27 -8.6887e-17 -4.44727e-27)
(-5.38452e-28 -1.05198e-17 -5.38453e-28)
(-7.25447e-30 -1.41732e-19 -7.25449e-30)
(-6.02378e-29 -1.17688e-18 -6.02379e-29)
(-6.07389e-29 -1.18667e-18 -6.0739e-29)
(-8.16323e-30 -1.59487e-19 -8.16325e-30)
(-1.08326e-31 -2.11637e-21 -1.08326e-31)
(-8.32074e-31 -1.62564e-20 -8.32076e-31)
(-8.41054e-31 -1.64318e-20 -8.41055e-31)
(-1.24374e-31 -2.42991e-21 -1.24374e-31)
(-8.37944e-30 -1.63711e-19 -8.37946e-30)
(-6.16479e-29 -1.20443e-18 -6.1648e-29)
(-6.10858e-29 -1.19344e-18 -6.10859e-29)
(-7.47868e-30 -1.46112e-19 -7.4787e-30)
(-5.44349e-28 -1.0635e-17 -5.4435e-28)
(-4.45236e-27 -8.69866e-17 -4.45237e-27)
(-4.42167e-27 -8.6387e-17 -4.42168e-27)
(-4.95354e-28 -9.67782e-18 -4.95355e-28)
(-3.54555e-26 -6.927e-16 -3.54556e-26)
(-3.26022e-25 -6.36956e-15 -3.26023e-25)
(-3.244e-25 -6.33787e-15 -3.24401e-25)
(-3.28745e-26 -6.42275e-16 -3.28746e-26)
(-2.27364e-24 -4.44205e-14 -2.27365e-24)
(-2.38785e-23 -4.66518e-13 -2.38785e-23)
(-2.37985e-23 -4.64955e-13 -2.37986e-23)
(-2.14675e-24 -4.19415e-14 -2.14676e-24)
(-1.42851e-22 -2.7909e-12 -1.42851e-22)
(-1.74934e-21 -3.41772e-11 -1.74935e-21)
(-1.7458e-21 -3.4108e-11 -1.7458e-21)
(-1.37237e-22 -2.68122e-12 -1.37237e-22)
(-8.72747e-21 -1.7051e-10 -8.72749e-21)
(-1.28192e-19 -2.50452e-09 -1.28193e-19)
(-1.28062e-19 -2.50196e-09 -1.28062e-19)
(-8.52053e-21 -1.66467e-10 -8.52054e-21)
(-5.11979e-19 -1.00026e-08 -5.1198e-19)
(-9.39674e-18 -1.83586e-07 -9.39676e-18)
(-9.39354e-18 -1.83523e-07 -9.39356e-18)
(-5.06895e-19 -9.9033e-09 -5.06896e-19)
(-2.81631e-17 -5.50228e-07 -2.81632e-17)
(-6.89015e-16 -1.34614e-05 -6.89017e-16)
(-6.89017e-16 -1.34614e-05 -6.89019e-16)
(-2.81633e-17 -5.50231e-07 -2.81634e-17)
(-1.3774e-15 -2.69104e-05 -1.3774e-15)
(-5.0539e-14 -0.000987389 -5.05391e-14)
(-5.0539e-14 -0.000987389 -5.05391e-14)
(-1.3774e-15 -2.69105e-05 -1.3774e-15)
(-5.05389e-14 -0.000987386 -5.0539e-14)
(-3.70802e-12 -0.0724441 -3.70802e-12)
(-3.70802e-12 -0.0724441 -3.70802e-12)
(-5.0539e-14 -0.000987389 -5.05391e-14)
(-1.37741e-15 -2.69107e-05 -1.37741e-15)
(-5.0539e-14 -0.000987389 -5.05391e-14)
(-5.05387e-14 -0.000987384 -5.05389e-14)
(-1.37742e-15 -2.69108e-05 -1.37742e-15)
(-2.81451e-17 -5.49875e-07 -2.81451e-17)
(-6.8889e-16 -1.3459e-05 -6.88891e-16)
(-6.88767e-16 -1.34566e-05 -6.88769e-16)
(-2.81503e-17 -5.49978e-07 -2.81504e-17)
(-5.09482e-19 -9.95384e-09 -5.09483e-19)
(-9.39339e-18 -1.8352e-07 -9.39341e-18)
(-9.39038e-18 -1.83461e-07 -9.3904e-18)
(-5.11532e-19 -9.99388e-09 -5.11533e-19)
(-8.63389e-21 -1.68682e-10 -8.63391e-21)
(-1.28125e-19 -2.5032e-09 -1.28125e-19)
(-1.28072e-19 -2.50217e-09 -1.28072e-19)
(-8.71659e-21 -1.70298e-10 -8.71661e-21)
(-1.40351e-22 -2.74206e-12 -1.40351e-22)
(-1.74814e-21 -3.41537e-11 -1.74815e-21)
(-1.74738e-21 -3.41388e-11 -1.74738e-21)
(-1.42627e-22 -2.78654e-12 -1.42628e-22)
(-2.21701e-24 -4.33141e-14 -2.21702e-24)
(-2.38583e-23 -4.66124e-13 -2.38584e-23)
(-2.38493e-23 -4.65947e-13 -2.38493e-23)
(-2.26951e-24 -4.43399e-14 -2.26952e-24)
(-3.42931e-26 -6.6999e-16 -3.42932e-26)
(-3.25698e-25 -6.36321e-15 -3.25698e-25)
(-3.25625e-25 -6.3618e-15 -3.25626e-25)
(-3.53846e-26 -6.91314e-16 -3.53846e-26)
(-5.22013e-28 -1.01987e-17 -5.22014e-28)
(-4.44727e-27 -8.6887e-17 -4.44727e-27)
(-4.44747e-27 -8.6891e-17 -4.44748e-27)
(-5.432e-28 -1.06126e-17 -5.43201e-28)
(-7.84618e-30 -1.53292e-19 -7.8462e-30)
(-6.07389e-29 -1.18667e-18 -6.0739e-29)
(-6.07656e-29 -1.18719e-18 -6.07657e-29)
(-8.23788e-30 -1.60945e-19 -8.2379e-30)
(-1.18475e-31 -2.31466e-21 -1.18475e-31)
(-8.41054e-31 -1.64318e-20 -8.41055e-31)
(-8.4187e-31 -1.64478e-20 -8.41872e-31)
(-1.25553e-31 -2.45296e-21 -1.25554e-31)
(-1.19137e-30 -2.3276e-20 -1.19137e-30)
(-7.98881e-30 -1.56079e-19 -7.98883e-30)
(-7.47868e-30 -1.46112e-19 -7.4787e-30)
(-5.76937e-31 -1.12717e-20 -5.76938e-31)
(-7.08523e-29 -1.38425e-18 -7.08524e-29)
(-5.23481e-28 -1.02273e-17 -5.23482e-28)
(-4.95354e-28 -9.67782e-18 -4.95355e-28)
(-3.73727e-29 -7.30157e-19 -3.73728e-29)
(-4.18663e-27 -8.17948e-17 -4.18663e-27)
(-3.43755e-26 -6.71601e-16 -3.43756e-26)
(-3.28745e-26 -6.42275e-16 -3.28746e-26)
(-2.41998e-27 -4.72796e-17 -2.41999e-27)
(-2.40481e-25 -4.69833e-15 -2.40482e-25)
(-2.22145e-24 -4.34009e-14 -2.22146e-24)
(-2.14675e-24 -4.19415e-14 -2.14676e-24)
(-1.53497e-25 -2.9989e-15 -1.53497e-25)
(-1.33176e-23 -2.60187e-13 -1.33176e-23)
(-1.40576e-22 -2.74647e-12 -1.40577e-22)
(-1.37237e-22 -2.68122e-12 -1.37237e-22)
(-9.46493e-24 -1.84918e-13 -9.46495e-24)
(-7.02207e-22 -1.37191e-11 -7.02209e-22)
(-8.6444e-21 -1.68887e-10 -8.64442e-21)
(-8.52053e-21 -1.66467e-10 -8.52054e-21)
(-5.60183e-22 -1.09444e-11 -5.60184e-22)
(-3.45439e-20 -6.7489e-10 -3.4544e-20)
(-5.09902e-19 -9.96205e-09 -5.09904e-19)
(-5.06895e-19 -9.9033e-09 -5.06896e-19)
(-3.10703e-20 -6.07026e-10 -3.10704e-20)
(-1.52838e-18 -2.98602e-08 -1.52838e-18)
(-2.8157e-17 -5.50109e-07 -2.81571e-17)
(-2.81633e-17 -5.50231e-07 -2.81634e-17)
(-1.53025e-18 -2.98968e-08 -1.53026e-18)
(-5.62788e-17 -1.09953e-06 -5.6279e-17)
(-1.3774e-15 -2.69105e-05 -1.3774e-15)
(-1.3774e-15 -2.69105e-05 -1.3774e-15)
(-5.6286e-17 -1.09967e-06 -5.62861e-17)
(-1.37714e-15 -2.69054e-05 -1.37714e-15)
(-5.05389e-14 -0.000987386 -5.0539e-14)
(-5.0539e-14 -0.000987389 -5.05391e-14)
(-1.37727e-15 -2.6908e-05 -1.37728e-15)
(-5.6269e-17 -1.09934e-06 -5.62692e-17)
(-1.37754e-15 -2.69132e-05 -1.37754e-15)
(-1.37742e-15 -2.69108e-05 -1.37742e-15)
(-5.62761e-17 -1.09948e-06 -5.62762e-17)
(-1.4002e-18 -2.7356e-08 -1.40021e-18)
(-2.80372e-17 -5.47768e-07 -2.80373e-17)
(-2.81503e-17 -5.49978e-07 -2.81504e-17)
(-1.53324e-18 -2.99552e-08 -1.53325e-18)
(-3.10704e-20 -6.07028e-10 -3.10705e-20)
(-5.08501e-19 -9.93467e-09 -5.08502e-19)
(-5.11532e-19 -9.99388e-09 -5.11533e-19)
(-3.4815e-20 -6.80187e-10 -3.48151e-20)
(-6.31552e-22 -1.23387e-11 -6.31553e-22)
(-8.65579e-21 -1.6911e-10 -8.65581e-21)
(-8.71659e-21 -1.70298e-10 -8.71661e-21)
(-7.11573e-22 -1.39021e-11 -7.11575e-22)
(-1.20393e-23 -2.35213e-13 -1.20393e-23)
(-1.4154e-22 -2.76529e-12 -1.4154e-22)
(-1.42627e-22 -2.78654e-12 -1.42628e-22)
(-1.35758e-23 -2.65232e-13 -1.35758e-23)
(-2.18787e-25 -4.27448e-15 -2.18788e-25)
(-2.25119e-24 -4.39818e-14 -2.25119e-24)
(-2.26951e-24 -4.43399e-14 -2.26952e-24)
(-2.46704e-25 -4.81989e-15 -2.46704e-25)
(-3.83298e-27 -7.48856e-17 -3.83299e-27)
(-3.50864e-26 -6.85489e-16 -3.50865e-26)
(-3.53846e-26 -6.91314e-16 -3.53846e-26)
(-4.3236e-27 -8.44709e-17 -4.32361e-27)
(-6.52441e-29 -1.27468e-18 -6.52442e-29)
(-5.38452e-28 -1.05198e-17 -5.38453e-28)
(-5.432e-28 -1.06126e-17 -5.43201e-28)
(-7.36775e-29 -1.43945e-18 -7.36777e-29)
(-1.08513e-30 -2.12003e-20 -1.08513e-30)
(-8.16323e-30 -1.59487e-19 -8.16325e-30)
(-8.23788e-30 -1.60945e-19 -8.2379e-30)
(-1.22778e-30 -2.39873e-20 -1.22778e-30)
(-1.7997e-32 -3.51611e-22 -1.79971e-32)
(-1.24374e-31 -2.42991e-21 -1.24374e-31)
(-1.25553e-31 -2.45296e-21 -1.25554e-31)
(-2.0414e-32 -3.98832e-22 -2.04141e-32)
)
;

boundaryField
{
    inlet
    {
        type            zeroGradient;
    }
    outlet
    {
        type            zeroGradient;
    }
    walls
    {
        type            zeroGradient;
    }
}


// ************************************************************************* //
