/*--------------------------------*- C++ -*----------------------------------*\
| =========                 |                                                 |
| \\      /  F ield         | OpenFOAM: The Open Source CFD Toolbox           |
|  \\    /   O peration     | Version:  5.x                                   |
|   \\  /    A nd           | Web:      www.OpenFOAM.org                      |
|    \\/     M anipulation  |                                                 |
\*---------------------------------------------------------------------------*/
FoamFile
{
    version     2.0;
    format      ascii;
    class       volScalarField;
    location    "0.1";
    object      Ksl;
}
// * * * * * * * * * * * * * * * * * * * * * * * * * * * * * * * * * * * * * //

dimensions      [1 -3 -1 0 0 0 0];

internalField   nonuniform List<scalar> 
320
(
0
0
0
0
3.4205e-05
0.00022842
0.00016459
1.48919e-05
0.0010665
0.00531557
0.00402104
0.000354903
0.0326125
0.116563
0.0932457
0.0084251
0.62697
1.79962
1.17491
0.176099
2.92073
3.15473
1.52629
1.21683
1.59384
2.03776
1.34792
0.166305
0.120393
0.057981
0.0633684
0.0203366
0.00234046
0.000703891
0.000824043
0.00014715
5.70412e-06
9.4587e-06
8.70144e-06
1.77915e-06
0
0
0
0
0
0
0
0
0
0
0
0
0
0
0
0
0
0
0
0
0
0
0
0
0
0
0
0
0
0
0
0
0
0
0
0
0
0
0
0
0
3.78326e-05
2.67727e-05
0
0.00022842
0.00133129
0.00102775
0.00011073
0.00531557
0.0416501
0.0334987
0.00376943
0.116563
1.79566
1.58187
0.116313
1.79962
3.32669
1.56479
1.48254
3.15473
3.19577
1.50967
1.49836
2.03776
4.72222
1.82807
1.1127
0.057981
0.144188
0.139729
0.15091
0.000703891
0.00202399
0.00188501
0.00247898
9.4587e-06
4.04381e-05
2.91953e-05
1.1578e-05
0
1.29136e-06
8.8885e-07
0
0
0
0
0
0
0
0
0
0
0
0
0
0
0
0
0
0
0
0
0
0
0
0
0
0
0
0
0
0
0
0
0
0
0
0
0
0
2.67727e-05
2.10262e-05
0
0.00016459
0.00102775
0.000969867
0.000114093
0.00402104
0.0334987
0.0348221
0.00487724
0.0932457
1.58187
1.69737
0.141768
1.17491
1.56479
1.03951
0.978899
1.52629
1.50967
1.00884
1.01109
1.34792
1.82807
1.15214
0.804736
0.0633684
0.139729
0.135416
0.226236
0.000824043
0.00188501
0.00178165
0.00180075
8.70144e-06
2.91953e-05
1.95682e-05
9.15685e-06
0
8.8885e-07
7.69153e-07
0
0
0
0
0
0
0
0
0
0
0
0
0
0
0
0
0
0
0
0
0
0
0
0
0
0
0
0
0
0
0
0
0
0
0
0
0
0
0
0
0
1.48919e-05
0.00011073
0.000114093
0
0.000354903
0.00376943
0.00487724
0.000547517
0.0084251
0.116313
0.141768
0.0349915
0.176099
1.48254
0.978899
0.439417
1.21683
1.49836
1.01109
0.872593
0.166305
1.1127
0.804736
0.127249
0.0203366
0.15091
0.226236
0.0035032
0.00014715
0.00247898
0.00180075
8.88375e-05
1.77915e-06
1.1578e-05
9.15685e-06
3.00186e-06
0
0
0
0
0
0
0
0
0
0
0
0
0
0
0
0
0
0
0
0
0
0
0
0
0
0
0
0
0
0
0
0
0
0
0
0
0
0
0
0
)
;

boundaryField
{
    inlet
    {
        type            zeroGradient;
    }
    outlet
    {
        type            zeroGradient;
    }
    walls
    {
        type            zeroGradient;
    }
}


// ************************************************************************* //
