/*--------------------------------*- C++ -*----------------------------------*\
| =========                 |                                                 |
| \\      /  F ield         | OpenFOAM: The Open Source CFD Toolbox           |
|  \\    /   O peration     | Version:  5.x                                   |
|   \\  /    A nd           | Web:      www.OpenFOAM.org                      |
|    \\/     M anipulation  |                                                 |
\*---------------------------------------------------------------------------*/
FoamFile
{
    version     2.0;
    format      ascii;
    class       surfaceScalarField;
    location    "0.1";
    object      phi;
}
// * * * * * * * * * * * * * * * * * * * * * * * * * * * * * * * * * * * * * //

dimensions      [0 3 -1 0 0 0 0];

internalField   nonuniform List<scalar> 
784
(
-2.25913e-12
1.17169e-11
-2.25913e-12
-8.73801e-13
2.90147e-12
-7.53839e-12
1.80763e-14
3.13084e-12
-6.19697e-12
5.43084e-12
-5.67474e-12
-6.96776e-12
1.46829e-11
-6.96776e-12
-2.10876e-12
2.62392e-12
-2.89672e-11
9.01695e-13
4.36485e-12
-2.24036e-11
9.32039e-12
-1.8105e-11
-1.3365e-11
1.94296e-11
-1.3365e-11
-2.83888e-12
1.03955e-12
-7.1924e-11
3.64627e-12
6.01235e-12
-5.13781e-11
1.64937e-11
-3.64309e-11
-1.90936e-11
2.10308e-11
-1.90936e-11
-4.60106e-12
2.48269e-12
-1.76952e-10
8.34998e-12
7.19188e-12
-1.15757e-10
2.70328e-11
-6.50171e-11
-3.63291e-11
2.76092e-11
-3.63291e-11
8.95947e-13
1.61469e-11
-4.6275e-10
2.64859e-11
2.21126e-11
-2.78482e-10
4.62952e-11
-1.05583e-10
-2.02451e-11
8.89966e-12
-2.02451e-11
-9.93121e-13
-6.57144e-11
-6.43403e-10
2.76035e-11
-1.74698e-11
-3.67314e-10
4.94323e-11
-1.31932e-10
1.65336e-11
4.1886e-12
1.65336e-11
-8.81658e-13
-2.50007e-10
-2.3335e-10
1.00359e-11
-1.12687e-10
-1.60999e-10
2.01448e-11
-7.91009e-11
5.38411e-12
5.58257e-12
5.38411e-12
1.56779e-11
-2.57291e-10
1.30296e-10
2.16496e-11
-1.20714e-10
3.33965e-11
1.81507e-11
-2.95578e-12
-7.85187e-12
2.10246e-11
-7.85187e-12
6.20161e-12
-1.89792e-10
3.15245e-10
3.05631e-11
-8.14277e-11
1.09215e-10
2.14993e-11
6.1429e-11
3.92049e-11
2.97785e-11
3.92049e-11
3.30162e-12
-8.30704e-11
5.07196e-10
-2.45074e-11
-3.25249e-11
3.16103e-10
2.02098e-11
1.24017e-10
4.94302e-11
1.78414e-11
4.94302e-11
7.35571e-12
-2.5785e-11
3.98404e-10
-4.73223e-11
-1.85207e-11
3.28821e-10
1.47266e-11
1.11196e-10
1.66681e-11
1.52601e-11
1.66681e-11
5.48262e-12
-8.70449e-12
1.52702e-10
-1.18213e-11
-1.02478e-11
1.15775e-10
1.19027e-11
6.29036e-11
1.40815e-11
9.15751e-12
1.40815e-11
4.02375e-12
3.10976e-13
8.95541e-11
-1.34968e-11
-2.4562e-12
7.36175e-11
8.74921e-12
4.46012e-11
5.33763e-12
6.73936e-12
5.33763e-12
2.55797e-12
1.2557e-12
3.62833e-11
-3.01413e-12
-1.10511e-12
3.06227e-11
6.33731e-12
2.45415e-11
4.62484e-12
4.25184e-12
4.62484e-12
1.91453e-12
2.03891e-12
2.01588e-11
-3.01263e-12
7.90534e-13
1.8001e-11
4.08072e-12
1.60553e-11
2.14396e-12
2.91911e-12
2.14396e-12
1.35176e-12
1.45711e-12
9.51969e-12
-2.72763e-13
6.0119e-13
9.12017e-12
2.55506e-12
9.21093e-12
1.76135e-12
1.8691e-12
1.76135e-12
1.08404e-12
1.16415e-12
5.15389e-12
-2.45152e-13
7.37967e-13
5.18311e-12
1.47957e-12
5.66622e-12
1.0138e-12
1.17795e-12
1.0138e-12
8.15395e-13
6.94352e-13
2.83305e-12
3.38714e-13
4.11665e-13
3.04251e-12
8.01841e-13
3.33417e-12
8.11176e-13
6.36419e-13
8.11176e-13
6.64188e-13
3.83825e-13
1.6576e-12
2.98834e-13
2.37782e-13
1.83611e-12
3.63397e-13
2.0899e-12
5.15115e-13
5.15115e-13
5.03645e-13
9.48572e-13
3.69744e-13
1.08285e-12
1.19407e-12
-7.53839e-12
2.90147e-12
-8.73801e-13
-1.32952e-12
-4.22833e-11
-1.32952e-12
9.32352e-13
-2.88731e-11
-1.79369e-12
-1.90357e-11
-2.19475e-12
-2.89672e-11
2.62392e-12
-2.10876e-12
-2.65762e-12
-9.49025e-11
-2.65762e-12
7.65552e-12
-5.72435e-11
-4.34625e-12
-2.80806e-11
-5.39794e-12
-7.1924e-11
1.03955e-12
-2.83888e-12
-1.06405e-12
-2.36622e-10
-1.06405e-12
2.79286e-11
-1.31922e-10
-5.6926e-12
-4.30607e-11
-8.26691e-12
-1.76952e-10
2.48269e-12
-4.60106e-12
1.66487e-11
-6.23823e-10
1.66487e-11
9.13455e-11
-3.19069e-10
-3.30665e-12
-5.68329e-11
-9.26771e-12
-4.6275e-10
1.61469e-11
8.95947e-13
1.10166e-10
-1.76965e-09
1.10166e-10
2.99489e-10
-8.13712e-10
2.68376e-11
-1.21771e-11
-7.32296e-12
-6.43403e-10
-6.57144e-11
-9.93121e-13
1.54865e-10
-3.36619e-09
1.54865e-10
4.59135e-10
-1.52252e-09
3.72273e-11
6.12373e-11
-3.92032e-12
-2.3335e-10
-2.50007e-10
-8.81658e-13
1.1146e-11
-3.85518e-09
1.1146e-11
2.29175e-10
-1.90023e-09
-1.32201e-12
6.83398e-11
-9.16819e-12
1.30296e-10
-2.57291e-10
1.56779e-11
-6.39848e-11
-3.46662e-09
-6.39848e-11
-8.41525e-11
-1.83075e-09
-1.59183e-11
2.23027e-11
-1.64426e-11
3.15245e-10
-1.89792e-10
6.20161e-12
-9.14713e-11
-2.65319e-09
-9.14713e-11
-1.96656e-10
-1.56351e-09
-5.28389e-11
-4.62369e-11
-6.82102e-12
5.07196e-10
-8.30704e-11
3.30162e-12
-9.77833e-11
-1.44323e-09
-9.77833e-11
-3.71018e-10
-9.47854e-10
-2.63175e-11
-8.52293e-11
1.67136e-12
3.98404e-10
-2.5785e-11
7.35571e-12
-3.2798e-11
-5.80823e-10
-3.2798e-11
-3.05164e-10
-3.72065e-10
2.53996e-11
-7.17207e-11
1.17793e-11
1.52702e-10
-8.70449e-12
5.48262e-12
1.08292e-12
-2.77584e-10
1.08292e-12
-7.89264e-11
-1.90234e-10
1.39531e-11
-4.62481e-11
1.4767e-11
8.95541e-11
3.10976e-13
4.02375e-12
5.78934e-12
-1.10055e-10
5.78934e-12
-4.73144e-11
-7.59465e-11
1.24338e-11
-2.75218e-11
1.34041e-11
3.62833e-11
1.2557e-12
2.55797e-12
6.77035e-12
-5.10291e-11
6.77035e-12
-9.58132e-12
-3.77266e-11
8.75447e-12
-1.60728e-11
1.10446e-11
2.01588e-11
2.03891e-12
1.91453e-12
4.97911e-12
-2.06697e-11
4.97911e-12
-4.66991e-12
-1.6266e-11
6.1894e-12
-8.59488e-12
8.22823e-12
9.51969e-12
1.45711e-12
1.35176e-12
3.76252e-12
-9.15538e-12
3.76252e-12
-6.6141e-14
-7.81833e-12
4.50117e-12
-4.92478e-12
5.73001e-12
5.15389e-12
1.16415e-12
1.08404e-12
2.46526e-12
-3.77811e-12
2.46526e-12
4.37084e-13
-3.5698e-12
2.96275e-12
-2.70634e-12
3.88213e-12
2.83305e-12
6.94352e-13
8.15395e-13
1.75634e-12
-1.6247e-12
1.75634e-12
8.61959e-13
-1.7382e-12
2.10531e-12
-1.51132e-12
2.58064e-12
1.6576e-12
3.83825e-13
6.64188e-13
1.18807e-12
-6.85634e-13
1.18807e-12
6.94397e-13
-8.34046e-13
1.42563e-12
-8.23984e-13
1.75648e-12
9.48572e-13
5.03645e-13
8.06932e-13
8.06932e-13
5.89564e-13
9.53697e-13
1.09994e-12
-6.19697e-12
3.13084e-12
1.80763e-14
-1.79369e-12
-2.88731e-11
9.32352e-13
2.14729e-13
-2.35853e-11
2.14729e-13
-1.61017e-11
-9.06117e-13
-2.24036e-11
4.36485e-12
9.01695e-13
-4.34625e-12
-5.72435e-11
7.65552e-12
4.48078e-12
-4.12394e-11
4.48078e-12
-1.92692e-11
-3.72205e-13
-5.13781e-11
6.01235e-12
3.64627e-12
-5.6926e-12
-1.31922e-10
2.79286e-11
1.7742e-11
-8.81086e-11
1.7742e-11
-2.28911e-11
2.39611e-12
-1.15757e-10
7.19188e-12
8.34998e-12
-3.30665e-12
-3.19069e-10
9.13455e-11
5.81832e-11
-2.11088e-10
5.81832e-11
-2.10205e-11
1.13496e-11
-2.78482e-10
2.21126e-11
2.64859e-11
2.68376e-11
-8.13712e-10
2.99489e-10
1.89881e-10
-5.37176e-10
1.89881e-10
1.70474e-11
3.10259e-11
-3.67314e-10
-1.74698e-11
2.76035e-11
3.72273e-11
-1.52252e-09
4.59135e-10
2.79199e-10
-1.02112e-09
2.79199e-10
5.71676e-11
4.33398e-11
-1.60999e-10
-1.12687e-10
1.00359e-11
-1.32201e-12
-1.90023e-09
2.29175e-10
1.47333e-10
-1.31843e-09
1.47333e-10
3.60355e-11
2.22491e-11
3.33965e-11
-1.20714e-10
2.16496e-11
-1.59183e-11
-1.83075e-09
-8.41525e-11
-1.40732e-11
-1.32212e-09
-1.40732e-11
6.54857e-12
-6.37226e-12
1.09215e-10
-8.14277e-11
3.05631e-11
-5.28389e-11
-1.56351e-09
-1.96656e-10
-2.61191e-11
-1.37556e-09
-2.61191e-11
-5.87302e-11
-1.72741e-11
3.16103e-10
-3.25249e-11
-2.45074e-11
-2.63175e-11
-9.47854e-10
-3.71018e-10
-2.331e-10
-9.61995e-10
-2.331e-10
-8.02995e-11
-5.04798e-11
3.28821e-10
-1.85207e-11
-4.73223e-11
2.53996e-11
-3.72065e-10
-3.05164e-10
-2.77612e-10
-3.55972e-10
-2.77612e-10
-4.51205e-11
-4.31612e-11
1.15775e-10
-1.02478e-11
-1.18213e-11
1.39531e-11
-1.90234e-10
-7.89264e-11
-6.76964e-11
-1.92673e-10
-6.76964e-11
-2.93151e-11
-6.08188e-12
7.36175e-11
-2.4562e-12
-1.34968e-11
1.24338e-11
-7.59465e-11
-4.73144e-11
-4.68403e-11
-7.41251e-11
-4.68403e-11
-1.71314e-11
-1.35573e-12
3.06227e-11
-1.10511e-12
-3.01413e-12
8.75447e-12
-3.77266e-11
-9.58132e-12
-9.00373e-12
-3.86087e-11
-9.00373e-12
-1.12081e-11
5.89948e-12
1.8001e-11
7.90534e-13
-3.01263e-12
6.1894e-12
-1.6266e-11
-4.66991e-12
-4.77776e-12
-1.66744e-11
-4.77776e-12
-6.95866e-12
4.58595e-12
9.12017e-12
6.0119e-13
-2.72763e-13
4.50117e-12
-7.81833e-12
-6.61409e-14
3.91467e-13
-8.45496e-12
3.91467e-13
-4.63114e-12
4.18179e-12
5.18311e-12
7.37967e-13
-2.45152e-13
2.96275e-12
-3.5698e-12
4.37084e-13
7.96465e-13
-4.12237e-12
7.96465e-13
-2.94089e-12
2.87996e-12
3.04251e-12
4.11665e-13
3.38714e-13
2.10531e-12
-1.7382e-12
8.61959e-13
1.12255e-12
-2.15685e-12
1.12255e-12
-1.85595e-12
2.06148e-12
1.83611e-12
2.37782e-13
2.98834e-13
1.42563e-12
-8.34046e-13
6.94397e-13
9.00972e-13
-1.10754e-12
9.00972e-13
-1.09954e-12
1.42498e-12
1.08285e-12
3.69744e-13
9.53697e-13
5.89564e-13
7.11174e-13
7.11174e-13
9.26155e-13
-5.67474e-12
5.43084e-12
-2.19475e-12
-1.90357e-11
-9.06117e-13
-1.61017e-11
-1.52416e-11
-1.8105e-11
9.32039e-12
-5.39794e-12
-2.80806e-11
-3.72205e-13
-1.92692e-11
-1.45663e-11
-3.64309e-11
1.64937e-11
-8.26691e-12
-4.30607e-11
2.39611e-12
-2.28911e-11
-1.07137e-11
-6.50171e-11
2.70328e-11
-9.26771e-12
-5.68329e-11
1.13496e-11
-2.10205e-11
1.6614e-12
-1.05583e-10
4.62952e-11
-7.32296e-12
-1.21771e-11
3.10259e-11
1.70474e-11
3.33399e-11
-1.31932e-10
4.94323e-11
-3.92032e-12
6.12373e-11
4.33398e-11
5.71676e-11
7.55749e-11
-7.91009e-11
2.01448e-11
-9.16819e-12
6.83398e-11
2.22491e-11
3.60355e-11
9.93482e-11
-2.95578e-12
1.81507e-11
-1.64426e-11
2.23027e-11
-6.37226e-12
6.54857e-12
9.96712e-11
6.1429e-11
2.14993e-11
-6.82102e-12
-4.62369e-11
-1.72741e-11
-5.87302e-11
6.89242e-11
1.24017e-10
2.02098e-11
1.67136e-12
-8.52293e-11
-5.04798e-11
-8.02995e-11
2.41154e-11
1.11196e-10
1.47266e-11
1.17793e-11
-7.17207e-11
-4.31612e-11
-4.51205e-11
1.36121e-12
6.29036e-11
1.19027e-11
1.4767e-11
-4.62481e-11
-6.08188e-12
-2.93151e-11
-7.76558e-12
4.46012e-11
8.74921e-12
1.34041e-11
-2.75218e-11
-1.35573e-12
-1.71314e-11
-1.21554e-11
2.45415e-11
6.33731e-12
1.10446e-11
-1.60728e-11
5.89948e-12
-1.12081e-11
-1.08725e-11
1.60553e-11
4.08072e-12
8.22823e-12
-8.59488e-12
4.58595e-12
-6.95866e-12
-8.57342e-12
9.21093e-12
2.55506e-12
5.73001e-12
-4.92478e-12
4.18179e-12
-4.63114e-12
-6.15851e-12
5.66622e-12
1.47957e-12
3.88213e-12
-2.70634e-12
2.87996e-12
-2.94089e-12
-4.16421e-12
3.33417e-12
8.01841e-13
2.58064e-12
-1.51132e-12
2.06148e-12
-1.85595e-12
-2.68754e-12
2.0899e-12
3.63397e-13
1.75648e-12
-8.23984e-13
1.42498e-12
-1.09954e-12
-1.57891e-12
1.19407e-12
1.09994e-12
9.26155e-13
)
;

boundaryField
{
    inlet
    {
        type            calculated;
        value           nonuniform List<scalar> 
16
(
2.56257e-13
9.05924e-14
1.46823e-14
1.19733e-13
9.05924e-14
-4.02354e-13
-4.8753e-13
-4.69718e-13
1.46823e-14
-4.8753e-13
-6.22503e-13
-6.25091e-13
1.19733e-13
-4.69718e-13
-6.25091e-13
-8.5253e-13
)
;
    }
    outlet
    {
        type            calculated;
        value           nonuniform List<scalar> 
16
(
-1.06615e-11
-2.97984e-12
-2.76255e-12
-4.19321e-12
-2.97984e-12
2.98655e-11
2.22079e-11
1.60523e-11
-2.76255e-12
2.22079e-11
1.95685e-11
1.496e-11
-4.19321e-12
1.60523e-11
1.496e-11
1.48397e-11
)
;
    }
    walls
    {
        type            calculated;
        value           nonuniform List<scalar> 
320
(
1.7314e-12
5.48476e-12
1.09916e-11
1.8293e-11
3.30399e-11
2.95998e-11
-1.41781e-11
-6.0811e-12
1.30866e-13
-4.35818e-11
-4.34617e-11
-1.53774e-11
-1.10301e-11
-4.12855e-12
-3.38107e-12
-1.47759e-12
-1.23635e-12
-6.68229e-13
-5.40413e-13
-3.25036e-13
6.23145e-12
2.43858e-11
6.29823e-11
1.61016e-10
4.11861e-10
7.06013e-10
4.35057e-10
-1.33306e-10
-3.96797e-10
-5.78015e-10
-4.13615e-10
-1.58597e-10
-8.85119e-11
-3.44483e-11
-1.82317e-11
-8.1457e-12
-4.18363e-12
-2.16486e-12
-1.20009e-12
-6.43869e-13
4.9368e-12
1.81591e-11
4.32455e-11
1.01627e-10
2.37971e-10
3.783e-10
2.45298e-10
-3.13412e-11
-1.72862e-10
-3.37197e-10
-2.88148e-10
-1.06744e-10
-6.38885e-11
-2.64017e-11
-1.49695e-11
-7.30631e-12
-3.9907e-12
-2.23953e-12
-1.29687e-12
-7.25845e-13
4.38225e-12
1.43458e-11
3.00686e-11
5.62996e-11
9.46115e-11
1.33868e-10
1.00057e-10
6.23624e-12
-6.84098e-11
-1.29331e-10
-1.07569e-10
-5.94088e-11
-4.08679e-11
-2.13829e-11
-1.33974e-11
-7.28319e-12
-4.30109e-12
-2.40921e-12
-1.45051e-12
-7.87562e-13
7.2947e-14
7.71338e-13
2.83522e-12
6.52842e-12
1.81948e-11
2.25305e-11
1.83668e-11
2.03632e-11
3.41952e-11
-1.79037e-11
-4.5467e-11
-1.24923e-11
-1.40767e-11
-3.76086e-12
-3.41396e-12
-6.74839e-13
-5.34793e-13
9.1494e-14
9.78903e-14
2.06902e-13
4.35699e-13
3.99342e-12
1.47447e-11
4.93683e-11
1.56573e-10
2.57709e-10
1.5214e-10
-2.46285e-11
-5.98666e-11
-2.0968e-10
-2.19256e-10
-5.62623e-11
-3.48436e-11
-7.53329e-12
-4.32076e-12
-2.55318e-13
2.73968e-15
4.20475e-13
3.40481e-13
3.29423e-13
6.78715e-14
2.62253e-12
1.07009e-11
3.56953e-11
1.13465e-10
1.91819e-10
1.37048e-10
5.34344e-12
4.96128e-11
-1.59379e-10
-2.5785e-10
-6.26529e-11
-4.42641e-11
-9.78194e-12
-5.38496e-12
-3.87822e-13
1.08393e-13
5.56764e-13
4.76058e-13
4.10507e-13
-7.0521e-13
-7.09831e-13
4.69826e-13
5.16202e-12
1.51866e-11
2.22223e-11
1.03625e-11
-6.53374e-12
-1.90065e-12
-2.80754e-11
-3.17841e-11
-1.51848e-12
8.39205e-13
5.25802e-12
3.43641e-12
2.97434e-12
1.88282e-12
1.32315e-12
8.70662e-13
5.62966e-13
1.7314e-12
5.48476e-12
1.09916e-11
1.8293e-11
3.30399e-11
2.95998e-11
-1.41781e-11
-6.0811e-12
1.30866e-13
-4.35818e-11
-4.34617e-11
-1.53774e-11
-1.10301e-11
-4.12855e-12
-3.38107e-12
-1.47759e-12
-1.23635e-12
-6.68229e-13
-5.40413e-13
-3.25036e-13
6.23145e-12
2.43858e-11
6.29823e-11
1.61016e-10
4.11861e-10
7.06013e-10
4.35057e-10
-1.33306e-10
-3.96797e-10
-5.78015e-10
-4.13615e-10
-1.58597e-10
-8.85119e-11
-3.44483e-11
-1.82317e-11
-8.1457e-12
-4.18363e-12
-2.16486e-12
-1.20009e-12
-6.43869e-13
4.9368e-12
1.81591e-11
4.32455e-11
1.01627e-10
2.37971e-10
3.783e-10
2.45298e-10
-3.13412e-11
-1.72862e-10
-3.37197e-10
-2.88148e-10
-1.06744e-10
-6.38885e-11
-2.64017e-11
-1.49695e-11
-7.30631e-12
-3.9907e-12
-2.23953e-12
-1.29687e-12
-7.25845e-13
4.38225e-12
1.43458e-11
3.00686e-11
5.62996e-11
9.46115e-11
1.33868e-10
1.00057e-10
6.23624e-12
-6.84098e-11
-1.29331e-10
-1.07569e-10
-5.94088e-11
-4.08679e-11
-2.13829e-11
-1.33974e-11
-7.28319e-12
-4.30109e-12
-2.40921e-12
-1.45051e-12
-7.87562e-13
7.2947e-14
7.71338e-13
2.83522e-12
6.52842e-12
1.81948e-11
2.25305e-11
1.83668e-11
2.03632e-11
3.41952e-11
-1.79037e-11
-4.5467e-11
-1.24923e-11
-1.40767e-11
-3.76086e-12
-3.41396e-12
-6.74839e-13
-5.34793e-13
9.1494e-14
9.78903e-14
2.06902e-13
4.35699e-13
3.99342e-12
1.47447e-11
4.93683e-11
1.56573e-10
2.57709e-10
1.5214e-10
-2.46285e-11
-5.98666e-11
-2.0968e-10
-2.19256e-10
-5.62623e-11
-3.48436e-11
-7.53329e-12
-4.32076e-12
-2.55318e-13
2.7397e-15
4.20475e-13
3.40481e-13
3.29423e-13
6.78715e-14
2.62253e-12
1.07009e-11
3.56953e-11
1.13465e-10
1.91819e-10
1.37048e-10
5.34344e-12
4.96128e-11
-1.59379e-10
-2.5785e-10
-6.26529e-11
-4.42641e-11
-9.78194e-12
-5.38496e-12
-3.87822e-13
1.08393e-13
5.56764e-13
4.76058e-13
4.10507e-13
-7.0521e-13
-7.09831e-13
4.69826e-13
5.16202e-12
1.51866e-11
2.22223e-11
1.03625e-11
-6.53374e-12
-1.90065e-12
-2.80754e-11
-3.17841e-11
-1.51848e-12
8.39205e-13
5.25802e-12
3.43641e-12
2.97434e-12
1.88282e-12
1.32315e-12
8.70662e-13
5.62966e-13
)
;
    }
}


// ************************************************************************* //
