/*--------------------------------*- C++ -*----------------------------------*\
| =========                 |                                                 |
| \\      /  F ield         | OpenFOAM: The Open Source CFD Toolbox           |
|  \\    /   O peration     | Version:  5.x                                   |
|   \\  /    A nd           | Web:      www.OpenFOAM.org                      |
|    \\/     M anipulation  |                                                 |
\*---------------------------------------------------------------------------*/
FoamFile
{
    version     2.0;
    format      ascii;
    class       volVectorField;
    location    "0.1";
    object      Us;
}
// * * * * * * * * * * * * * * * * * * * * * * * * * * * * * * * * * * * * * //

dimensions      [0 1 -1 0 0 0 0];

internalField   nonuniform List<vector> 
320
(
(-2.08081e-16 -4.78814e-13 -2.08081e-16)
(-2.17563e-15 -5.00633e-12 -2.17563e-15)
(-2.04206e-15 -4.69898e-12 -2.04206e-15)
(-5.91076e-17 -1.36012e-13 -5.91076e-17)
(-1.07231e-14 -2.46748e-11 -1.07231e-14)
(-1.31152e-13 -3.01794e-10 -1.31152e-13)
(-1.24649e-13 -2.8683e-10 -1.24649e-13)
(-3.56093e-15 -8.19404e-12 -3.56093e-15)
(-5.25096e-13 -1.2083e-09 -5.25096e-13)
(-7.70906e-12 -1.77393e-08 -7.70906e-12)
(-7.41879e-12 -1.70713e-08 -7.41879e-12)
(-2.09237e-13 -4.81475e-10 -2.09237e-13)
(-2.31402e-11 -5.32477e-08 -2.31402e-11)
(-4.24727e-10 -9.77336e-07 -4.24727e-10)
(-4.13937e-10 -9.52509e-07 -4.13937e-10)
(-1.15283e-11 -2.65277e-08 -1.15283e-11)
(-8.49748e-10 -1.95535e-06 -8.49748e-10)
(-2.07961e-08 -4.78537e-05 -2.07961e-08)
(-2.05296e-08 -4.72406e-05 -2.05296e-08)
(-5.64893e-10 -1.29987e-06 -5.64893e-10)
(-2.08055e-08 -4.78755e-05 -2.08055e-08)
(-7.63603e-07 -0.00175712 -7.63603e-07)
(-7.63737e-07 -0.00175743 -7.63737e-07)
(-2.08074e-08 -4.78797e-05 -2.08074e-08)
(-5.62907e-10 -1.2953e-06 -5.62907e-10)
(-2.06636e-08 -4.75489e-05 -2.06636e-08)
(-2.06637e-08 -4.75492e-05 -2.06637e-08)
(-5.62988e-10 -1.29549e-06 -5.62988e-10)
(-7.51839e-12 -1.73005e-08 -7.51839e-12)
(-2.75991e-10 -6.35081e-07 -2.75991e-10)
(-2.79605e-10 -6.43397e-07 -2.79605e-10)
(-1.14259e-11 -2.6292e-08 -1.14259e-11)
(-1.00422e-13 -2.31081e-10 -1.00422e-13)
(-3.68637e-12 -8.4827e-09 -3.68637e-12)
(-3.78291e-12 -8.70483e-09 -3.78291e-12)
(-2.06127e-13 -4.74317e-10 -2.06127e-13)
(-1.34078e-15 -3.08525e-12 -1.34078e-15)
(-4.92272e-14 -1.13276e-10 -4.92272e-14)
(-5.11608e-14 -1.17726e-10 -5.11608e-14)
(-3.48505e-15 -8.01943e-12 -3.48505e-15)
(0 0 0)
(0 0 0)
(0 0 0)
(0 0 0)
(0 0 0)
(0 0 0)
(0 0 0)
(0 0 0)
(0 0 0)
(0 0 0)
(0 0 0)
(0 0 0)
(0 0 0)
(0 0 0)
(0 0 0)
(0 0 0)
(0 0 0)
(0 0 0)
(0 0 0)
(0 0 0)
(0 0 0)
(0 0 0)
(0 0 0)
(0 0 0)
(0 0 0)
(0 0 0)
(0 0 0)
(0 0 0)
(0 0 0)
(0 0 0)
(0 0 0)
(0 0 0)
(0 0 0)
(0 0 0)
(0 0 0)
(0 0 0)
(0 0 0)
(0 0 0)
(0 0 0)
(0 0 0)
(-2.17563e-15 -5.00633e-12 -2.17563e-15)
(-2.65634e-14 -6.11249e-11 -2.65634e-14)
(-2.52421e-14 -5.80846e-11 -2.52421e-14)
(-7.20278e-16 -1.65743e-12 -7.20278e-16)
(-1.31152e-13 -3.01794e-10 -1.31152e-13)
(-1.92629e-12 -4.43257e-09 -1.92629e-12)
(-1.85373e-12 -4.2656e-09 -1.85373e-12)
(-5.21963e-14 -1.20109e-10 -5.21963e-14)
(-7.70906e-12 -1.77393e-08 -7.70906e-12)
(-1.41543e-10 -3.25703e-07 -1.41543e-10)
(-1.37941e-10 -3.17416e-07 -1.37941e-10)
(-3.83338e-12 -8.82097e-09 -3.83338e-12)
(-4.24727e-10 -9.77336e-07 -4.24727e-10)
(-1.0397e-08 -2.39246e-05 -1.0397e-08)
(-1.02631e-08 -2.36163e-05 -1.02631e-08)
(-2.81483e-10 -6.47719e-07 -2.81483e-10)
(-2.07961e-08 -4.78537e-05 -2.07961e-08)
(-7.63456e-07 -0.00175678 -7.63456e-07)
(-7.63463e-07 -0.0017568 -7.63463e-07)
(-2.06656e-08 -4.75536e-05 -2.06656e-08)
(-7.63603e-07 -0.00175712 -7.63603e-07)
(-5.60313e-05 -0.128933 -5.60313e-05)
(-5.60313e-05 -0.128933 -5.60313e-05)
(-7.63879e-07 -0.00175776 -7.63879e-07)
(-2.06636e-08 -4.75489e-05 -2.06636e-08)
(-7.63728e-07 -0.00175741 -7.63728e-07)
(-7.63603e-07 -0.00175712 -7.63603e-07)
(-2.05352e-08 -4.72535e-05 -2.05352e-08)
(-2.75991e-10 -6.35081e-07 -2.75991e-10)
(-1.01358e-08 -2.33233e-05 -1.01358e-08)
(-1.0265e-08 -2.36206e-05 -1.0265e-08)
(-4.14061e-10 -9.52794e-07 -4.14061e-10)
(-3.68637e-12 -8.4827e-09 -3.68637e-12)
(-1.34516e-10 -3.09534e-07 -1.34516e-10)
(-1.37967e-10 -3.17475e-07 -1.37967e-10)
(-7.42108e-12 -1.70766e-08 -7.42108e-12)
(-4.92272e-14 -1.13276e-10 -4.92272e-14)
(-1.7849e-12 -4.10724e-09 -1.7849e-12)
(-1.85373e-12 -4.26561e-09 -1.85373e-12)
(-1.2466e-13 -2.86855e-10 -1.2466e-13)
(0 0 0)
(0 0 0)
(0 0 0)
(0 0 0)
(0 0 0)
(0 0 0)
(0 0 0)
(0 0 0)
(0 0 0)
(0 0 0)
(0 0 0)
(0 0 0)
(0 0 0)
(0 0 0)
(0 0 0)
(0 0 0)
(0 0 0)
(0 0 0)
(0 0 0)
(0 0 0)
(0 0 0)
(0 0 0)
(0 0 0)
(0 0 0)
(0 0 0)
(0 0 0)
(0 0 0)
(0 0 0)
(0 0 0)
(0 0 0)
(0 0 0)
(0 0 0)
(0 0 0)
(0 0 0)
(0 0 0)
(0 0 0)
(0 0 0)
(0 0 0)
(0 0 0)
(0 0 0)
(-2.04206e-15 -4.69898e-12 -2.04206e-15)
(-2.52421e-14 -5.80846e-11 -2.52421e-14)
(-2.40083e-14 -5.52453e-11 -2.40083e-14)
(-6.84477e-16 -1.57505e-12 -6.84477e-16)
(-1.24649e-13 -2.8683e-10 -1.24649e-13)
(-1.85373e-12 -4.2656e-09 -1.85373e-12)
(-1.78527e-12 -4.10807e-09 -1.78527e-12)
(-5.02327e-14 -1.1559e-10 -5.02327e-14)
(-7.41879e-12 -1.70713e-08 -7.41879e-12)
(-1.37941e-10 -3.17416e-07 -1.37941e-10)
(-1.34517e-10 -3.09536e-07 -1.34517e-10)
(-3.73609e-12 -8.5971e-09 -3.73609e-12)
(-4.13937e-10 -9.52509e-07 -4.13937e-10)
(-1.02631e-08 -2.36163e-05 -1.02631e-08)
(-1.01357e-08 -2.33232e-05 -1.01357e-08)
(-2.77876e-10 -6.39419e-07 -2.77876e-10)
(-2.05296e-08 -4.72406e-05 -2.05296e-08)
(-7.63463e-07 -0.0017568 -7.63463e-07)
(-7.63724e-07 -0.0017574 -7.63724e-07)
(-2.06674e-08 -4.75578e-05 -2.06674e-08)
(-7.63737e-07 -0.00175743 -7.63737e-07)
(-5.60313e-05 -0.128933 -5.60313e-05)
(-5.60313e-05 -0.128933 -5.60313e-05)
(-7.63883e-07 -0.00175777 -7.63883e-07)
(-2.06637e-08 -4.75492e-05 -2.06637e-08)
(-7.63603e-07 -0.00175712 -7.63603e-07)
(-7.63732e-07 -0.00175742 -7.63732e-07)
(-2.08038e-08 -4.78715e-05 -2.08038e-08)
(-2.79605e-10 -6.43397e-07 -2.79605e-10)
(-1.0265e-08 -2.36206e-05 -1.0265e-08)
(-1.04009e-08 -2.39334e-05 -1.04009e-08)
(-4.24888e-10 -9.77707e-07 -4.24888e-10)
(-3.78291e-12 -8.70483e-09 -3.78291e-12)
(-1.37967e-10 -3.17475e-07 -1.37967e-10)
(-1.41596e-10 -3.25826e-07 -1.41596e-10)
(-7.71206e-12 -1.77462e-08 -7.71206e-12)
(-5.11608e-14 -1.17726e-10 -5.11608e-14)
(-1.85373e-12 -4.26561e-09 -1.85373e-12)
(-1.92669e-12 -4.43349e-09 -1.92669e-12)
(-1.31176e-13 -3.01849e-10 -1.31176e-13)
(0 0 0)
(0 0 0)
(0 0 0)
(0 0 0)
(0 0 0)
(0 0 0)
(0 0 0)
(0 0 0)
(0 0 0)
(0 0 0)
(0 0 0)
(0 0 0)
(0 0 0)
(0 0 0)
(0 0 0)
(0 0 0)
(0 0 0)
(0 0 0)
(0 0 0)
(0 0 0)
(0 0 0)
(0 0 0)
(0 0 0)
(0 0 0)
(0 0 0)
(0 0 0)
(0 0 0)
(0 0 0)
(0 0 0)
(0 0 0)
(0 0 0)
(0 0 0)
(0 0 0)
(0 0 0)
(0 0 0)
(0 0 0)
(0 0 0)
(0 0 0)
(0 0 0)
(0 0 0)
(-5.91076e-17 -1.36012e-13 -5.91076e-17)
(-7.20278e-16 -1.65743e-12 -7.20278e-16)
(-6.84477e-16 -1.57505e-12 -6.84477e-16)
(-1.97866e-17 -4.55309e-14 -1.97866e-17)
(-3.56093e-15 -8.19404e-12 -3.56093e-15)
(-5.21963e-14 -1.20109e-10 -5.21963e-14)
(-5.02327e-14 -1.1559e-10 -5.02327e-14)
(-1.43289e-15 -3.29722e-12 -1.43289e-15)
(-2.09237e-13 -4.81475e-10 -2.09237e-13)
(-3.83338e-12 -8.82097e-09 -3.83338e-12)
(-3.73609e-12 -8.5971e-09 -3.73609e-12)
(-1.0518e-13 -2.42029e-10 -1.0518e-13)
(-1.15283e-11 -2.65277e-08 -1.15283e-11)
(-2.81483e-10 -6.47719e-07 -2.81483e-10)
(-2.77876e-10 -6.39419e-07 -2.77876e-10)
(-7.72061e-12 -1.77658e-08 -7.72061e-12)
(-5.64893e-10 -1.29987e-06 -5.64893e-10)
(-2.06656e-08 -4.75536e-05 -2.06656e-08)
(-2.06674e-08 -4.75578e-05 -2.06674e-08)
(-5.66723e-10 -1.30408e-06 -5.66723e-10)
(-2.08074e-08 -4.78797e-05 -2.08074e-08)
(-7.63879e-07 -0.00175776 -7.63879e-07)
(-7.63883e-07 -0.00175777 -7.63883e-07)
(-2.08133e-08 -4.78934e-05 -2.08133e-08)
(-5.62988e-10 -1.29549e-06 -5.62988e-10)
(-2.05352e-08 -4.72535e-05 -2.05352e-08)
(-2.08038e-08 -4.78715e-05 -2.08038e-08)
(-8.50066e-10 -1.95608e-06 -8.50066e-10)
(-1.14259e-11 -2.6292e-08 -1.14259e-11)
(-4.14061e-10 -9.52794e-07 -4.14061e-10)
(-4.24888e-10 -9.77707e-07 -4.24888e-10)
(-2.31489e-11 -5.32678e-08 -2.31489e-11)
(-2.06127e-13 -4.74317e-10 -2.06127e-13)
(-7.42108e-12 -1.70766e-08 -7.42108e-12)
(-7.71206e-12 -1.77462e-08 -7.71206e-12)
(-5.25298e-13 -1.20876e-09 -5.25298e-13)
(-3.48505e-15 -8.01943e-12 -3.48505e-15)
(-1.2466e-13 -2.86855e-10 -1.2466e-13)
(-1.31176e-13 -3.01849e-10 -1.31176e-13)
(-1.07244e-14 -2.4678e-11 -1.07244e-14)
(0 0 0)
(0 0 0)
(0 0 0)
(0 0 0)
(0 0 0)
(0 0 0)
(0 0 0)
(0 0 0)
(0 0 0)
(0 0 0)
(0 0 0)
(0 0 0)
(0 0 0)
(0 0 0)
(0 0 0)
(0 0 0)
(0 0 0)
(0 0 0)
(0 0 0)
(0 0 0)
(0 0 0)
(0 0 0)
(0 0 0)
(0 0 0)
(0 0 0)
(0 0 0)
(0 0 0)
(0 0 0)
(0 0 0)
(0 0 0)
(0 0 0)
(0 0 0)
(0 0 0)
(0 0 0)
(0 0 0)
(0 0 0)
(0 0 0)
(0 0 0)
(0 0 0)
(0 0 0)
)
;

boundaryField
{
    inlet
    {
        type            zeroGradient;
    }
    outlet
    {
        type            zeroGradient;
    }
    walls
    {
        type            zeroGradient;
    }
}


// ************************************************************************* //
