/*--------------------------------*- C++ -*----------------------------------*\
| =========                 |                                                 |
| \\      /  F ield         | OpenFOAM: The Open Source CFD Toolbox           |
|  \\    /   O peration     | Version:  5.x                                   |
|   \\  /    A nd           | Web:      www.OpenFOAM.org                      |
|    \\/     M anipulation  |                                                 |
\*---------------------------------------------------------------------------*/
FoamFile
{
    version     2.0;
    format      ascii;
    class       surfaceScalarField;
    location    "0.06";
    object      phi;
}
// * * * * * * * * * * * * * * * * * * * * * * * * * * * * * * * * * * * * * //

dimensions      [0 3 -1 0 0 0 0];

internalField   nonuniform List<scalar> 
4303
(
3.93995e-08
-1.54698e-07
-2.01412e-08
8.31519e-08
-1.55376e-07
-2.42935e-08
1.07846e-07
-1.55119e-07
-5.16357e-09
1.36453e-07
-1.55215e-07
-8.99056e-09
-1.53999e-07
3.70178e-08
3.81799e-08
-1.24046e-07
-7.19423e-08
8.32816e-08
-1.24787e-07
-7.57053e-08
1.08599e-07
-1.24668e-07
-5.57862e-08
1.37646e-07
-1.24826e-07
-5.94533e-08
-1.23833e-07
-1.25415e-08
3.72964e-08
-9.83336e-08
-6.7687e-08
8.28495e-08
-9.89785e-08
-7.13747e-08
1.08396e-07
-9.89379e-08
-5.12952e-08
1.376e-07
-9.9124e-08
-5.49226e-08
-9.84108e-08
-7.87571e-09
3.66837e-08
-5.04515e-08
-9.06189e-08
8.29207e-08
-5.10685e-08
-9.41489e-08
1.08828e-07
-5.12266e-08
-7.36279e-08
1.38317e-07
-5.14514e-08
-7.71727e-08
-5.11598e-08
-2.96445e-08
3.59683e-08
-8.55469e-08
8.24657e-08
-8.90066e-08
1.08545e-07
-6.84e-08
1.38169e-07
-7.19105e-08
-2.43384e-08
1.23906e-08
-4.36841e-08
-3.82674e-08
3.15982e-08
-4.30176e-08
-3.54485e-08
3.83603e-08
-4.18569e-08
-4.06498e-09
3.65792e-08
-4.1669e-08
6.27357e-10
-4.0947e-08
5.151e-08
1.46619e-08
-4.86409e-08
-9.19515e-08
3.29541e-08
-4.79375e-08
-8.91014e-08
3.93831e-08
-4.68824e-08
-5.72121e-08
3.73415e-08
-4.66904e-08
-5.24138e-08
-4.60299e-08
-6.44047e-10
1.54907e-08
-4.4191e-08
-9.64e-08
3.33511e-08
-4.36423e-08
-9.35549e-08
3.95938e-08
-4.28211e-08
-6.16198e-08
3.74433e-08
-4.26687e-08
-5.68138e-08
-4.2134e-08
-4.9386e-09
1.67089e-08
-2.8568e-08
-1.29943e-07
3.41887e-08
-2.81703e-08
-1.27107e-07
4.02509e-08
-2.7649e-08
-9.48682e-08
3.79735e-08
-2.75576e-08
-9.00159e-08
-2.72584e-08
-3.76037e-08
1.71848e-08
-1.32082e-07
3.44399e-08
-1.29229e-07
4.03821e-08
-9.69926e-08
3.80376e-08
-9.21407e-08
-3.97058e-08
4.5026e-08
-1.50126e-07
-6.79051e-08
9.06767e-08
-1.50567e-07
-6.45173e-08
1.13949e-07
-1.50164e-07
-1.07109e-08
1.35264e-07
-1.50229e-07
-3.97716e-09
-1.48897e-07
8.35141e-08
4.43016e-08
-1.27682e-07
-1.61626e-07
9.09844e-08
-1.28215e-07
-1.58155e-07
1.14837e-07
-1.27995e-07
-1.03255e-07
1.36575e-07
-1.28125e-07
-9.62801e-08
-1.27036e-07
-7.02769e-09
4.37776e-08
-1.03628e-07
-1.67961e-07
9.06881e-08
-1.04174e-07
-1.64522e-07
1.14695e-07
-1.04127e-07
-1.09509e-07
1.36555e-07
-1.04305e-07
-1.02514e-07
-1.03543e-07
-1.303e-08
4.3145e-08
-5.53513e-08
-2.26457e-07
9.07269e-08
-5.58989e-08
-2.22967e-07
1.15132e-07
-5.61409e-08
-1.67259e-07
1.37311e-07
-5.63765e-08
-1.60132e-07
-5.61464e-08
-6.95622e-08
4.25701e-08
-2.28716e-07
9.03235e-08
-2.25214e-07
1.14861e-07
-1.69478e-07
1.37159e-07
-1.62347e-07
-7.16977e-08
3.88635e-08
-1.42021e-07
-1.01495e-07
8.53129e-08
-1.41524e-07
-9.43472e-08
1.09328e-07
-1.39531e-07
-1.83923e-08
1.27345e-07
-1.39214e-07
-5.66184e-09
-1.36922e-07
1.14749e-07
4.10329e-08
-1.25253e-07
-2.28702e-07
8.75439e-08
-1.24774e-07
-2.2143e-07
1.11655e-07
-1.23015e-07
-1.439e-07
1.29675e-07
-1.22734e-07
-1.30805e-07
-1.20707e-07
-7.77001e-09
4.14523e-08
-1.01989e-07
-2.41371e-07
8.78601e-08
-1.01608e-07
-2.34103e-07
1.11922e-07
-1.00207e-07
-1.56386e-07
1.29913e-07
-9.9997e-08
-1.43257e-07
-9.8414e-08
-1.98548e-08
4.28376e-08
-5.63744e-08
-3.22219e-07
8.93049e-08
-5.61193e-08
-3.14925e-07
1.1341e-07
-5.52927e-08
-2.36276e-07
1.31424e-07
-5.51905e-08
-2.2296e-07
-5.43464e-08
-9.79464e-08
4.31053e-08
-3.28485e-07
8.94872e-08
-3.2121e-07
1.13539e-07
-2.42538e-07
1.31529e-07
-2.29232e-07
-1.04087e-07
7.19301e-08
-2.27464e-07
-1.50708e-07
1.43057e-07
-2.27635e-07
-1.40493e-07
1.79144e-07
-2.25962e-07
-2.96579e-08
2.09435e-07
-2.25744e-07
-1.1067e-08
-2.2258e-07
1.62982e-07
7.22076e-08
-1.95939e-07
-3.35909e-07
1.44782e-07
-1.96212e-07
-3.25434e-07
1.81734e-07
-1.94892e-07
-2.1193e-07
2.12587e-07
-1.94769e-07
-1.92643e-07
-1.9206e-07
-1.42205e-08
7.19342e-08
-1.58509e-07
-3.54736e-07
1.44747e-07
-1.58856e-07
-3.44273e-07
1.81855e-07
-1.57997e-07
-2.30389e-07
2.12831e-07
-1.57985e-07
-2.1102e-07
-1.56004e-07
-3.18998e-08
7.18119e-08
-8.42275e-08
-4.73471e-07
1.45599e-07
-8.46786e-08
-4.62898e-07
1.83294e-07
-8.45807e-08
-3.47383e-07
2.1471e-07
-8.47423e-08
-3.2762e-07
-8.39669e-08
-1.45774e-07
7.13508e-08
-4.82591e-07
1.45312e-07
-4.72078e-07
1.83124e-07
-3.56452e-07
2.14659e-07
-3.36685e-07
-1.54545e-07
9.18527e-08
-2.99793e-07
-2.16844e-07
1.87146e-07
-2.99345e-07
-2.01439e-07
2.36512e-07
-2.95569e-07
-4.5192e-08
2.76589e-07
-2.94912e-07
-1.72808e-08
-2.89401e-07
2.28708e-07
9.44658e-08
-2.59211e-07
-4.78709e-07
1.91279e-07
-2.58845e-07
-4.6274e-07
2.41565e-07
-2.55563e-07
-3.02211e-07
2.82126e-07
-2.5501e-07
-2.73093e-07
-2.50141e-07
-2.01692e-08
9.47208e-08
-2.08653e-07
-5.07697e-07
1.91706e-07
-2.08409e-07
-4.91685e-07
2.42096e-07
-2.05869e-07
-3.30458e-07
2.82729e-07
-2.05478e-07
-3.0117e-07
-2.01728e-07
-4.70399e-08
9.63276e-08
-1.10815e-07
-6.74789e-07
1.94287e-07
-1.10784e-07
-6.58502e-07
2.45236e-07
-1.09513e-07
-4.9468e-07
2.8623e-07
-1.0939e-07
-4.64695e-07
-1.07504e-07
-2.06246e-07
9.63531e-08
-6.89519e-07
1.94416e-07
-6.73293e-07
2.4541e-07
-5.09196e-07
2.86463e-07
-4.79171e-07
-2.2016e-07
1.36212e-07
-4.19243e-07
-3.08194e-07
2.67802e-07
-4.18903e-07
-2.85695e-07
3.35097e-07
-4.13779e-07
-6.58838e-08
3.89526e-07
-4.12659e-07
-2.51092e-08
-4.04159e-07
3.19096e-07
1.3857e-07
-3.62402e-07
-6.77781e-07
2.73373e-07
-3.62246e-07
-6.54174e-07
3.42559e-07
-3.57877e-07
-4.27266e-07
3.98023e-07
-3.56954e-07
-3.84225e-07
-3.49435e-07
-2.86811e-08
1.38634e-07
-2.91642e-07
-7.21303e-07
2.73982e-07
-2.91699e-07
-6.97563e-07
3.43476e-07
-2.88504e-07
-4.69297e-07
3.99146e-07
-2.87884e-07
-4.25881e-07
-2.82189e-07
-6.80743e-08
1.39687e-07
-1.53427e-07
-9.58214e-07
2.77184e-07
-1.53831e-07
-9.33891e-07
3.47914e-07
-1.52678e-07
-7.01225e-07
4.04387e-07
-1.52589e-07
-6.56444e-07
-1.49994e-07
-2.9148e-07
1.39275e-07
-9.80517e-07
2.77128e-07
-9.5626e-07
3.48074e-07
-7.22999e-07
4.04738e-07
-6.78073e-07
-3.11988e-07
1.94644e-07
-6.00037e-07
-4.38158e-07
3.84047e-07
-5.99039e-07
-4.04832e-07
4.81581e-07
-5.90267e-07
-9.44504e-08
5.59513e-07
-5.88344e-07
-3.40887e-08
-5.7464e-07
4.53217e-07
1.99782e-07
-5.19191e-07
-9.64151e-07
3.93708e-07
-5.18389e-07
-9.28714e-07
4.93979e-07
-5.10658e-07
-6.07106e-07
5.73234e-07
-5.0898e-07
-5.42804e-07
-4.96681e-07
-3.76274e-08
2.00317e-07
-4.16628e-07
-1.03026e-06
3.9497e-07
-4.16108e-07
-9.94475e-07
4.9564e-07
-4.10161e-07
-6.70433e-07
5.75118e-07
-4.08921e-07
-6.05386e-07
-3.99462e-07
-9.62782e-08
2.03344e-07
-2.18333e-07
-1.36635e-06
4.00947e-07
-2.18361e-07
-1.32927e-06
5.03305e-07
-2.15514e-07
-9.98219e-07
5.83756e-07
-2.15052e-07
-9.30741e-07
-2.10271e-07
-4.10373e-07
2.0331e-07
-1.40113e-06
4.014e-07
-1.364e-06
5.03994e-07
-1.03166e-06
5.8463e-07
-9.63833e-07
-4.41373e-07
2.70645e-07
-8.19681e-07
-6.13227e-07
5.25968e-07
-8.17774e-07
-5.63493e-07
6.57192e-07
-8.03429e-07
-1.31414e-07
7.59289e-07
-7.99389e-07
-4.22224e-08
-7.76533e-07
6.34088e-07
2.78465e-07
-7.1234e-07
-1.35283e-06
5.42017e-07
-7.10841e-07
-1.29917e-06
6.77968e-07
-6.9809e-07
-8.4837e-07
7.82156e-07
-6.9452e-07
-7.51837e-07
-6.73731e-07
-4.62104e-08
2.79549e-07
-5.71631e-07
-1.45417e-06
5.44688e-07
-5.70795e-07
-1.39965e-06
6.81516e-07
-5.61101e-07
-9.44233e-07
7.86169e-07
-5.58437e-07
-8.46101e-07
-5.42351e-07
-1.33149e-07
2.83777e-07
-2.99444e-07
-1.92785e-06
5.54414e-07
-2.99589e-07
-1.87113e-06
6.9432e-07
-2.95329e-07
-1.4039e-06
8.00595e-07
-2.94275e-07
-1.30116e-06
-2.86351e-07
-5.69451e-07
2.83622e-07
-1.98174e-06
5.55205e-07
-1.92483e-06
6.95754e-07
-1.45538e-06
8.02429e-07
-1.35176e-06
-6.16111e-07
3.98175e-07
-1.1979e-06
-8.67023e-07
7.72714e-07
-1.19428e-06
-7.92352e-07
9.65673e-07
-1.17205e-06
-1.82448e-07
1.11394e-06
-1.16564e-06
-4.90489e-08
-1.13074e-06
9.07445e-07
4.11451e-07
-1.04317e-06
-1.92187e-06
7.97722e-07
-1.03987e-06
-1.83985e-06
9.97909e-07
-1.01956e-06
-1.20105e-06
1.14885e-06
-1.01367e-06
-1.05474e-06
-9.81481e-07
-5.28281e-08
4.13708e-07
-8.36368e-07
-2.0783e-06
8.02397e-07
-8.33689e-07
-1.99452e-06
1.00378e-06
-8.17686e-07
-1.34749e-06
1.15523e-06
-8.13045e-07
-1.19818e-06
-7.88137e-07
-1.83366e-07
4.22014e-07
-4.37515e-07
-2.75376e-06
8.18427e-07
-4.36668e-07
-2.66459e-06
1.02407e-06
-4.2848e-07
-1.99875e-06
1.17742e-06
-4.26313e-07
-1.84123e-06
-4.13207e-07
-7.97507e-07
4.22858e-07
-2.84008e-06
8.21025e-07
-2.75e-06
1.02725e-06
-2.07879e-06
1.18091e-06
-1.9195e-06
-8.68384e-07
5.45074e-07
-1.63605e-06
-1.20378e-06
1.0466e-06
-1.6292e-06
-1.08935e-06
1.30558e-06
-1.5902e-06
-2.43975e-07
1.49547e-06
-1.57679e-06
-4.29022e-08
-1.51571e-06
1.27961e-06
5.6804e-07
-1.43597e-06
-2.69057e-06
1.09129e-06
-1.42989e-06
-2.56242e-06
1.36282e-06
-1.39383e-06
-1.66896e-06
1.55658e-06
-1.38146e-06
-1.44384e-06
-1.32425e-06
-4.67651e-08
5.72808e-07
-1.15011e-06
-2.93873e-06
1.10084e-06
-1.14634e-06
-2.80611e-06
1.37514e-06
-1.11882e-06
-1.8968e-06
1.56994e-06
-1.10925e-06
-1.66519e-06
-1.06452e-06
-2.44119e-07
5.85946e-07
-6.04128e-07
-3.8903e-06
1.12842e-06
-6.02988e-07
-3.75043e-06
1.41126e-06
-5.89839e-07
-2.81057e-06
1.60905e-06
-5.85121e-07
-2.56315e-06
-5.61944e-07
-1.09399e-06
5.87116e-07
-4.02771e-06
1.13215e-06
-3.88571e-06
1.41731e-06
-2.93843e-06
1.61598e-06
-2.68642e-06
-1.20374e-06
8.07341e-07
-2.40676e-06
-1.69369e-06
1.54751e-06
-2.39345e-06
-1.52012e-06
1.93057e-06
-2.33596e-06
-3.28716e-07
2.20728e-06
-2.31415e-06
-2.37342e-08
-2.22456e-06
1.84321e-06
8.44162e-07
-2.11898e-06
-3.81966e-06
1.61427e-06
-2.10579e-06
-3.6202e-06
2.01606e-06
-2.05115e-06
-2.35557e-06
2.29687e-06
-2.03099e-06
-2.00782e-06
-1.94549e-06
-2.67095e-08
8.52518e-07
-1.70131e-06
-4.20787e-06
1.63036e-06
-1.68899e-06
-4.00076e-06
2.03622e-06
-1.6438e-06
-2.71002e-06
2.31867e-06
-1.62772e-06
-2.35091e-06
-1.56095e-06
-3.27073e-07
8.78309e-07
-8.9647e-07
-5.57582e-06
1.67558e-06
-8.90756e-07
-5.34591e-06
2.09085e-06
-8.64953e-07
-4.00469e-06
2.3762e-06
-8.5664e-07
-3.61958e-06
-8.19804e-07
-1.52246e-06
8.8401e-07
-5.80498e-06
1.68785e-06
-5.56993e-06
2.10394e-06
-4.20613e-06
2.38943e-06
-3.81339e-06
-1.69096e-06
1.11253e-06
-3.31556e-06
-2.33726e-06
2.10546e-06
-3.29135e-06
-2.06019e-06
2.6197e-06
-3.18773e-06
-4.10267e-07
2.95973e-06
-3.14337e-06
6.28483e-08
-2.98208e-06
2.63868e-06
1.17813e-06
-2.96023e-06
-5.3459e-06
2.22735e-06
-2.9388e-06
-5.02198e-06
2.77671e-06
-2.83832e-06
-3.25436e-06
3.12112e-06
-2.79576e-06
-2.69986e-06
-2.63885e-06
6.06585e-08
1.19631e-06
-2.36067e-06
-5.99901e-06
2.26109e-06
-2.35097e-06
-5.65336e-06
2.81914e-06
-2.27835e-06
-3.82804e-06
3.16534e-06
-2.24447e-06
-3.24841e-06
-2.12268e-06
-4.0654e-07
1.22943e-06
-1.24932e-06
-7.91827e-06
2.33365e-06
-1.24553e-06
-7.55553e-06
2.91971e-06
-1.21198e-06
-5.65711e-06
3.2691e-06
-1.19374e-06
-5.0197e-06
-1.12809e-06
-2.0601e-06
1.23344e-06
-8.28292e-06
2.34381e-06
-7.91171e-06
2.94128e-06
-5.99648e-06
3.2932e-06
-5.33713e-06
-2.3315e-06
1.65371e-06
-4.91166e-06
-3.25548e-06
3.12774e-06
-4.86123e-06
-2.82832e-06
3.89375e-06
-4.7096e-06
-5.04348e-07
4.38128e-06
-4.63202e-06
2.34075e-07
-4.3963e-06
3.861e-06
1.76227e-06
-4.40514e-06
-7.59937e-06
3.3146e-06
-4.35457e-06
-7.08099e-06
4.12859e-06
-4.21004e-06
-4.56793e-06
4.61701e-06
-4.13932e-06
-3.68102e-06
-3.90441e-06
2.34381e-07
1.78878e-06
-3.53983e-06
-8.64076e-06
3.36481e-06
-3.49231e-06
-8.09165e-06
4.19939e-06
-3.37231e-06
-5.50037e-06
4.6946e-06
-3.32231e-06
-4.56065e-06
-3.13561e-06
-4.96536e-07
1.86823e-06
-1.8987e-06
-1.14211e-05
3.48505e-06
-1.87336e-06
-1.07913e-05
4.34403e-06
-1.79405e-06
-8.09434e-06
4.84635e-06
-1.76788e-06
-7.07645e-06
-1.65987e-06
-2.82306e-06
1.89314e-06
-1.20706e-05
3.53161e-06
-1.14134e-05
4.3936e-06
-8.63732e-06
4.89558e-06
-7.58841e-06
-3.24573e-06
2.36394e-06
-6.97121e-06
-4.36407e-06
4.38568e-06
-6.86907e-06
-3.66159e-06
5.41367e-06
-6.57663e-06
-4.30822e-07
5.94573e-06
-6.39977e-06
7.52222e-07
-5.96569e-06
5.75463e-06
2.57545e-06
-6.54608e-06
-1.05754e-05
4.74831e-06
-6.41877e-06
-9.70419e-06
5.87334e-06
-6.08626e-06
-6.18336e-06
6.38006e-06
-5.88655e-06
-4.70098e-06
-5.42721e-06
7.55908e-07
2.7317e-06
-5.43695e-06
-1.246e-05
4.95738e-06
-5.28582e-06
-1.14503e-05
6.07322e-06
-4.96469e-06
-7.7378e-06
6.55706e-06
-4.7571e-06
-6.17395e-06
-4.39556e-06
-4.16537e-07
2.94345e-06
-3.05065e-06
-1.67396e-05
5.28695e-06
-2.93645e-06
-1.54841e-05
6.40784e-06
-2.73202e-06
-1.14479e-05
6.85021e-06
-2.58005e-06
-9.69589e-06
-2.37038e-06
-3.64904e-06
3.05228e-06
-1.81686e-05
5.44012e-06
-1.67239e-05
6.53738e-06
-1.2445e-05
6.95224e-06
-1.05561e-05
-4.34604e-06
3.69878e-06
-1.07229e-05
-5.7507e-06
6.73053e-06
-1.04414e-05
-4.56948e-06
8.21609e-06
-9.93901e-06
1.28917e-08
8.85626e-06
-9.56085e-06
1.8761e-06
-8.86008e-06
8.83399e-06
4.23441e-06
-1.0896e-05
-1.45949e-05
7.56119e-06
-1.03036e-05
-1.31687e-05
9.02902e-06
-9.48356e-06
-8.10664e-06
9.55752e-06
-9.01872e-06
-5.77161e-06
-8.20768e-06
1.88438e-06
4.52945e-06
-9.65702e-06
-1.81942e-05
8.04733e-06
-8.93716e-06
-1.63346e-05
9.5047e-06
-8.02558e-06
-1.06532e-05
9.93838e-06
-7.52942e-06
-8.09693e-06
-6.70746e-06
3.17954e-08
5.35983e-06
-5.74203e-06
-2.5989e-05
8.9454e-06
-5.34534e-06
-2.26615e-05
1.03132e-05
-4.51185e-06
-1.63295e-05
1.04401e-05
-4.20115e-06
-1.31511e-05
-3.66632e-06
-4.54809e-06
5.75179e-06
-2.96541e-05
9.65085e-06
-2.59603e-05
1.08829e-05
-1.81721e-05
1.07082e-05
-1.45595e-05
-5.71249e-06
5.85801e-06
-1.6594e-05
-6.54926e-06
1.01255e-05
-1.55139e-05
-4.71578e-06
1.17857e-05
-1.42237e-05
1.6488e-06
1.21309e-05
-1.34543e-05
4.49252e-06
-1.21347e-05
1.36753e-05
6.52374e-06
-1.82939e-05
-1.93598e-05
1.15553e-05
-1.70765e-05
-1.66376e-05
1.34632e-05
-1.47018e-05
-9.53641e-06
1.34524e-05
-1.34354e-05
-5.77971e-06
-1.17733e-05
4.50995e-06
7.68661e-06
-1.54529e-05
-2.86677e-05
1.30977e-05
-1.50114e-05
-2.38108e-05
1.4716e-05
-1.30794e-05
-1.38938e-05
1.4229e-05
-1.1524e-05
-9.52132e-06
-1.00963e-05
1.68222e-06
8.20214e-06
-8.41221e-06
-4.11948e-05
1.50243e-05
-8.18443e-06
-3.63107e-05
1.7075e-05
-7.66544e-06
-2.37942e-05
1.55073e-05
-6.49249e-06
-1.66149e-05
-5.8268e-06
-4.67706e-06
8.43215e-06
-4.64855e-05
1.54724e-05
-4.11727e-05
1.82929e-05
-2.86292e-05
1.65646e-05
-1.92874e-05
-6.50183e-06
8.37926e-06
-2.49661e-05
-6.92971e-06
1.4724e-05
-2.34774e-05
-4.18385e-06
1.67308e-05
-2.06317e-05
4.45316e-06
1.69706e-05
-1.92335e-05
8.31397e-06
-1.6957e-05
1.95248e-05
9.76536e-06
-2.34293e-05
-3.05794e-05
1.71541e-05
-2.29783e-05
-2.45254e-05
1.94909e-05
-2.1391e-05
-1.11139e-05
1.92524e-05
-1.94306e-05
-5.34409e-06
-1.6702e-05
8.34787e-06
1.01453e-05
-1.88332e-05
-4.33362e-05
1.84268e-05
-1.8451e-05
-3.66196e-05
2.14314e-05
-1.83781e-05
-1.99114e-05
2.06592e-05
-1.70975e-05
-1.10823e-05
-1.46769e-05
4.50832e-06
1.05592e-05
-1.07544e-05
-5.97738e-05
1.85255e-05
-1.04775e-05
-5.22505e-05
2.30351e-05
-1.00847e-05
-3.65972e-05
2.35027e-05
-9.71724e-06
-2.44628e-05
-8.32538e-06
-4.11106e-06
1.0849e-05
-6.80879e-05
1.89123e-05
-5.97197e-05
2.34783e-05
-4.32649e-05
2.49799e-05
-3.0475e-05
-6.84143e-06
1.06241e-05
-3.21528e-05
-8.83804e-06
1.84725e-05
-3.06907e-05
-3.95969e-06
2.19066e-05
-2.84709e-05
7.93227e-06
2.20317e-05
-2.53871e-05
1.34045e-05
-2.1998e-05
2.66398e-05
1.22056e-05
-3.15147e-05
-4.33243e-05
2.14894e-05
-2.99686e-05
-3.45313e-05
2.61105e-05
-2.86228e-05
-1.55831e-05
2.5421e-05
-2.60464e-05
-3.99528e-06
-2.18532e-05
1.34659e-05
1.33031e-05
-2.53599e-05
-6.2703e-05
2.25625e-05
-2.39432e-05
-5.19045e-05
2.86919e-05
-2.24873e-05
-3.21763e-05
2.85116e-05
-2.14142e-05
-1.55342e-05
-1.83997e-05
8.01643e-06
1.43759e-05
-1.53368e-05
-8.41004e-05
2.40084e-05
-1.43067e-05
-7.15196e-05
3.00177e-05
-1.32306e-05
-5.18632e-05
3.07341e-05
-1.21384e-05
-3.44551e-05
-1.05481e-05
-3.84286e-06
1.54064e-05
-9.88235e-05
2.54208e-05
-8.4044e-05
3.15522e-05
-6.2603e-05
3.21803e-05
-4.31968e-05
-8.68021e-06
1.53368e-05
-4.39459e-05
-1.42136e-05
2.49726e-05
-4.20458e-05
-4.21756e-06
3.02443e-05
-3.92581e-05
1.08818e-05
3.1657e-05
-3.51375e-05
1.8553e-05
-3.1619e-05
3.67697e-05
1.70945e-05
-4.46415e-05
-5.95997e-05
2.8901e-05
-4.20982e-05
-4.62853e-05
3.56319e-05
-3.88988e-05
-2.26733e-05
3.51794e-05
-3.55459e-05
-3.13446e-06
-3.01549e-05
1.85986e-05
1.89715e-05
-3.68695e-05
-8.93318e-05
3.18566e-05
-3.44449e-05
-7.2443e-05
3.89775e-05
-3.17567e-05
-4.64393e-05
3.93055e-05
-2.87957e-05
-2.26124e-05
-2.48549e-05
1.09869e-05
2.08516e-05
-2.2245e-05
-0.000119481
3.45481e-05
-2.07249e-05
-9.8936e-05
4.21846e-05
-1.88509e-05
-7.24055e-05
4.21137e-05
-1.69769e-05
-4.62029e-05
-1.5171e-05
-4.09084e-06
2.23577e-05
-0.000143422
3.69478e-05
-0.000119384
4.46995e-05
-8.91967e-05
4.39971e-05
-5.94379e-05
-1.39143e-05
2.26005e-05
-6.30663e-05
-2.07109e-05
3.67528e-05
-5.83878e-05
-4.0738e-06
4.47534e-05
-5.46925e-05
1.54659e-05
4.47533e-05
-4.87955e-05
2.90311e-05
-4.46424e-05
5.49134e-05
2.62511e-05
-7.04652e-05
-7.82878e-05
4.21695e-05
-6.36507e-05
-5.69408e-05
5.11377e-05
-5.81625e-05
-2.81715e-05
4.88905e-05
-5.10199e-05
1.33714e-06
-4.46029e-05
2.90965e-05
3.15114e-05
-6.15657e-05
-0.000129587
4.94857e-05
-5.45648e-05
-9.95031e-05
5.83021e-05
-4.9332e-05
-6.40863e-05
5.48138e-05
-4.2037e-05
-2.8107e-05
-3.65685e-05
1.55997e-05
3.54282e-05
-4.04722e-05
-0.00017587
5.46933e-05
-3.52955e-05
-0.00013747
6.37715e-05
-3.13625e-05
-9.94532e-05
5.85236e-05
-2.61328e-05
-5.68592e-05
-2.25072e-05
-3.78415e-06
4.06178e-05
-0.000224504
6.17075e-05
-0.000175792
7.05847e-05
-0.000129416
6.31762e-05
-7.81032e-05
-2.03622e-05
3.10083e-05
-9.5148e-05
-2.59595e-05
5.02726e-05
-8.64739e-05
-9.44754e-07
6.04736e-05
-7.87543e-05
2.41235e-05
6.04111e-05
-6.86552e-05
4.45593e-05
-6.02973e-05
7.885e-05
3.87027e-05
-0.00010721
-0.000104724
6.13132e-05
-9.53817e-05
-7.06435e-05
7.21857e-05
-8.49746e-05
-3.28236e-05
6.87706e-05
-7.20154e-05
8.11236e-06
-6.03087e-05
4.4652e-05
4.73164e-05
-9.60677e-05
-0.000187846
7.35742e-05
-8.35375e-05
-0.000137605
8.51388e-05
-7.33732e-05
-8.72523e-05
7.8853e-05
-6.11212e-05
-3.27154e-05
-5.01052e-05
2.43234e-05
5.56618e-05
-6.52377e-05
-0.000262195
8.37549e-05
-5.5409e-05
-0.000193692
9.55528e-05
-4.7073e-05
-0.000137551
8.65684e-05
-3.84712e-05
-7.05247e-05
-3.07397e-05
-7.05388e-07
6.54696e-05
-0.000355203
9.62365e-05
-0.000262062
0.000107321
-0.000187587
9.52111e-05
-0.000104439
-2.54287e-05
4.93707e-05
-0.000149486
-2.40248e-05
8.10418e-05
-0.00012789
8.13568e-06
9.3085e-05
-0.000117524
4.70631e-05
8.5607e-05
-9.84875e-05
7.97689e-05
-8.53283e-05
0.000121182
6.41894e-05
-0.000190744
-0.000127387
9.6136e-05
-0.000157287
-7.31932e-05
0.000109681
-0.000137873
-2.6019e-05
9.87188e-05
-0.000109437
3.00247e-05
-9.27216e-05
7.98756e-05
9.04457e-05
-0.000189041
-0.00027973
0.000127395
-0.000148833
-0.000183008
0.000138204
-0.000127066
-0.000108868
0.000117857
-9.59023e-05
-2.5903e-05
-8.07102e-05
4.74102e-05
0.000110584
-0.0001481
-0.000413532
0.000149056
-0.000110395
-0.000270601
0.000157533
-9.01573e-05
-0.000182937
0.000128152
-6.39995e-05
-7.3046e-05
-4.91243e-05
8.50843e-06
0.000148421
-0.000651669
0.000189388
-0.000413366
0.000191078
-0.000279338
0.000149832
-0.000127061
-2.33332e-05
6.8043e-05
-0.00022297
-1.12597e-05
0.000106544
-0.000185934
3.41376e-05
0.000121703
-0.000164788
8.37558e-05
0.000111797
-0.000132012
0.000128473
-0.000111521
0.000177024
9.47062e-05
-0.000290899
-0.000153828
0.000136766
-0.000232519
-6.86683e-05
0.000152068
-0.000197626
-8.48303e-06
0.000132287
-0.000151706
6.94997e-05
-0.000121304
0.000128643
0.000136076
-0.000298661
-0.000407706
0.000187108
-0.000228563
-0.000237996
0.000197965
-0.000186664
-0.000130688
0.000165055
-0.000136367
-8.33224e-06
-0.000106105
8.42461e-05
0.000178238
-0.000239402
-0.000650741
0.000229076
-0.000177635
-0.000372367
0.000232889
-0.000135517
-0.000237897
0.000186262
-9.42498e-05
-6.85365e-05
-6.7521e-05
3.46242e-05
0.000239957
-0.00113101
0.000298987
-0.000650321
0.000291012
-0.000406981
0.000223111
-0.000153431
-1.01853e-05
0.000115508
-0.000372956
4.18191e-05
0.000163941
-0.000289602
0.00010936
0.000177674
-0.000251394
0.000167514
0.000153249
-0.000184321
0.000218373
-0.000152607
0.00026842
0.000161825
-0.000544832
-0.000143384
0.000216769
-0.000398539
-1.46748e-05
0.00023034
-0.000328984
5.55362e-05
0.000184822
-0.00022989
0.000160587
-0.000176921
0.000218592
0.000270874
-0.000648678
-0.00057439
0.000336175
-0.000429365
-0.000272471
0.000329689
-0.000335502
-0.000117684
0.000252191
-0.000216436
5.57113e-05
-0.000163173
0.000168194
0.000373113
-0.000600202
-0.00107229
0.000429654
-0.000373069
-0.000485204
0.000398983
-0.000270335
-0.000272393
0.000290279
-0.00016161
-1.46586e-05
-0.000114795
0.00010999
0.000600732
-0.00233188
0.000649399
-0.00107156
0.000545537
-0.000573122
0.000373914
-0.000142983
4.35401e-05
0.000144912
-0.000536644
0.000150097
0.000201981
-0.00038522
0.000227646
0.000213909
-0.000325746
0.000284032
0.000183461
-0.000225225
0.000330223
-0.000182924
0.000372894
0.00023799
-0.000842484
-7.50177e-05
0.000288457
-0.000568779
0.000118417
0.000288909
-0.0004509
0.000180238
0.000225733
-0.000288228
0.000286766
-0.000213111
0.000330501
0.000418786
-0.00108086
-0.000754267
0.00048768
-0.000667585
-0.000242558
0.000451615
-0.000486463
-4.60565e-05
0.000326309
-0.000287552
0.00018034
-0.000201014
0.000284862
0.000651157
-0.00106666
-0.0017371
0.000668885
-0.000649885
-0.000520632
0.000569519
-0.000417303
-0.000242186
0.00038589
-0.00023699
0.000118408
-0.000143781
0.000228419
0.00106803
-0.00446662
0.0010819
-0.00173628
0.000842335
-0.000751564
0.000536891
-7.49277e-05
0.000152385
0.000210642
-0.00084506
0.000390733
0.000277288
-0.00056034
0.000447382
0.000277732
-0.000448836
0.000484026
0.000223334
-0.00028488
0.00050201
-0.000222172
0.000517802
0.00036298
-0.00152301
0.000240335
0.000419691
-0.000918402
0.000419768
0.000391907
-0.000671555
0.000430741
0.000285687
-0.000391264
0.000499371
-0.000276417
0.0005023
0.000758145
-0.00257425
-0.000461125
0.000828798
-0.00126515
3.35353e-05
0.000672827
-0.00082711
0.000265469
0.000450327
-0.0004192
0.000430776
-0.000275975
0.000485089
0.00137563
-0.00303469
-0.000497253
-0.000519426
-0.000894822
-0.000741786
0.0012658
-0.00137448
-0.000301471
0.00091912
-0.000756867
3.42567e-05
0.000561516
-0.000362635
0.000419448
-0.000209553
0.000448322
0.00303677
-0.00249585
-0.00189004
-0.00365904
-0.00249304
0.00257545
-0.000739277
-0.000520347
-0.00089125
-0.00049476
0.00152368
-0.000455819
0.000846986
0.000239995
0.000393781
0.000252932
-0.00115108
0.000814835
0.000304979
-0.000646383
0.000760427
0.000291581
-0.000515746
0.000736773
0.000235551
-0.000296377
0.000684113
-0.000234463
0.000659005
0.000474577
-0.00228487
0.000900051
0.00047426
-0.00106789
0.000841597
0.000412226
-0.00080647
0.000783498
0.000297181
-0.000411347
0.000729386
-0.000290038
0.000684338
0.00121016
-0.00119349
0.00116109
-0.00118483
-0.0014638
-0.00127506
0.00112424
-0.00191071
0.000962263
0.000807956
-0.00112043
0.000895713
0.000517126
-0.000473037
0.000783296
-0.000302889
0.000737699
0.000465654
-0.00172965
-0.000427385
0.00191201
-0.000668627
0.000382277
0.000248953
0.00035852
0.00038276
-0.000610934
-0.000669868
-0.000540289
-0.00092802
-0.000610278
-0.000930214
-0.000538467
0.00106869
-0.00120508
0.000962225
0.000647533
-0.000472952
0.000840516
-0.000250731
0.000761227
0.00132692
-0.00209082
0.00224617
-0.00111091
-0.000847759
-0.00082009
-0.00120139
-0.00153628
0.0014698
-0.000610137
-0.000731293
0.00228458
0.00116379
-0.00118348
-0.00119372
-0.00127401
-0.00146218
0.0011515
0.000898198
0.000816784
0.000237768
-0.00114585
0.00124773
0.00029853
-0.000672582
0.00109748
0.000277081
-0.000504636
0.00098865
0.000217899
-0.00028296
0.000870375
-0.000216086
0.000790606
0.000456927
-0.00228231
0.00158033
0.000466866
-0.0011355
0.00129458
0.000405512
-0.000821986
0.0011622
0.000284027
-0.00040511
0.000973021
-0.000275012
0.000870458
0.00116663
-0.00175977
0.00294801
-0.00137458
-0.00118448
-0.000918146
0.00116144
-0.00075498
0.00205688
-0.000559407
-0.000508002
-0.000402544
0.000823729
-0.00115836
0.0015698
0.000507252
-0.000467365
0.00116203
-0.000296277
0.000989727
0.000680497
0.000977538
7.57424e-05
-0.000832166
-0.000900111
-0.000888113
-0.00087152
-0.000765838
0.000680032
-0.000954605
0.000667708
0.0011377
-0.00116654
0.00205727
-0.000559234
-0.000755275
-0.000403063
-0.000506989
0.000674885
-0.000457705
0.00129367
-0.00023566
0.00109837
0.00162368
0.00120745
0.000538547
-0.00129296
-0.00207609
-0.000790674
0.00219041
-0.00112292
-0.000740883
-0.00103774
0.00127674
0.000407611
0.000393383
0.000420801
0.000355766
-6.12713e-05
-0.000394815
-0.000344626
-0.000243159
-0.000308621
0.00228367
0.00295156
-0.00137361
-0.00175775
-0.000917008
-0.0011804
0.00114953
0.00157899
0.00125074
0.000100127
-0.000447536
0.00131161
0.00014195
-0.000270443
0.00114836
0.000149722
-0.000245522
0.00105286
0.000139039
-0.000158274
0.000928987
-0.000137331
0.000830999
0.000202818
-0.000623413
0.00155435
0.000215845
-0.000329681
0.00134079
0.000196838
-0.000300067
0.00123575
0.000159204
-0.000196262
0.00104864
-0.000147386
0.000928734
0.000343145
-0.000637082
0.0025678
-0.000397786
0.000217777
0.000230973
0.000343899
-0.000178809
0.00190526
0.000302969
-0.000333874
0.00164454
0.000248126
-0.000215172
0.00123578
-0.000137919
0.0010528
0.000163183
0.00114669
-0.00152069
7.63252e-06
-0.000246385
-0.00023436
4.70373e-05
0.000181324
6.36248e-05
0.0022494
-0.000195496
6.74784e-05
4.97524e-06
0.000610512
-0.000167569
0.000605583
4.09934e-06
-0.000810206
-0.000684591
-0.00129842
-0.000809523
0.00033322
-0.00033199
0.00190349
0.000271854
-0.000201229
0.00134109
-9.57738e-05
0.00114737
-2.94614e-05
0.00427305
-0.000137743
-2.04229e-09
-0.0041064
-4.708e-05
0.000148998
0.00118473
0.000171955
0.000160193
0.000390149
-0.000550464
3.65046e-05
0.000132145
-2.20741e-05
-5.29033e-05
-0.000468105
-0.000497735
-0.000522692
0.000628815
0.00256384
-0.000401969
-0.000639828
0.000234191
0.00022096
0.000447771
0.00155496
0.00130963
-3.31876e-05
4.19181e-05
0.00112235
8.85214e-06
-3.63237e-05
0.00106548
3.31067e-05
-4.55601e-05
0.000987898
5.63325e-05
-5.36398e-05
0.000911554
-5.41982e-05
0.000810138
6.75481e-05
8.65491e-05
0.0014435
6.78757e-05
-2.43133e-06
0.00130657
5.37327e-05
3.09443e-05
0.00117339
5.45898e-05
-5.35451e-05
0.00104769
-3.05133e-05
0.000910779
-0.000299165
0.00147919
0.00147479
-0.000194658
0.000333531
0.00146479
-2.8074e-05
0.000199449
0.00130945
4.87365e-05
-6.97316e-05
0.00117516
-5.25407e-06
0.000986934
-0.000916649
0.00175643
-0.00057517
0.00176048
0.000578441
0.000936441
-0.000269545
-0.00017074
0.00137225
-0.000115236
-0.000362993
-0.00156177
-0.000950946
-0.000329563
0.000927376
0.000284105
0.000296494
0.000203269
0.000284604
5.52236e-06
0.000306602
0.00146125
3.85871e-05
-6.97699e-05
0.00130806
3.59054e-05
0.00106459
-0.00170881
0.00107154
-0.0097684
0.00280922
0.00251119
0.00363288
0.00320771
-0.00147808
-0.000981672
0.00177298
0.00176446
0.000990949
0.000587575
-0.000120586
-0.000171545
0.00136489
-0.000272333
-0.000364991
-0.00156991
-0.000575377
-7.14078e-05
0.00146349
-3.24126e-05
0.00144963
0.00112099
-4.24252e-05
-5.47757e-05
0.00110269
-5.01363e-05
1.31425e-05
0.00101935
-4.10112e-05
1.86589e-05
0.000924265
4.17315e-07
1.37705e-05
0.000845881
8.59636e-07
0.000747265
3.15326e-05
-0.000216259
0.00157376
1.25919e-05
-3.66453e-05
0.0013753
-2.86204e-05
7.76093e-05
0.00115565
-1.22273e-05
3.04734e-05
0.0010146
4.27033e-05
0.000846048
5.43411e-06
-0.000285692
0.00194517
-2.75828e-05
-0.00023431
-0.000141411
-3.8596e-05
-0.00010427
0.0016784
-3.21158e-05
-7.85449e-05
8.70693e-06
-7.57564e-05
4.03219e-05
0.0013839
-1.6876e-05
-9.24029e-06
0.00115599
5.22713e-05
0.000924462
4.88844e-05
-0.000665685
-0.000246339
-5.3996e-05
6.19375e-05
-0.000201276
0.000373169
3.87064e-05
-5.68072e-06
0.00167915
-3.33517e-05
-0.000105026
7.40878e-06
-7.96297e-05
-1.03488e-05
-2.77922e-05
0.00137567
4.4974e-05
0.00102003
0.00194778
0.00038317
9.53108e-05
-0.000485625
-0.00194232
-6.47618e-05
0.000221853
-0.000465843
-0.000184081
-0.000141197
-0.00038088
0.000266532
-6.72767e-05
-8.86586e-05
-3.24637e-05
-4.48948e-05
0.000210336
0.00194484
-2.95522e-05
-0.000282155
-0.000152861
-0.000237386
5.54103e-05
0.00157479
0.00110396
-8.67554e-05
0.000409851
0.00102168
-9.20924e-05
0.000326908
0.000931192
-9.39801e-05
0.000203108
0.000825015
-5.80138e-05
0.000149809
0.000758934
5.90827e-05
0.000655594
-0.000171937
0.000785106
0.00137129
-0.000239279
0.000600274
0.00116928
-0.000213268
0.000299949
0.0010328
-0.000148744
0.000214493
0.000885387
9.59354e-05
0.000759031
-0.000282753
-0.000215391
0.00209671
4.17575e-05
0.000534959
0.000556288
-0.000343487
-3.52667e-05
0.001639
9.15964e-05
0.000331585
0.000312491
-0.000298229
0.000348551
0.00129004
-0.000201227
0.000241476
0.001032
9.51719e-05
0.000825054
0.000127129
0.00106147
-0.000558559
-0.000321502
-0.000293481
-0.000106982
-0.000122689
-8.83597e-05
-1.77464e-05
-0.000114427
0.000750084
-0.000564817
-0.000599159
0.000291743
0.00164103
9.02594e-05
-3.75627e-05
0.000311296
0.000330093
-0.000324905
0.000174689
0.0011682
9.06807e-05
0.00093196
0.00357922
0.000393877
0.000101773
-5.58951e-05
-0.00401907
-0.000290803
0.000146518
-0.000290539
0.000194985
-0.000176546
0.000416386
-0.000791376
0.00210173
3.81264e-05
-0.000215625
0.000555719
0.000530318
-0.000408656
0.00136689
0.00102222
-0.000203003
0.000944012
0.00069559
-0.000243379
0.000656357
0.000664477
-0.000225979
0.000429182
0.000610048
-0.000150959
0.000269865
0.000583599
0.000152709
0.000517429
-0.000326448
0.0018721
0.000771954
-0.000424361
0.001205