thermo_log      ../DEM/post/thermo.txt

atom_style      granular
atom_modify     map array
communicate     single vel yes

boundary        f f f
newton          off

units           si
processors      2 2 1

region          reg block 0. 1. 0. 1. 0. 4. units box
create_box      1 reg
Created orthogonal box = (0 0 0) to (1 1 4)
  2 by 2 by 1 MPI processor grid

neighbor        0.3 bin
neigh_modify    delay 0 binsize 0.01


# Material properties required for new pair styles

fix             m1 all property/global youngsModulus peratomtype 5.e7
fix             m2 all property/global poissonsRatio peratomtype 0.45
fix             m3 all property/global coefficientRestitution peratomtypepair 1 0.9
fix             m4 all property/global coefficientFriction peratomtypepair 1 0.5

# pair style
pair_style      gran model hertz tangential history #Hertzian without cohesion
pair_coeff      * *

# timestep, gravity
timestep        0.00003

fix             gravi all gravity 981 vector 0.0 0.0 -1.0

# walls
fix     xwalls1 all wall/gran model hertz tangential history primitive type 1 xplane 0.
fix     xwalls2 all wall/gran model hertz tangential history primitive type 1 xplane 1.
fix     ywalls1 all wall/gran model hertz tangential history primitive type 1 yplane 0.
fix     ywalls2 all wall/gran model hertz tangential history primitive type 1 yplane 1.
fix     zwalls1 all wall/gran model hertz tangential history primitive type 1 zplane 0.
fix     zwalls2 all wall/gran model hertz tangential history primitive type 1 zplane 4.

# cfd coupling
fix     cfd  all couple/cfd couple_every 10 mpi
couple_every as specified in LIGGGHTS is overriden by calling external program (../fix_cfd_coupling.cpp:114)
fix     cfd2 all couple/cfd/force


# create single partciles
create_atoms 1 single .5 .5 3.5  units box
Created 1 atoms
create_atoms 1 single .5 .5 3.16 units box
Created 1 atoms
set atom 1 diameter 0.167 density 1.5 vx 0 vy 0 vz 0
  1 settings made for diameter
  1 settings made for density
  1 settings made for vx
  1 settings made for vy
  1 settings made for vz
set atom 2 diameter 0.167 density 1.5 vx 0 vy 0 vz 0
  1 settings made for diameter
  1 settings made for density
  1 settings made for vx
  1 settings made for vy
  1 settings made for vz

variable        vx1 equal vx[1]
variable        vy1 equal vy[1]
variable        vz1 equal vz[1]
variable        vx2 equal vx[2]
variable        vy2 equal vy[2]
variable        vz2 equal vz[2]
variable        x1 equal x[1]
variable        y1 equal y[1]
variable        z1 equal z[1]
variable        x2 equal x[2]
variable        y2 equal y[2]
variable        z2 equal z[2]
variable        time equal step*dt

fix             extra1 all print 100 "${time} ${vx1} ${vy1} ${vz1}" file ../DEM/post/velocity_particle_1.txt title "%" screen no
fix             extra2 all print 100 "${time} ${vx2} ${vy2} ${vz2}" file ../DEM/post/velocity_particle_2.txt title "%" screen no
fix             extra3 all print 100 "${time} ${x1}  ${y1}  ${z1}"  file ../DEM/post/position_particle_1.txt title "%" screen no
fix             extra4 all print 100 "${time} ${x2}  ${y2}  ${z2}"  file ../DEM/post/position_particle_2.txt title "%" screen no


# apply nve integration to all particles that are inserted as single particles
fix             integr all nve/sphere #wenn das ausgeblendet, dann kein vel update

# screen output
compute         rke all erotate/sphere
thermo_style    custom step atoms ke c_rke vol
thermo          1000
thermo_modify   lost ignore norm no
compute_modify  thermo_temp dynamic yes
WARNING: Changing thermo_temp compute object. This object is deprecated and will be removed in the future. (../compute.cpp:161)

# insert the first particles so that dump is not empty
dump            dmp all custom 100 ../DEM/post/dump.liggghts_run id type x y z ix iy iz vx vy vz fx fy fz omegax omegay omegaz radius

#force : f_couple_cfd[0] f_couple_cfd[1] f_couple_cfd[2]
#node : f_couple_cfd[6]
#cell id : f_couple_cfd[7]

run             1
Setting up run at Thu Mar 19 18:00:16 2020

Memory usage per processor = 51.8087 Mbytes
    Step    Atoms         KinEng            rke         Volume 
       0        2              0              0              4 
       1        2  3.1682527e-06              0              4 
Loop time of 0.000108719 on 4 procs for 1 steps with 2 atoms, finish time Thu Mar 19 18:00:16 2020


Pair  time (%) = 4.29153e-06 (3.94737)
Neigh time (%) = 0 (0)
Comm  time (%) = 1.09673e-05 (10.0877)
Outpt time (%) = 3.43323e-05 (31.5789)
Other time (%) = 5.91278e-05 (54.386)

Nlocal:    0.5 ave 2 max 0 min
Histogram: 3 0 0 0 0 0 0 0 0 1
Nghost:    1.5 ave 2 max 0 min
Histogram: 1 0 0 0 0 0 0 0 0 3
Neighs:    0.25 ave 1 max 0 min
Histogram: 3 0 0 0 0 0 0 0 0 1

Total # of neighbors = 1
Ave neighs/atom = 0.5
Neighbor list builds = 0
Dangerous builds = 0

run 10    
Setting up run at Thu Mar 19 18:00:17 2020

Memory usage per processor = 51.8087 Mbytes
    Step    Atoms         KinEng            rke         Volume 
       1        2  3.1682527e-06              0              4 
CFD Coupling established at step 10
      11        2  0.00038335858              0              4 
Loop time of 0.000269592 on 4 procs for 10 steps with 2 atoms, finish time Thu Mar 19 18:00:17 2020


Pair  time (%) = 1.24574e-05 (4.62083)
Neigh time (%) = 0 (0)
Comm  time (%) = 8.73804e-05 (32.4121)
Outpt time (%) = 6.48499e-05 (24.0548)
Other time (%) = 0.000104904 (38.9122)

Nlocal:    0.5 ave 2 max 0 min
Histogram: 3 0 0 0 0 0 0 0 0 1
Nghost:    1.5 ave 2 max 0 min
Histogram: 1 0 0 0 0 0 0 0 0 3
Neighs:    0.25 ave 1 max 0 min
Histogram: 3 0 0 0 0 0 0 0 0 1

Total # of neighbors = 1
Ave neighs/atom = 0.5
Neighbor list builds = 0
Dangerous builds = 0
run 10    
Setting up run at Thu Mar 19 18:00:17 2020

Memory usage per processor = 51.8087 Mbytes
    Step    Atoms         KinEng            rke         Volume 
      11        2  0.00038335858              0              4 
CFD Coupling established at step 20
      21        2  0.00083081303              0              4 
Loop time of 0.00740695 on 4 procs for 10 steps with 2 atoms, finish time Thu Mar 19 18:00:17 2020


Pair  time (%) = 0.000100493 (1.35675)
Neigh time (%) = 0 (0)
Comm  time (%) = 0.000383258 (5.1743)
Outpt time (%) = 7.87377e-05 (1.06303)
Other time (%) = 0.00684446 (92.4059)

Nlocal:    0.5 ave 2 max 0 min
Histogram: 3 0 0 0 0 0 0 0 0 1
Nghost:    1.5 ave 2 max 0 min
Histogram: 1 0 0 0 0 0 0 0 0 3
Neighs:    0.25 ave 1 max 0 min
Histogram: 3 0 0 0 0 0 0 0 0 1

Total # of neighbors = 1
Ave neighs/atom = 0.5
Neighbor list builds = 0
Dangerous builds = 0
run 10    
Setting up run at Thu Mar 19 18:00:17 2020

Memory usage per processor = 51.8087 Mbytes
    Step    Atoms         KinEng            rke         Volume 
      21        2  0.00083081303              0              4 
CFD Coupling established at step 30
      31        2    0.001042339              0              4 
Loop time of 0.000369132 on 4 procs for 10 steps with 2 atoms, finish time Thu Mar 19 18:00:17 2020


Pair  time (%) = 1.10865e-05 (3.00339)
Neigh time (%) = 0 (0)
Comm  time (%) = 2.91467e-05 (7.89601)
Outpt time (%) = 6.38366e-05 (17.2937)
Other time (%) = 0.000265062 (71.8069)

Nlocal:    0.5 ave 2 max 0 min
Histogram: 3 0 0 0 0 0 0 0 0 1
Nghost:    1.5 ave 2 max 0 min
Histogram: 1 0 0 0 0 0 0 0 0 3
Neighs:    0.25 ave 1 max 0 min
Histogram: 3 0 0 0 0 0 0 0 0 1

Total # of neighbors = 1
Ave neighs/atom = 0.5
Neighbor list builds = 0
Dangerous builds = 0
run 10    
Setting up run at Thu Mar 19 18:00:17 2020

Memory usage per processor = 51.8087 Mbytes
    Step    Atoms         KinEng            rke         Volume 
      31        2    0.001042339              0              4 
CFD Coupling established at step 40
      41        2   0.0010440444              0              4 
Loop time of 0.000366211 on 4 procs for 10 steps with 2 atoms, finish time Thu Mar 19 18:00:17 2020


Pair  time (%) = 1.09673e-05 (2.99479)
Neigh time (%) = 0 (0)
Comm  time (%) = 3.11732e-05 (8.51237)
Outpt time (%) = 6.23465e-05 (17.0247)
Other time (%) = 0.000261724 (71.4681)

Nlocal:    0.5 ave 2 max 0 min
Histogram: 3 0 0 0 0 0 0 0 0 1
Nghost:    1.5 ave 2 max 0 min
Histogram: 1 0 0 0 0 0 0 0 0 3
Neighs:    0.25 ave 1 max 0 min
Histogram: 3 0 0 0 0 0 0 0 0 1

Total # of neighbors = 1
Ave neighs/atom = 0.5
Neighbor list builds = 0
Dangerous builds = 0
run 10    
Setting up run at Thu Mar 19 18:00:18 2020

Memory usage per processor = 51.8087 Mbytes
    Step    Atoms         KinEng            rke         Volume 
      41        2   0.0010440444              0              4 
CFD Coupling established at step 50
      51        2   0.0011026021              0              4 
Loop time of 0.000398695 on 4 procs for 10 steps with 2 atoms, finish time Thu Mar 19 18:00:18 2020


Pair  time (%) = 1.20401e-05 (3.01988)
Neigh time (%) = 0 (0)
Comm  time (%) = 2.86698e-05 (7.19091)
Outpt time (%) = 6.32405e-05 (15.8619)
Other time (%) = 0.000294745 (73.9273)

Nlocal:    0.5 ave 2 max 0 min
Histogram: 3 0 0 0 0 0 0 0 0 1
Nghost:    1.5 ave 2 max 0 min
Histogram: 1 0 0 0 0 0 0 0 0 3
Neighs:    0.25 ave 1 max 0 min
Histogram: 3 0 0 0 0 0 0 0 0 1

Total # of neighbors = 1
Ave neighs/atom = 0.5
Neighbor list builds = 0
Dangerous builds = 0
run 10    
Setting up run at Thu Mar 19 18:00:18 2020

Memory usage per processor = 52.648 Mbytes
    Step    Atoms         KinEng            rke         Volume 
      51        2   0.0011026021              0              4 
CFD Coupling established at step 60
      61        2   0.0013665062              0              4 
Loop time of 0.000398815 on 4 procs for 10 steps with 2 atoms, finish time Thu Mar 19 18:00:18 2020


Pair  time (%) = 1.55568e-05 (3.90076)
Neigh time (%) = 0 (0)
Comm  time (%) = 3.82662e-05 (9.59498)
Outpt time (%) = 5.74589e-05 (14.4074)
Other time (%) = 0.000287533 (72.0968)

Nlocal:    0.5 ave 2 max 0 min
Histogram: 3 0 0 0 0 0 0 0 0 1
Nghost:    1.5 ave 2 max 0 min
Histogram: 1 0 0 0 0 0 0 0 0 3
Neighs:    0.25 ave 1 max 0 min
Histogram: 3 0 0 0 0 0 0 0 0 1

Total # of neighbors = 1
Ave neighs/atom = 0.5
Neighbor list builds = 0
Dangerous builds = 0
run 10    
Setting up run at Thu Mar 19 18:00:18 2020

Memory usage per processor = 52.648 Mbytes
    Step    Atoms         KinEng            rke         Volume 
      61        2   0.0013665062              0              4 
CFD Coupling established at step 70
      71        2   0.0017310923              0              4 
Loop time of 0.000371695 on 4 procs for 10 steps with 2 atoms, finish time Thu Mar 19 18:00:18 2020


Pair  time (%) = 1.18017e-05 (3.17511)
Neigh time (%) = 0 (0)
Comm  time (%) = 4.19617e-05 (11.2893)
Outpt time (%) = 5.42402e-05 (14.5927)
Other time (%) = 0.000263691 (70.9429)

Nlocal:    0.5 ave 1 max 0 min
Histogram: 2 0 0 0 0 0 0 0 0 2
Nghost:    1.5 ave 2 max 1 min
Histogram: 2 0 0 0 0 0 0 0 0 2
Neighs:    0.5 ave 1 max 0 min
Histogram: 2 0 0 0 0 0 0 0 0 2

Total # of neighbors = 2
Ave neighs/atom = 1
Neighbor list builds = 0
Dangerous builds = 0
run 10    
Setting up run at Thu Mar 19 18:00:18 2020

Memory usage per processor = 52.648 Mbytes
    Step    Atoms         KinEng            rke         Volume 
      71        2   0.0017310923              0              4 
CFD Coupling established at step 80
      81        2   0.0021038949              0              4 
Loop time of 0.00787818 on 4 procs for 10 steps with 2 atoms, finish time Thu Mar 19 18:00:18 2020


Pair  time (%) = 7.79033e-05 (0.988848)
Neigh time (%) = 0 (0)
Comm  time (%) = 0.00220793 (28.0259)
Outpt time (%) = 0.00325185 (41.2767)
Other time (%) = 0.0023405 (29.7086)

Nlocal:    0.5 ave 1 max 0 min
Histogram: 2 0 0 0 0 0 0 0 0 2
Nghost:    1.5 ave 2 max 1 min
Histogram: 2 0 0 0 0 0 0 0 0 2
Neighs:    0.5 ave 1 max 0 min
Histogram: 2 0 0 0 0 0 0 0 0 2

Total # of neighbors = 2
Ave neighs/atom = 1
Neighbor list builds = 0
Dangerous builds = 0
run 10    
Setting up run at Thu Mar 19 18:00:18 2020

Memory usage per processor = 52.648 Mbytes
    Step    Atoms         KinEng            rke         Volume 
      81        2   0.0021038949              0              4 
CFD Coupling established at step 90
      91        2   0.0024776697              0              4 
Loop time of 0.00953686 on 4 procs for 10 steps with 2 atoms, finish time Thu Mar 19 18:00:18 2020


Pair  time (%) = 0.000362277 (3.7987)
Neigh time (%) = 0 (0)
Comm  time (%) = 0.00374645 (39.2839)
Outpt time (%) = 0.000741541 (7.77553)
Other time (%) = 0.00468659 (49.1419)

Nlocal:    0.5 ave 1 max 0 min
Histogram: 2 0 0 0 0 0 0 0 0 2
Nghost:    1.5 ave 2 max 1 min
Histogram: 2 0 0 0 0 0 0 0 0 2
Neighs:    0.5 ave 1 max 0 min
Histogram: 2 0 0 0 0 0 0 0 0 2

Total # of neighbors = 2
Ave neighs/atom = 1
Neighbor list builds = 0
Dangerous builds = 0
run 10    
Setting up run at Thu Mar 19 18:00:18 2020

Memory usage per processor = 52.648 Mbytes
    Step    Atoms         KinEng            rke         Volume 
      91        2   0.0024776697              0              4 
CFD Coupling established at step 100
     101        2   0.0028728033              0              4 
Loop time of 0.000665963 on 4 procs for 10 steps with 2 atoms, finish time Thu Mar 19 18:00:18 2020


Pair  time (%) = 1.41263e-05 (2.12118)
Neigh time (%) = 0 (0)
Comm  time (%) = 6.25849e-05 (9.39766)
Outpt time (%) = 0.000106573 (16.0029)
Other time (%) = 0.000482678 (72.4783)

Nlocal:    0.5 ave 1 max 0 min
Histogram: 2 0 0 0 0 0 0 0 0 2
Nghost:    1.5 ave 2 max 1 min
Histogram: 2 0 0 0 0 0 0 0 0 2
Neighs:    0.5 ave 1 max 0 min
Histogram: 2 0 0 0 0 0 0 0 0 2

Total # of neighbors = 2
Ave neighs/atom = 1
Neighbor list builds = 0
Dangerous builds = 0
run 10    
Setting up run at Thu Mar 19 18:00:18 2020

Memory usage per processor = 53.8006 Mbytes
    Step    Atoms         KinEng            rke         Volume 
     101        2   0.0028728033              0              4 
CFD Coupling established at step 110
     111        2    0.003305448              0              4 
Loop time of 0.000384986 on 4 procs for 10 steps with 2 atoms, finish time Thu Mar 19 18:00:18 2020


Pair  time (%) = 1.26362e-05 (3.28224)
Neigh time (%) = 0 (0)
Comm  time (%) = 0.000129521 (33.643)
Outpt time (%) = 5.22733e-05 (13.578)
Other time (%) = 0.000190556 (49.4968)

Nlocal:    0.5 ave 1 max 0 min
Histogram: 2 0 0 0 0 0 0 0 0 2
Nghost:    1.5 ave 2 max 1 min
Histogram: 2 0 0 0 0 0 0 0 0 2
Neighs:    0.5 ave 1 max 0 min
Histogram: 2 0 0 0 0 0 0 0 0 2

Total # of neighbors = 2
Ave neighs/atom = 1
Neighbor list builds = 0
Dangerous builds = 0
run 10    
Setting up run at Thu Mar 19 18:00:18 2020

Memory usage per processor = 53.8006 Mbytes
    Step    Atoms         KinEng            rke         Volume 
     111        2    0.003305448              0              4 
CFD Coupling established at step 120
     121        2   0.0037711396              0              4 
Loop time of 0.000374794 on 4 procs for 10 steps with 2 atoms, finish time Thu Mar 19 18:00:18 2020


Pair  time (%) = 1.14441e-05 (3.05344)
Neigh time (%) = 0 (0)
Comm  time (%) = 0.000131309 (35.035)
Outpt time (%) = 4.39882e-05 (11.7366)
Other time (%) = 0.000188053 (50.1749)

Nlocal:    0.5 ave 1 max 0 min
Histogram: 2 0 0 0 0 0 0 0 0 2
Nghost:    1.5 ave 2 max 1 min
Histogram: 2 0 0 0 0 0 0 0 0 2
Neighs:    0.5 ave 1 max 0 min
Histogram: 2 0 0 0 0 0 0 0 0 2

Total # of neighbors = 2
Ave neighs/atom = 1
Neighbor list builds = 0
Dangerous builds = 0
run 10    
Setting up run at Thu Mar 19 18:00:19 2020

Memory usage per processor = 53.8006 Mbytes
    Step    Atoms         KinEng            rke         Volume 
     121        2   0.0037711396              0              4 
CFD Coupling established at step 130
     131        2   0.0042635035              0              4 
Loop time of 0.00038588 on 4 procs for 10 steps with 2 atoms, finish time Thu Mar 19 18:00:19 2020


Pair  time (%) = 1.31726e-05 (3.41365)
Neigh time (%) = 0 (0)
Comm  time (%) = 0.000131309 (34.0284)
Outpt time (%) = 4.39286e-05 (11.384)
Other time (%) = 0.00019747 (51.1739)

Nlocal:    0.5 ave 1 max 0 min
Histogram: 2 0 0 0 0 0 0 0 0 2
Nghost:    1.5 ave 2 max 1 min
Histogram: 2 0 0 0 0 0 0 0 0 2
Neighs:    0.5 ave 1 max 0 min
Histogram: 2 0 0 0 0 0 0 0 0 2

Total # of neighbors = 2
Ave neighs/atom = 1
Neighbor list builds = 0
Dangerous builds = 0
run 10    
Setting up run at Thu Mar 19 18:00:19 2020

Memory usage per processor = 53.8006 Mbytes
    Step    Atoms         KinEng            rke         Volume 
     131        2   0.0042635035              0              4 
CFD Coupling established at step 140
     141        2   0.0047803118              0              4 
Loop time of 0.000373065 on 4 procs for 10 steps with 2 atoms, finish time Thu Mar 19 18:00:19 2020


Pair  time (%) = 1.11461e-05 (2.9877)
Neigh time (%) = 0 (0)
Comm  time (%) = 0.000128329 (34.3985)
Outpt time (%) = 4.47035e-05 (11.9827)
Other time (%) = 0.000188887 (50.6311)

Nlocal:    0.5 ave 1 max 0 min
Histogram: 2 0 0 0 0 0 0 0 0 2
Nghost:    1.5 ave 2 max 1 min
Histogram: 2 0 0 0 0 0 0 0 0 2
Neighs:    0.5 ave 1 max 0 min
Histogram: 2 0 0 0 0 0 0 0 0 2

Total # of neighbors = 2
Ave neighs/atom = 1
Neighbor list builds = 0
Dangerous builds = 0
run 10    
Setting up run at Thu Mar 19 18:00:19 2020

Memory usage per processor = 53.8006 Mbytes
    Step    Atoms         KinEng            rke         Volume 
     141        2   0.0047803118              0              4 
CFD Coupling established at step 150
     151        2   0.0053213748              0              4 
Loop time of 0.000396609 on 4 procs for 10 steps with 2 atoms, finish time Thu Mar 19 18:00:19 2020


Pair  time (%) = 1.27554e-05 (3.21611)
Neigh time (%) = 0 (0)
Comm  time (%) = 0.00014466 (36.4743)
Outpt time (%) = 4.22001e-05 (10.6402)
Other time (%) = 0.000196993 (49.6694)

Nlocal:    0.5 ave 1 max 0 min
Histogram: 2 0 0 0 0 0 0 0 0 2
Nghost:    1.5 ave 2 max 1 min
Histogram: 2 0 0 0 0 0 0 0 0 2
Neighs:    0.5 ave 1 max 0 min
Histogram: 2 0 0 0 0 0 0 0 0 2

Total # of neighbors = 2
Ave neighs/atom = 1
Neighbor list builds = 0
Dangerous builds = 0
run 10    
Setting up run at Thu Mar 19 18:00:19 2020

Memory usage per processor = 53.8006 Mbytes
    Step    Atoms         KinEng            rke         Volume 
     151        2   0.0053213748              0              4 
CFD Coupling established at step 160
     161        2    0.005891573              0              4 
Loop time of 0.000370204 on 4 procs for 10 steps with 2 atoms, finish time Thu Mar 19 18:00:19 2020


Pair  time (%) = 1.30534e-05 (3.526)
Neigh time (%) = 0 (0)
Comm  time (%) = 0.00013119 (35.4371)
Outpt time (%) = 4.33922e-05 (11.7211)
Other time (%) = 0.000182569 (49.3157)

Nlocal:    0.5 ave 1 max 0 min
Histogram: 2 0 0 0 0 0 0 0 0 2
Nghost:    1.5 ave 2 max 1 min
Histogram: 2 0 0 0 0 0 0 0 0 2
Neighs:    0.5 ave 1 max 0 min
Histogram: 2 0 0 0 0 0 0 0 0 2

Total # of neighbors = 2
Ave neighs/atom = 1
Neighbor list builds = 0
Dangerous builds = 0
run 10    
Setting up run at Thu Mar 19 18:00:19 2020

Memory usage per processor = 53.8006 Mbytes
    Step    Atoms         KinEng            rke         Volume 
     161        2    0.005891573              0              4 
CFD Coupling established at step 170
     171        2    0.006487074              0              4 
Loop time of 0.000474513 on 4 procs for 10 steps with 2 atoms, finish time Thu Mar 19 18:00:19 2020


Pair  time (%) = 2.22921e-05 (4.6979)
Neigh time (%) = 0 (0)
Comm  time (%) = 0.000156224 (32.923)
Outpt time (%) = 5.28097e-05 (11.1293)
Other time (%) = 0.000243187 (51.2498)

Nlocal:    0.5 ave 1 max 0 min
Histogram: 2 0 0 0 0 0 0 0 0 2
Nghost:    1.5 ave 2 max 1 min
Histogram: 2 0 0 0 0 0 0 0 0 2
Neighs:    0.5 ave 1 max 0 min
Histogram: 2 0 0 0 0 0 0 0 0 2

Total # of neighbors = 2
Ave neighs/atom = 1
Neighbor list builds = 0
Dangerous builds = 0
run 10    
Setting up run at Thu Mar 19 18:00:19 2020

Memory usage per processor = 53.8006 Mbytes
    Step    Atoms         KinEng            rke         Volume 
     171        2    0.006487074              0              4 
CFD Coupling established at step 180
     181        2    0.007105324              0              4 
Loop time of 0.00036335 on 4 procs for 10 steps with 2 atoms, finish time Thu Mar 19 18:00:19 2020


Pair  time (%) = 1.28746e-05 (3.54331)
Neigh time (%) = 0 (0)
Comm  time (%) = 0.000127852 (35.187)
Outpt time (%) = 4.07696e-05 (11.2205)
Other time (%) = 0.000181854 (50.0492)

Nlocal:    0.5 ave 1 max 0 min
Histogram: 2 0 0 0 0 0 0 0 0 2
Nghost:    1.5 ave 2 max 1 min
Histogram: 2 0 0 0 0 0 0 0 0 2
Neighs:    0.5 ave 1 max 0 min
Histogram: 2 0 0 0 0 0 0 0 0 2

Total # of neighbors = 2
Ave neighs/atom = 1
Neighbor list builds = 0
Dangerous builds = 0
run 10    
Setting up run at Thu Mar 19 18:00:19 2020

Memory usage per processor = 53.8006 Mbytes
    Step    Atoms         KinEng            rke         Volume 
     181        2    0.007105324              0              4 
CFD Coupling established at step 190
     191        2   0.0077395698              0              4 
Loop time of 0.0104532 on 4 procs for 10 steps with 2 atoms, finish time Thu Mar 19 18:00:19 2020


Pair  time (%) = 0.000109732 (1.04974)
Neigh time (%) = 0 (0)
Comm  time (%) = 0.00386399 (36.9646)
Outpt time (%) = 0.000135005 (1.29151)
Other time (%) = 0.0063445 (60.6942)

Nlocal:    0.5 ave 1 max 0 min
Histogram: 2 0 0 0 0 0 0 0 0 2
Nghost:    1.5 ave 2 max 1 min
Histogram: 2 0 0 0 0 0 0 0 0 2
Neighs:    0.5 ave 1 max 0 min
Histogram: 2 0 0 0 0 0 0 0 0 2

Total # of neighbors = 2
Ave neighs/atom = 1
Neighbor list builds = 0
Dangerous builds = 0
run 10    
Setting up run at Thu Mar 19 18:00:19 2020

Memory usage per processor = 53.8006 Mbytes
    Step    Atoms         KinEng            rke         Volume 
     191        2   0.0077395698              0              4 
CFD Coupling established at step 200
     201        2   0.0083798362              0              4 
Loop time of 0.000561714 on 4 procs for 10 steps with 2 atoms, finish time Thu Mar 19 18:00:19 2020


Pair  time (%) = 1.7345e-05 (3.08786)
Neigh time (%) = 0 (0)
Comm  time (%) = 5.81145e-05 (10.3459)
Outpt time (%) = 6.75321e-05 (12.0225)
Other time (%) = 0.000418723 (74.5437)

Nlocal:    0.5 ave 1 max 0 min
Histogram: 2 0 0 0 0 0 0 0 0 2
Nghost:    1.5 ave 2 max 1 min
Histogram: 2 0 0 0 0 0 0 0 0 2
Neighs:    0.5 ave 1 max 0 min
Histogram: 2 0 0 0 0 0 0 0 0 2

Total # of neighbors = 2
Ave neighs/atom = 1
Neighbor list builds = 0
Dangerous builds = 0
run 10    
Setting up run at Thu Mar 19 18:00:20 2020

Memory usage per processor = 53.8006 Mbytes
    Step    Atoms         KinEng            rke         Volume 
     201        2   0.0083798362              0              4 
CFD Coupling established at step 210
     211        2   0.0090515079              0              4 
Loop time of 0.00034517 on 4 procs for 10 steps with 2 atoms, finish time Thu Mar 19 18:00:20 2020


Pair  time (%) = 1.17421e-05 (3.40183)
Neigh time (%) = 0 (0)
Comm  time (%) = 0.000131726 (38.1627)
Outpt time (%) = 4.4167e-05 (12.7957)
Other time (%) = 0.000157535 (45.6398)

Nlocal:    0.5 ave 1 max 0 min
Histogram: 2 0 0 0 0 0 0 0 0 2
Nghost:    1.5 ave 2 max 1 min
Histogram: 2 0 0 0 0 0 0 0 0 2
Neighs:    0.5 ave 1 max 0 min
Histogram: 2 0 0 0 0 0 0 0 0 2

Total # of neighbors = 2
Ave neighs/atom = 1
Neighbor list builds = 0
Dangerous builds = 0
run 10    
Setting up run at Thu Mar 19 18:00:20 2020

Memory usage per processor = 53.8006 Mbytes
    Step    Atoms         KinEng            rke         Volume 
     211        2   0.0090515079              0              4 
CFD Coupling established at step 220
     221        2   0.0097626876              0              4 
Loop time of 0.000392675 on 4 procs for 10 steps with 2 atoms, finish time Thu Mar 19 18:00:20 2020


Pair  time (%) = 1.31726e-05 (3.35458)
Neigh time (%) = 0 (0)
Comm  time (%) = 0.000139534 (35.5343)
Outpt time (%) = 4.34518e-05 (11.0656)
Other time (%) = 0.000196517 (50.0455)

Nlocal:    0.5 ave 1 max 0 min
Histogram: 2 0 0 0 0 0 0 0 0 2
Nghost:    1.5 ave 2 max 1 min
Histogram: 2 0 0 0 0 0 0 0 0 2
Neighs:    0.5 ave 1 max 0 min
Histogram: 2 0 0 0 0 0 0 0 0 2

Total # of neighbors = 2
Ave neighs/atom = 1
Neighbor list builds = 0
Dangerous builds = 0
run 10    
Setting up run at Thu Mar 19 18:00:20 2020

Memory usage per processor = 53.8006 Mbytes
    Step    Atoms         KinEng            rke         Volume 
     221        2   0.0097626876              0              4 
CFD Coupling established at step 230
     231        2    0.010497988              0              4 
Loop time of 0.000408709 on 4 procs for 10 steps with 2 atoms, finish time Thu Mar 19 18:00:20 2020


Pair  time (%) = 1.43051e-05 (3.50007)
Neigh time (%) = 0 (0)
Comm  time (%) = 0.000137091 (33.5424)
Outpt time (%) = 4.20809e-05 (10.296)
Other time (%) = 0.000215232 (52.6615)

Nlocal:    0.5 ave 1 max 0 min
Histogram: 2 0 0 0 0 0 0 0 0 2
Nghost:    1.5 ave 2 max 1 min
Histogram: 2 0 0 0 0 0 0 0 0 2
Neighs:    0.5 ave 1 max 0 min
Histogram: 2 0 0 0 0 0 0 0 0 2

Total # of neighbors = 2
Ave neighs/atom = 1
Neighbor list builds = 0
Dangerous builds = 0
run 10    
Setting up run at Thu Mar 19 18:00:20 2020

Memory usage per processor = 53.8006 Mbytes
    Step    Atoms         KinEng            rke         Volume 
     231        2    0.010497988              0              4 
CFD Coupling established at step 240
     241        2    0.011252827              0              4 
Loop time of 0.000548422 on 4 procs for 10 steps with 2 atoms, finish time Thu Mar 19 18:00:20 2020


Pair  time (%) = 2.52724e-05 (4.60819)
Neigh time (%) = 0 (0)
Comm  time (%) = 0.000183344 (33.4311)
Outpt time (%) = 5.9545e-05 (10.8575)
Other time (%) = 0.000280261 (51.1031)

Nlocal:    0.5 ave 1 max 0 min
Histogram: 2 0 0 0 0 0 0 0 0 2
Nghost:    1.5 ave 2 max 1 min
Histogram: 2 0 0 0 0 0 0 0 0 2
Neighs:    0.5 ave 1 max 0 min
Histogram: 2 0 0 0 0 0 0 0 0 2

Total # of neighbors = 2
Ave neighs/atom = 1
Neighbor list builds = 0
Dangerous builds = 0
run 10    
Setting up run at Thu Mar 19 18:00:20 2020

Memory usage per processor = 53.8006 Mbytes
    Step    Atoms         KinEng            rke         Volume 
     241        2    0.011252827              0              4 
CFD Coupling established at step 250
     251        2    0.012032683              0              4 
Loop time of 0.000371695 on 4 procs for 10 steps with 2 atoms, finish time Thu Mar 19 18:00:20 2020


Pair  time (%) = 1.17421e-05 (3.15908)
Neigh time (%) = 0 (0)
Comm  time (%) = 0.000130415 (35.0866)
Outpt time (%) = 4.3571e-05 (11.7223)
Other time (%) = 0.000185966 (50.0321)

Nlocal:    0.5 ave 1 max 0 min
Histogram: 2 0 0 0 0 0 0 0 0 2
Nghost:    1.5 ave 2 max 1 min
Histogram: 2 0 0 0 0 0 0 0 0 2
Neighs:    0.5 ave 1 max 0 min
Histogram: 2 0 0 0 0 0 0 0 0 2

Total # of neighbors = 2
Ave neighs/atom = 1
Neighbor list builds = 0
Dangerous builds = 0
run 10    
Setting up run at Thu Mar 19 18:00:20 2020

Memory usage per processor = 53.8006 Mbytes
    Step    Atoms         KinEng            rke         Volume 
     251        2    0.012032683              0              4 
CFD Coupling established at step 260
     261        2    0.012816244              0              4 
Loop time of 0.000398099 on 4 procs for 10 steps with 2 atoms, finish time Thu Mar 19 18:00:20 2020


Pair  time (%) = 1.13845e-05 (2.85971)
Neigh time (%) = 0 (0)
Comm  time (%) = 0.000142038 (35.679)
Outpt time (%) = 4.39882e-05 (11.0496)
Other time (%) = 0.000200689 (50.4117)

Nlocal:    0.5 ave 1 max 0 min
Histogram: 2 0 0 0 0 0 0 0 0 2
Nghost:    1.5 ave 2 max 1 min
Histogram: 2 0 0 0 0 0 0 0 0 2
Neighs:    0.5 ave 1 max 0 min
Histogram: 2 0 0 0 0 0 0 0 0 2

Total # of neighbors = 2
Ave neighs/atom = 1
Neighbor list builds = 0
Dangerous builds = 0
run 10    
Setting up run at Thu Mar 19 18:00:20 2020

Memory usage per processor = 53.8006 Mbytes
    Step    Atoms         KinEng            rke         Volume 
     261        2    0.012816244              0              4 
CFD Coupling established at step 270
     271        2    0.013607377              0              4 
Loop time of 0.000390589 on 4 procs for 10 steps with 2 atoms, finish time Thu Mar 19 18:00:20 2020


Pair  time (%) = 1.47223e-05 (3.76927)
Neigh time (%) = 0 (0)
Comm  time (%) = 0.000101089 (25.8813)
Outpt time (%) = 5.12004e-05 (13.1085)
Other time (%) = 0.000223577 (57.241)

Nlocal:    0.5 ave 2 max 0 min
Histogram: 3 0 0 0 0 0 0 0 0 1
Nghost:    1.5 ave 2 max 0 min
Histogram: 1 0 0 0 0 0 0 0 0 3
Neighs:    0.25 ave 1 max 0 min
Histogram: 3 0 0 0 0 0 0 0 0 1

Total # of neighbors = 1
Ave neighs/atom = 0.5
Neighbor list builds = 0
Dangerous builds = 0
run 10    
Setting up run at Thu Mar 19 18:00:21 2020

Memory usage per processor = 53.8006 Mbytes
    Step    Atoms         KinEng            rke         Volume 
     271        2    0.013607377              0              4 
CFD Coupling established at step 280
     281        2    0.014413198              0              4 
Loop time of 0.000386536 on 4 procs for 10 steps with 2 atoms, finish time Thu Mar 19 18:00:21 2020


Pair  time (%) = 1.52588e-05 (3.94757)
Neigh time (%) = 0 (0)
Comm  time (%) = 0.000101566 (26.276)
Outpt time (%) = 5.07236e-05 (13.1226)
Other time (%) = 0.000218987 (56.6538)

Nlocal:    0.5 ave 2 max 0 min
Histogram: 3 0 0 0 0 0 0 0 0 1
Nghost:    1.5 ave 2 max 0 min
Histogram: 1 0 0 0 0 0 0 0 0 3
Neighs:    0.25 ave 1 max 0 min
Histogram: 3 0 0 0 0 0 0 0 0 1

Total # of neighbors = 1
Ave neighs/atom = 0.5
Neighbor list builds = 0
Dangerous builds = 0
run 10    
Setting up run at Thu Mar 19 18:00:21 2020

Memory usage per processor = 53.8006 Mbytes
    Step    Atoms         KinEng            rke         Volume 
     281        2    0.014413198              0              4 
CFD Coupling established at step 290
     291        2    0.015239677              0              4 
Loop time of 0.000388086 on 4 procs for 10 steps with 2 atoms, finish time Thu Mar 19 18:00:21 2020


Pair  time (%) = 1.49012e-05 (3.83966)
Neigh time (%) = 0 (0)
Comm  time (%) = 9.94205e-05 (25.6182)
Outpt time (%) = 5.04851e-05 (13.0088)
Other time (%) = 0.000223279 (57.5334)

Nlocal:    0.5 ave 2 max 0 min
Histogram: 3 0 0 0 0 0 0 0 0 1
Nghost:    1.5 ave 2 max 0 min
Histogram: 1 0 0 0 0 0 0 0 0 3
Neighs:    0.25 ave 1 max 0 min
Histogram: 3 0 0 0 0 0 0 0 0 1

Total # of neighbors = 1
Ave neighs/atom = 0.5
Neighbor list builds = 0
Dangerous builds = 0
run 10    
Setting up run at Thu Mar 19 18:00:21 2020

Memory usage per processor = 53.8006 Mbytes
    Step    Atoms         KinEng            rke         Volume 
     291        2    0.015239677              0              4 
CFD Coupling established at step 300
     301        2    0.016091888              0              4 
Loop time of 0.00056994 on 4 procs for 10 steps with 2 atoms, finish time Thu Mar 19 18:00:21 2020


Pair  time (%) = 1.66297e-05 (2.9178)
Neigh time (%) = 0 (0)
Comm  time (%) = 3.00407e-05 (5.27086)
Outpt time (%) = 7.61747e-05 (13.3654)
Other time (%) = 0.000447094 (78.4459)

Nlocal:    0.5 ave 2 max 0 min
Histogram: 3 0 0 0 0 0 0 0 0 1
Nghost:    1.5 ave 2 max 0 min
Histogram: 1 0 0 0 0 0 0 0 0 3
Neighs:    0.25 ave 1 max 0 min
Histogram: 3 0 0 0 0 0 0 0 0 1

Total # of neighbors = 1
Ave neighs/atom = 0.5
Neighbor list builds = 0
Dangerous builds = 0
run 10    
Setting up run at Thu Mar 19 18:00:21 2020

Memory usage per processor = 53.8006 Mbytes
    Step    Atoms         KinEng            rke         Volume 
     301        2    0.016091888              0              4 
CFD Coupling established at step 310
     311        2    0.016967479              0              4 
Loop time of 0.000401914 on 4 procs for 10 steps with 2 atoms, finish time Thu Mar 19 18:00:21 2020


Pair  time (%) = 1.72853e-05 (4.30076)
Neigh time (%) = 0 (0)
Comm  time (%) = 0.000101805 (25.33)
Outpt time (%) = 5.17964e-05 (12.8874)
Other time (%) = 0.000231028 (57.4818)

Nlocal:    0.5 ave 2 max 0 min
Histogram: 3 0 0 0 0 0 0 0 0 1
Nghost:    1.5 ave 2 max 0 min
Histogram: 1 0 0 0 0 0 0 0 0 3
Neighs:    0.25 ave 1 max 0 min
Histogram: 3 0 0 0 0 0 0 0 0 1

Total # of neighbors = 1
Ave neighs/atom = 0.5
Neighbor list builds = 0
Dangerous builds = 0
run 10    
Setting up run at Thu Mar 19 18:00:21 2020

Memory usage per processor = 53.8006 Mbytes
    Step    Atoms         KinEng            rke         Volume 
     311        2    0.016967479              0              4 
CFD Coupling established at step 320
     321        2    0.017858092              0              4 
Loop time of 0.000412762 on 4 procs for 10 steps with 2 atoms, finish time Thu Mar 19 18:00:21 2020


Pair  time (%) = 1.64509e-05 (3.98556)
Neigh time (%) = 0 (0)
Comm  time (%) = 0.000102758 (24.8953)
Outpt time (%) = 5.28693e-05 (12.8087)
Other time (%) = 0.000240684 (58.3105)

Nlocal:    0.5 ave 2 max 0 min
Histogram: 3 0 0 0 0 0 0 0 0 1
Nghost:    1.5 ave 2 max 0 min
Histogram: 1 0 0 0 0 0 0 0 0 3
Neighs:    0.25 ave 1 max 0 min
Histogram: 3 0 0 0 0 0 0 0 0 1

Total # of neighbors = 1
Ave neighs/atom = 0.5
Neighbor list builds = 0
Dangerous builds = 0
run 10    
Setting up run at Thu Mar 19 18:00:21 2020

Memory usage per processor = 53.8006 Mbytes
    Step    Atoms         KinEng            rke         Volume 
     321        2    0.017858092              0              4 
CFD Coupling established at step 330
     331        2    0.018742399              0              4 
Loop time of 0.000392377 on 4 procs for 10 steps with 2 atoms, finish time Thu Mar 19 18:00:21 2020


Pair  time (%) = 1.53184e-05 (3.904)
Neigh time (%) = 0 (0)
Comm  time (%) = 0.000105083 (26.7811)
Outpt time (%) = 4.99487e-05 (12.7298)
Other time (%) = 0.000222027 (56.5851)

Nlocal:    0.5 ave 2 max 0 min
Histogram: 3 0 0 0 0 0 0 0 0 1
Nghost:    1.5 ave 2 max 0 min
Histogram: 1 0 0 0 0 0 0 0 0 3
Neighs:    0.25 ave 1 max 0 min
Histogram: 3 0 0 0 0 0 0 0 0 1

Total # of neighbors = 1
Ave neighs/atom = 0.5
Neighbor list builds = 0
Dangerous builds = 0
run 10    
Setting up run at Thu Mar 19 18:00:22 2020

Memory usage per processor = 53.8006 Mbytes
    Step    Atoms         KinEng            rke         Volume 
     331        2    0.018742399              0              4 
CFD Coupling established at step 340
     341        2    0.019662521              0              4 
Loop time of 0.000391722 on 4 procs for 10 steps with 2 atoms, finish time Thu Mar 19 18:00:22 2020


Pair  time (%) = 1.508e-05 (3.84967)
Neigh time (%) = 0 (0)
Comm  time (%) = 0.000103116 (26.3238)
Outpt time (%) = 5.29885e-05 (13.5271)
Other time (%) = 0.000220537 (56.2995)

Nlocal:    0.5 ave 2 max 0 min
Histogram: 3 0 0 0 0 0 0 0 0 1
Nghost:    1.5 ave 2 max 0 min
Histogram: 1 0 0 0 0 0 0 0 0 3
Neighs:    0.25 ave 1 max 0 min
Histogram: 3 0 0 0 0 0 0 0 0 1

Total # of neighbors = 1
Ave neighs/atom = 0.5
Neighbor list builds = 0
Dangerous builds = 0
run 10    
Setting up run at Thu Mar 19 18:00:22 2020

Memory usage per processor = 53.8006 Mbytes
    Step    Atoms         KinEng            rke         Volume 
     341        2    0.019662521              0              4 
CFD Coupling established at step 350
     351        2    0.020606332              0              4 
Loop time of 0.000351727 on 4 procs for 10 steps with 2 atoms, finish time Thu Mar 19 18:00:22 2020


Pair  time (%) = 1.43647e-05 (4.08405)
Neigh time (%) = 0 (0)
Comm  time (%) = 3.02792e-05 (8.60871)
Outpt time (%) = 6.9499e-05 (19.7594)
Other time (%) = 0.000237584 (67.5479)

Nlocal:    0.5 ave 2 max 0 min
Histogram: 3 0 0 0 0 0 0 0 0 1
Nghost:    1.5 ave 2 max 0 min
Histogram: 1 0 0 0 0 0 0 0 0 3
Neighs:    0.25 ave 1 max 0 min
Histogram: 3 0 0 0 0 0 0 0 0 1

Total # of neighbors = 1
Ave neighs/atom = 0.5
Neighbor list builds = 0
Dangerous builds = 0
run 10    
Setting up run at Thu Mar 19 18:00:22 2020

Memory usage per processor = 53.8006 Mbytes
    Step    Atoms         KinEng            rke         Volume 
     351        2    0.020606332              0              4 
CFD Coupling established at step 360
     361        2    0.021579169              0              4 
Loop time of 0.000364304 on 4 procs for 10 steps with 2 atoms, finish time Thu Mar 19 18:00:22 2020


Pair  time (%) = 1.37091e-05 (3.76309)
Neigh time (%) = 0 (0)
Comm  time (%) = 3.1352e-05 (8.60602)
Outpt time (%) = 7.34925e-05 (20.1734)
Other time (%) = 0.00024575 (67.4575)

Nlocal:    0.5 ave 2 max 0 min
Histogram: 3 0 0 0 0 0 0 0 0 1
Nghost:    1.5 ave 2 max 0 min
Histogram: 1 0 0 0 0 0 0 0 0 3
Neighs:    0.25 ave 1 max 0 min
Histogram: 3 0 0 0 0 0 0 0 0 1

Total # of neighbors = 1
Ave neighs/atom = 0.5
Neighbor list builds = 0
Dangerous builds = 0
run 10    
Setting up run at Thu Mar 19 18:00:22 2020

Memory usage per processor = 53.8006 Mbytes
    Step    Atoms         KinEng            rke         Volume 
     361        2    0.021579169              0              4 
CFD Coupling established at step 370
     371        2    0.022574783              0              4 
Loop time of 0.000251293 on 4 procs for 10 steps with 2 atoms, finish time Thu Mar 19 18:00:22 2020


Pair  time (%) = 1.44839e-05 (5.76376)
Neigh time (%) = 0 (0)
Comm  time (%) = 3.45707e-05 (13.7571)
Outpt time (%) = 3.09944e-05 (12.334)
Other time (%) = 0.000171244 (68.1452)

Nlocal:    0.5 ave 2 max 0 min
Histogram: 3 0 0 0 0 0 0 0 0 1
Nghost:    1.5 ave 2 max 0 min
Histogram: 1 0 0 0 0 0 0 0 0 3
Neighs:    0.25 ave 1 max 0 min
Histogram: 3 0 0 0 0 0 0 0 0 1

Total # of neighbors = 1
Ave neighs/atom = 0.5
Neighbor list builds = 0
Dangerous builds = 0
run 10    
Setting up run at Thu Mar 19 18:00:22 2020

Memory usage per processor = 53.8006 Mbytes
    Step    Atoms         KinEng            rke         Volume 
     371        2    0.022574783              0              4 
CFD Coupling established at step 380
     381        2    0.023578417              0              4 
Loop time of 0.000285327 on 4 procs for 10 steps with 2 atoms, finish time Thu Mar 19 18:00:22 2020


Pair  time (%) = 1.45435e-05 (5.09714)
Neigh time (%) = 0 (0)
Comm  time (%) = 0.000105202 (36.8707)
Outpt time (%) = 4.29749e-05 (15.0616)
Other time (%) = 0.000122607 (42.9705)

Nlocal:    0.5 ave 2 max 0 min
Histogram: 3 0 0 0 0 0 0 0 0 1
Nghost:    1.5 ave 2 max 0 min
Histogram: 1 0 0 0 0 0 0 0 0 3
Neighs:    0.25 ave 1 max 0 min
Histogram: 3 0 0 0 0 0 0 0 0 1

Total # of neighbors = 1
Ave neighs/atom = 0.5
Neighbor list builds = 0
Dangerous builds = 0
run 10    
Setting up run at Thu Mar 19 18:00:22 2020

Memory usage per processor = 53.8006 Mbytes
    Step    Atoms         KinEng            rke         Volume 
     381        2    0.023578417              0              4 
CFD Coupling established at step 390
     391        2    0.024617135              0              4 
Loop time of 0.000401795 on 4 procs for 10 steps with 2 atoms, finish time Thu Mar 19 18:00:22 2020


Pair  time (%) = 1.508e-05 (3.75315)
Neigh time (%) = 0 (0)
Comm  time (%) = 0.000102222 (25.4413)
Outpt time (%) = 6.1512e-05 (15.3093)
Other time (%) = 0.000222981 (55.4962)

Nlocal:    0.5 ave 2 max 0 min
Histogram: 3 0 0 0 0 0 0 0 0 1
Nghost:    1.5 ave 2 max 0 min
Histogram: 1 0 0 0 0 0 0 0 0 3
Neighs:    0.25 ave 1 max 0 min
Histogram: 3 0 0 0 0 0 0 0 0 1

Total # of neighbors = 1
Ave neighs/atom = 0.5
Neighbor list builds = 0
Dangerous builds = 0
run 10    
Setting up run at Thu Mar 19 18:00:23 2020

Memory usage per processor = 53.8006 Mbytes
    Step    Atoms         KinEng            rke         Volume 
     391        2    0.024617135              0              4 
CFD Coupling established at step 400
     401        2    0.025673064              0              4 
Loop time of 0.000594497 on 4 procs for 10 steps with 2 atoms, finish time Thu Mar 19 18:00:23 2020


Pair  time (%) = 1.44839e-05 (2.43633)
Neigh time (%) = 0 (0)
Comm  time (%) = 3.06964e-05 (5.16342)
Outpt time (%) = 7.39694e-05 (12.4424)
Other time (%) = 0.000475347 (79.9579)

Nlocal:    0.5 ave 2 max 0 min
Histogram: 3 0 0 0 0 0 0 0 0 1
Nghost:    1.5 ave 2 max 0 min
Histogram: 1 0 0 0 0 0 0 0 0 3
Neighs:    0.25 ave 1 max 0 min
Histogram: 3 0 0 0 0 0 0 0 0 1

Total # of neighbors = 1
Ave neighs/atom = 0.5
Neighbor list builds = 0
Dangerous builds = 0
run 10    
Setting up run at Thu Mar 19 18:00:23 2020

Memory usage per processor = 53.8006 Mbytes
    Step    Atoms         KinEng            rke         Volume 
     401        2    0.025673064              0              4 
CFD Coupling established at step 410
     411        2    0.026736342              0              4 
Loop time of 0.000386536 on 4 procs for 10 steps with 2 atoms, finish time Thu Mar 19 18:00:23 2020


Pair  time (%) = 1.23382e-05 (3.19198)
Neigh time (%) = 0 (0)
Comm  time (%) = 6.71744e-05 (17.3786)
Outpt time (%) = 3.25441e-05 (8.41943)
Other time (%) = 0.000274479 (71.01)

Nlocal:    0.5 ave 1 max 0 min
Histogram: 2 0 0 0 0 0 0 0 0 2
Nghost:    1.5 ave 2 max 1 min
Histogram: 2 0 0 0 0 0 0 0 0 2
Neighs:    0.5 ave 1 max 0 min
Histogram: 2 0 0 0 0 0 0 0 0 2

Total # of neighbors = 2
Ave neighs/atom = 1
Neighbor list builds = 0
Dangerous builds = 0
run 10    
Setting up run at Thu Mar 19 18:00:23 2020

Memory usage per processor = 53.8006 Mbytes
    Step    Atoms         KinEng            rke         Volume 
     411        2    0.026736342              0              4 
CFD Coupling established at step 420
     421        2    0.027887841              0              4 
Loop time of 0.000429273 on 4 procs for 10 steps with 2 atoms, finish time Thu Mar 19 18:00:23 2020


Pair  time (%) = 1.10269e-05 (2.56873)
Neigh time (%) = 0 (0)
Comm  time (%) = 0.000103533 (24.1183)
Outpt time (%) = 2.86102e-05 (6.66482)
Other time (%) = 0.000286102 (66.6482)

Nlocal:    0.5 ave 1 max 0 min
Histogram: 2 0 0 0 0 0 0 0 0 2
Nghost:    1.5 ave 2 max 1 min
Histogram: 2 0 0 0 0 0 0 0 0 2
Neighs:    0.5 ave 1 max 0 min
Histogram: 2 0 0 0 0 0 0 0 0 2

Total # of neighbors = 2
Ave neighs/atom = 1
Neighbor list builds = 0
Dangerous builds = 0
run 10    
Setting up run at Thu Mar 19 18:00:23 2020

Memory usage per processor = 53.8006 Mbytes
    Step    Atoms         KinEng            rke         Volume 
     421        2    0.027887841              0              4 
CFD Coupling established at step 430
     431        2     0.02894782              0              4 
Loop time of 0.000389099 on 4 procs for 10 steps with 2 atoms, finish time Thu Mar 19 18:00:23 2020


Pair  time (%) = 1.14441e-05 (2.94118)
Neigh time (%) = 0 (0)
Comm  time (%) = 3.67761e-05 (9.45159)
Outpt time (%) = 4.85182e-05 (12.4694)
Other time (%) = 0.000292361 (75.1379)

Nlocal:    0.5 ave 1 max 0 min
Histogram: 2 0 0 0 0 0 0 0 0 2
Nghost:    1.5 ave 2 max 1 min
Histogram: 2 0 0 0 0 0 0 0 0 2
Neighs:    0.5 ave 1 max 0 min
Histogram: 2 0 0 0 0 0 0 0 0 2

Total # of neighbors = 2
Ave neighs/atom = 1
Neighbor list builds = 0
Dangerous builds = 0
run 10    
Setting up run at Thu Mar 19 18:00:23 2020

Memory usage per processor = 53.8006 Mbytes
    Step    Atoms         KinEng            rke         Volume 
     431        2     0.02894782              0              4 
CFD Coupling established at step 440
     441        2    0.030016545              0              4 
Loop time of 0.00039649 on 4 procs for 10 steps with 2 atoms, finish time Thu Mar 19 18:00:23 2020


Pair  time (%) = 1.26362e-05 (3.18701)
Neigh time (%) = 0 (0)
Comm  time (%) = 3.6478e-05 (9.20024)
Outpt time (%) = 4.95911e-05 (12.5075)
Other time (%) = 0.000297785 (75.1052)

Nlocal:    0.5 ave 1 max 0 min
Histogram: 2 0 0 0 0 0 0 0 0 2
Nghost:    1.5 ave 2 max 1 min
Histogram: 2 0 0 0 0 0 0 0 0 2
Neighs:    0.5 ave 1 max 0 min
Histogram: 2 0 0 0 0 0 0 0 0 2

Total # of neighbors = 2
Ave neighs/atom = 1
Neighbor list builds = 0
Dangerous builds = 0
run 10    
Setting up run at Thu Mar 19 18:00:23 2020

Memory usage per processor = 53.8006 Mbytes
    Step    Atoms         KinEng            rke         Volume 
     441        2    0.030016545              0              4 
CFD Coupling established at step 450
     451        2    0.031107989              0              4 
Loop time of 0.000390708 on 4 procs for 10 steps with 2 atoms, finish time Thu Mar 19 18:00:23 2020


Pair  time (%) = 1.18613e-05 (3.03585)
Neigh time (%) = 0 (0)
Comm  time (%) = 3.80874e-05 (9.74828)
Outpt time (%) = 4.90546e-05 (12.5553)
Other time (%) = 0.000291705 (74.6606)

Nlocal:    0.5 ave 1 max 0 min
Histogram: 2 0 0 0 0 0 0 0 0 2
Nghost:    1.5 ave 2 max 1 min
Histogram: 2 0 0 0 0 0 0 0 0 2
Neighs:    0.5 ave 1 max 0 min
Histogram: 2 0 0 0 0 0 0 0 0 2

Total # of neighbors = 2
Ave neighs/atom = 1
Neighbor list builds = 0
Dangerous builds = 0
run 10    
Setting up run at Thu Mar 19 18:00:23 2020

Memory usage per processor = 53.8006 Mbytes
    Step    Atoms         KinEng            rke         Volume 
     451        2    0.031107989              0              4 
CFD Coupling established at step 460
     461        2    0.032225893              0              4 
Loop time of 0.000383973 on 4 procs for 10 steps with 2 atoms, finish time Thu Mar 19 18:00:23 2020


Pair  time (%) = 1.11461e-05 (2.90283)
Neigh time (%) = 0 (0)
Comm  time (%) = 3.58224e-05 (9.3294)
Outpt time (%) = 4.66704e-05 (12.1546)
Other time (%) = 0.000290334 (75.6132)

Nlocal:    0.5 ave 1 max 0 min
Histogram: 2 0 0 0 0 0 0 0 0 2
Nghost:    1.5 ave 2 max 1 min
Histogram: 2 0 0 0 0 0 0 0 0 2
Neighs:    0.5 ave 1 max 0 min
Histogram: 2 0 0 0 0 0 0 0 0 2

Total # of neighbors = 2
Ave neighs/atom = 1
Neighbor list builds = 0
Dangerous builds = 0
run 10    
Setting up run at Thu Mar 19 18:00:24 2020

Memory usage per processor = 53.8006 Mbytes
    Step    Atoms         KinEng            rke         Volume 
     461        2    0.032225893              0              4 
CFD Coupling established at step 470
     471        2     0.03335546              0              4 
Loop time of 0.000390291 on 4 procs for 10 steps with 2 atoms, finish time Thu Mar 19 18:00:24 2020


Pair  time (%) = 1.2219e-05 (3.13073)
Neigh time (%) = 0 (0)
Comm  time (%) = 3.86238e-05 (9.89615)
Outpt time (%) = 4.8697e-05 (12.4771)
Other time (%) = 0.000290751 (74.496)

Nlocal:    0.5 ave 1 max 0 min
Histogram: 2 0 0 0 0 0 0 0 0 2
Nghost:    1.5 ave 2 max 1 min
Histogram: 2 0 0 0 0 0 0 0 0 2
Neighs:    0.5 ave 1 max 0 min
Histogram: 2 0 0 0 0 0 0 0 0 2

Total # of neighbors = 2
Ave neighs/atom = 1
Neighbor list builds = 0
Dangerous builds = 0
run 10    
Setting up run at Thu Mar 19 18:00:24 2020

Memory usage per processor = 53.8006 Mbytes
    Step    Atoms         KinEng            rke         Volume 
     471        2     0.03335546              0              4 
CFD Coupling established at step 480
     481        2    0.034499228              0              4 
Loop time of 0.000393689 on 4 procs for 10 steps with 2 atoms, finish time Thu Mar 19 18:00:24 2020


Pair  time (%) = 1.15037e-05 (2.92203)
Neigh time (%) = 0 (0)
Comm  time (%) = 3.8445e-05 (9.76533)
Outpt time (%) = 4.84586e-05 (12.3089)
Other time (%) = 0.000295281 (75.0038)

Nlocal:    0.5 ave 1 max 0 min
Histogram: 2 0 0 0 0 0 0 0 0 2
Nghost:    1.5 ave 2 max 1 min
Histogram: 2 0 0 0 0 0 0 0 0 2
Neighs:    0.5 ave 1 max 0 min
Histogram: 2 0 0 0 0 0 0 0 0 2

Total # of neighbors = 2
Ave neighs/atom = 1
Neighbor list builds = 0
Dangerous builds = 0
run 10    
Setting up run at Thu Mar 19 18:00:24 2020

Memory usage per processor = 53.8006 Mbytes
    Step    Atoms         KinEng            rke         Volume 
     481        2    0.034499228              0              4 
CFD Coupling established at step 490
     491        2      0.0356571              0              4 
Loop time of 0.00040096 on 4 procs for 10 steps with 2 atoms, finish time Thu Mar 19 18:00:24 2020


Pair  time (%) = 1.33514e-05 (3.32986)
Neigh time (%) = 0 (0)
Comm  time (%) = 3.71337e-05 (9.26119)
Outpt time (%) = 4.8697e-05 (12.1451)
Other time (%) = 0.000301778 (75.2639)

Nlocal:    0.5 ave 1 max 0 min
Histogram: 2 0 0 0 0 0 0 0 0 2
Nghost:    1.5 ave 2 max 1 min
Histogram: 2 0 0 0 0 0 0 0 0 2
Neighs:    0.5 ave 1 max 0 min
Histogram: 2 0 0 0 0 0 0 0 0 2

Total # of neighbors = 2
Ave neighs/atom = 1
Neighbor list builds = 0
Dangerous builds = 0
run 10    
Setting up run at Thu Mar 19 18:00:24 2020

Memory usage per processor = 53.8006 Mbytes
    Step    Atoms         KinEng            rke         Volume 
     491        2      0.0356571              0              4 
CFD Coupling established at step 500
     501        2    0.036825719              0              4 
Loop time of 0.00059545 on 4 procs for 10 steps with 2 atoms, finish time Thu Mar 19 18:00:24 2020


Pair  time (%) = 1.15633e-05 (1.94194)
Neigh time (%) = 0 (0)
Comm  time (%) = 3.73721e-05 (6.27628)
Outpt time (%) = 9.93013e-05 (16.6767)
Other time (%) = 0.000447214 (75.1051)

Nlocal:    0.5 ave 1 max 0 min
Histogram: 2 0 0 0 0 0 0 0 0 2
Nghost:    1.5 ave 2 max 1 min
Histogram: 2 0 0 0 0 0 0 0 0 2
Neighs:    0.5 ave 1 max 0 min
Histogram: 2 0 0 0 0 0 0 0 0 2

Total # of neighbors = 2
Ave neighs/atom = 1
Neighbor list builds = 0
Dangerous builds = 0
run 10    
Setting up run at Thu Mar 19 18:00:24 2020

Memory usage per processor = 53.8006 Mbytes
    Step    Atoms         KinEng            rke         Volume 
     501        2    0.036825719              0              4 
CFD Coupling established at step 510
     511        2    0.038005614              0              4 
Loop time of 0.000384569 on 4 procs for 10 steps with 2 atoms, finish time Thu Mar 19 18:00:24 2020


Pair  time (%) = 1.20997e-05 (3.14631)
Neigh time (%) = 0 (0)
Comm  time (%) = 3.5882e-05 (9.33044)
Outpt time (%) = 4.94123e-05 (12.8487)
Other time (%) = 0.000287175 (74.6745)

Nlocal:    0.5 ave 1 max 0 min
Histogram: 2 0 0 0 0 0 0 0 0 2
Nghost:    1.5 ave 2 max 1 min
Histogram: 2 0 0 0 0 0 0 0 0 2
Neighs:    0.5 ave 1 max 0 min
Histogram: 2 0 0 0 0 0 0 0 0 2

Total # of neighbors = 2
Ave neighs/atom = 1
Neighbor list builds = 0
Dangerous builds = 0
run 10    
Setting up run at Thu Mar 19 18:00:24 2020

Memory usage per processor = 53.8006 Mbytes
    Step    Atoms         KinEng            rke         Volume 
     511        2    0.038005614              0              4 
CFD Coupling established at step 520
     521        2     0.03924183              0              4 
Loop time of 0.000390232 on 4 procs for 10 steps with 2 atoms, finish time Thu Mar 19 18:00:24 2020


Pair  time (%) = 1.23978e-05 (3.17703)
Neigh time (%) = 0 (0)
Comm  time (%) = 6.7234e-05 (17.2293)
Outpt time (%) = 3.34978e-05 (8.58408)
Other time (%) = 0.000277102 (71.0096)

Nlocal:    0.5 ave 1 max 0 min
Histogram: 2 0 0 0 0 0 0 0 0 2
Nghost:    1.5 ave 2 max 1 min
Histogram: 2 0 0 0 0 0 0 0 0 2
Neighs:    0.5 ave 1 max 0 min
Histogram: 2 0 0 0 0 0 0 0 0 2

Total # of neighbors = 2
Ave neighs/atom = 1
Neighbor list builds = 0
Dangerous builds = 0
run 10    
Setting up run at Thu Mar 19 18:00:25 2020

Memory usage per processor = 53.8006 Mbytes
    Step    Atoms         KinEng            rke         Volume 
     521        2     0.03924183              0              4 
CFD Coupling established at step 530
     531        2    0.040494994              0              4 
Loop time of 0.000405729 on 4 procs for 10 steps with 2 atoms, finish time Thu Mar 19 18:00:25 2020


Pair  time (%) = 1.15037e-05 (2.83532)
Neigh time (%) = 0 (0)
Comm  time (%) = 6.80685e-05 (16.7768)
Outpt time (%) = 3.64184e-05 (8.97605)
Other time (%) = 0.000289738 (71.4118)

Nlocal:    0.5 ave 1 max 0 min
Histogram: 2 0 0 0 0 0 0 0 0 2
Nghost:    1.5 ave 2 max 1 min
Histogram: 2 0 0 0 0 0 0 0 0 2
Neighs:    0.5 ave 1 max 0 min
Histogram: 2 0 0 0 0 0 0 0 0 2

Total # of neighbors = 2
Ave neighs/atom = 1
Neighbor list builds = 0
Dangerous builds = 0
run 10    
Setting up run at Thu Mar 19 18:00:25 2020

Memory usage per processor = 53.8006 Mbytes
    Step    Atoms         KinEng            rke         Volume 
     531        2    0.040494994              0              4 
CFD Coupling established at step 540
     541        2    0.041731851              0              4 
Loop time of 0.000386 on 4 procs for 10 steps with 2 atoms, finish time Thu Mar 19 18:00:25 2020


Pair  time (%) = 1.15633e-05 (2.99568)
Neigh time (%) = 0 (0)
Comm  time (%) = 6.59227e-05 (17.0784)
Outpt time (%) = 3.40343e-05 (8.81717)
Other time (%) = 0.000274479 (71.1087)

Nlocal:    0.5 ave 1 max 0 min
Histogram: 2 0 0 0 0 0 0 0 0 2
Nghost:    1.5 ave 2 max 1 min
Histogram: 2 0 0 0 0 0 0 0 0 2
Neighs:    0.5 ave 1 max 0 min
Histogram: 2 0 0 0 0 0 0 0 0 2

Total # of neighbors = 2
Ave neighs/atom = 1
Neighbor list builds = 0
Dangerous builds = 0
run 10    
Setting up run at Thu Mar 19 18:00:25 2020

Memory usage per processor = 53.8006 Mbytes
    Step    Atoms         KinEng            rke         Volume 
     541        2    0.041731851              0              4 
CFD Coupling established at step 550
     551        2    0.042973398              0              4 
Loop time of 0.00039047 on 4 procs for 10 steps with 2 atoms, finish time Thu Mar 19 18:00:25 2020


Pair  time (%) = 1.15037e-05 (2.94612)
Neigh time (%) = 0 (0)
Comm  time (%) = 6.73532e-05 (17.2493)
Outpt time (%) = 3.45707e-05 (8.85361)
Other time (%) = 0.000277042 (70.951)

Nlocal:    0.5 ave 1 max 0 min
Histogram: 2 0 0 0 0 0 0 0 0 2
Nghost:    1.5 ave 2 max 1 min
Histogram: 2 0 0 0 0 0 0 0 0 2
Neighs:    0.5 ave 1 max 0 min
Histogram: 2 0 0 0 0 0 0 0 0 2

Total # of neighbors = 2
Ave neighs/atom = 1
Neighbor list builds = 0
Dangerous builds = 0
run 10    
Setting up run at Thu Mar 19 18:00:25 2020

Memory usage per processor = 53.8006 Mbytes
    Step    Atoms         KinEng            rke         Volume 
     551        2    0.042973398              0              4 
CFD Coupling established at step 560
     561        2    0.044250982              0              4 
Loop time of 0.000389576 on 4 procs for 10 steps with 2 atoms, finish time Thu Mar 19 18:00:25 2020


Pair  time (%) = 1.32918e-05 (3.41187)
Neigh time (%) = 0 (0)
Comm  time (%) = 3.88622e-05 (9.97552)
Outpt time (%) = 3.3021e-05 (8.47613)
Other time (%) = 0.000304401 (78.1365)

Nlocal:    0.5 ave 1 max 0 min
Histogram: 2 0 0 0 0 0 0 0 0 2
Nghost:    1.5 ave 2 max 1 min
Histogram: 2 0 0 0 0 0 0 0 0 2
Neighs:    0.5 ave 1 max 0 min
Histogram: 2 0 0 0 0 0 0 0 0 2

Total # of neighbors = 2
Ave neighs/atom = 1
Neighbor list builds = 0
Dangerous builds = 0
run 10    
Setting up run at Thu Mar 19 18:00:25 2020

Memory usage per processor = 53.8006 Mbytes
    Step    Atoms         KinEng            rke         Volume 
     561        2    0.044250982              0              4 
CFD Coupling established at step 570
     571        2    0.045527991              0              4 
Loop time of 0.000386298 on 4 procs for 10 steps with 2 atoms, finish time Thu Mar 19 18:00:25 2020


Pair  time (%) = 1.3411e-05 (3.47169)
Neigh time (%) = 0 (0)
Comm  time (%) = 5.37634e-05 (13.9176)
Outpt time (%) = 4.04716e-05 (10.4768)
Other time (%) = 0.000278652 (72.1339)

Nlocal:    0.5 ave 1 max 0 min
Histogram: 2 0 0 0 0 0 0 0 0 2
Nghost:    1.5 ave 2 max 1 min
Histogram: 2 0 0 0 0 0 0 0 0 2
Neighs:    0.5 ave 1 max 0 min
Histogram: 2 0 0 0 0 0 0 0 0 2

Total # of neighbors = 2
Ave neighs/atom = 1
Neighbor list builds = 0
Dangerous builds = 0
run 10    
Setting up run at Thu Mar 19 18:00:25 2020

Memory usage per processor = 53.8006 Mbytes
    Step    Atoms         KinEng            rke         Volume 
     571        2    0.045527991              0              4 
CFD Coupling established at step 580
     581        2    0.046777215              0              4 
Loop time of 0.00039959 on 4 procs for 10 steps with 2 atoms, finish time Thu Mar 19 18:00:25 2020


Pair  time (%) = 1.19209e-05 (2.98329)
Neigh time (%) = 0 (0)
Comm  time (%) = 5.50151e-05 (13.7679)
Outpt time (%) = 4.29749e-05 (10.7548)
Other time (%) = 0.000289679 (72.494)

Nlocal:    0.5 ave 1 max 0 min
Histogram: 2 0 0 0 0 0 0 0 0 2
Nghost:    1.5 ave 2 max 1 min
Histogram: 2 0 0 0 0 0 0 0 0 2
Neighs:    0.5 ave 1 max 0 min
Histogram: 2 0 0 0 0 0 0 0 0 2

Total # of neighbors = 2
Ave neighs/atom = 1
Neighbor list builds = 0
Dangerous builds = 0
run 10    
Setting up run at Thu Mar 19 18:00:25 2020

Memory usage per processor = 53.8006 Mbytes
    Step    Atoms         KinEng            rke         Volume 
     581        2    0.046777215              0              4 
CFD Coupling established at step 590
     591        2    0.048023708              0              4 
Loop time of 0.0084995 on 4 procs for 10 steps with 2 atoms, finish time Thu Mar 19 18:00:25 2020


Pair  time (%) = 0.000101745 (1.19707)
Neigh time (%) = 0 (0)
Comm  time (%) = 0.00335926 (39.523)
Outpt time (%) = 8.35657e-05 (0.983183)
Other time (%) = 0.00495493 (58.2968)

Nlocal:    0.5 ave 1 max 0 min
Histogram: 2 0 0 0 0 0 0 0 0 2
Nghost:    1.5 ave 2 max 1 min
Histogram: 2 0 0 0 0 0 0 0 0 2
Neighs:    0.5 ave 1 max 0 min
Histogram: 2 0 0 0 0 0 0 0 0 2

Total # of neighbors = 2
Ave neighs/atom = 1
Neighbor list builds = 0
Dangerous builds = 0
run 10    
Setting up run at Thu Mar 19 18:00:25 2020

Memory usage per processor = 53.8006 Mbytes
    Step    Atoms         KinEng            rke         Volume 
     591        2    0.048023708              0              4 
CFD Coupling established at step 600
     601        2    0.049273361              0              4 
Loop time of 0.000551045 on 4 procs for 10 steps with 2 atoms, finish time Thu Mar 19 18:00:26 2020


Pair  time (%) = 1.29342e-05 (2.34721)
Neigh time (%) = 0 (0)
Comm  time (%) = 3.51667e-05 (6.38183)
Outpt time (%) = 8.63671e-05 (15.6733)
Other time (%) = 0.000416577 (75.5976)

Nlocal:    0.5 ave 1 max 0 min
Histogram: 2 0 0 0 0 0 0 0 0 2
Nghost:    1.5 ave 2 max 1 min
Histogram: 2 0 0 0 0 0 0 0 0 2
Neighs:    0.5 ave 1 max 0 min
Histogram: 2 0 0 0 0 0 0 0 0 2

Total # of neighbors = 2
Ave neighs/atom = 1
Neighbor list builds = 0
Dangerous builds = 0
run 10    
Setting up run at Thu Mar 19 18:00:26 2020

Memory usage per processor = 53.8006 Mbytes
    Step    Atoms         KinEng            rke         Volume 
     601        2    0.049273361              0              4 
CFD Coupling established at step 610
     611        2    0.050562796              0              4 
Loop time of 0.000391364 on 4 procs for 10 steps with 2 atoms, finish time Thu Mar 19 18:00:26 2020


Pair  time (%) = 1.2815e-05 (3.27444)
Neigh time (%) = 0 (0)
Comm  time (%) = 5.56111e-05 (14.2096)
Outpt time (%) = 3.99947e-05 (10.2193)
Other time (%) = 0.000282943 (72.2967)

Nlocal:    0.5 ave 1 max 0 min
Histogram: 2 0 0 0 0 0 0 0 0 2
Nghost:    1.5 ave 2 max 1 min
Histogram: 2 0 0 0 0 0 0 0 0 2
Neighs:    0.5 ave 1 max 0 min
Histogram: 2 0 0 0 0 0 0 0 0 2

Total # of neighbors = 2
Ave neighs/atom = 1
Neighbor list builds = 0
Dangerous builds = 0
run 10    
Setting up run at Thu Mar 19 18:00:26 2020

Memory usage per processor = 53.8006 Mbytes
    Step    Atoms         KinEng            rke         Volume 
     611        2    0.050562796              0              4 
CFD Coupling established at step 620
     621        2    0.051871871              0              4 
Loop time of 0.00512338 on 4 procs for 10 steps with 2 atoms, finish time Thu Mar 19 18:00:26 2020


Pair  time (%) = 3.47495e-05 (0.678254)
Neigh time (%) = 0 (0)
Comm  time (%) = 0.00210762 (41.1373)
Outpt time (%) = 0.000228703 (4.46391)
Other time (%) = 0.0027523 (53.7205)

Nlocal:    0.5 ave 1 max 0 min
Histogram: 2 0 0 0 0 0 0 0 0 2
Nghost:    1.5 ave 2 max 1 min
Histogram: 2 0 0 0 0 0 0 0 0 2
Neighs:    0.5 ave 1 max 0 min
Histogram: 2 0 0 0 0 0 0 0 0 2

Total # of neighbors = 2
Ave neighs/atom = 1
Neighbor list builds = 0
Dangerous builds = 0
run 10    
Setting up run at Thu Mar 19 18:00:26 2020

Memory usage per processor = 53.8006 Mbytes
    Step    Atoms         KinEng            rke         Volume 
     621        2    0.051871871              0              4 
CFD Coupling established at step 630
     631        2    0.053157584              0              4 
Loop time of 0.000389695 on 4 procs for 10 steps with 2 atoms, finish time Thu Mar 19 18:00:26 2020


Pair  time (%) = 1.2815e-05 (3.28847)
Neigh time (%) = 0 (0)
Comm  time (%) = 4.52399e-05 (11.6091)
Outpt time (%) = 3.9041e-05 (10.0184)
Other time (%) = 0.000292599 (75.0841)

Nlocal:    0.5 ave 1 max 0 min
Histogram: 2 0 0 0 0 0 0 0 0 2
Nghost:    1.5 ave 2 max 1 min
Histogram: 2 0 0 0 0 0 0 0 0 2
Neighs:    0.5 ave 1 max 0 min
Histogram: 2 0 0 0 0 0 0 0 0 2

Total # of neighbors = 2
Ave neighs/atom = 1
Neighbor list builds = 0
Dangerous builds = 0
run 10    
Setting up run at Thu Mar 19 18:00:26 2020

Memory usage per processor = 53.8006 Mbytes
    Step    Atoms         KinEng            rke         Volume 
     631        2    0.053157584              0              4 
CFD Coupling established at step 640
     641        2    0.054485106              0              4 
Loop time of 0.000379682 on 4 procs for 10 steps with 2 atoms, finish time Thu Mar 19 18:00:26 2020


Pair  time (%) = 1.32918e-05 (3.50078)
Neigh time (%) = 0 (0)
Comm  time (%) = 5.19156e-05 (13.6735)
Outpt time (%) = 3.85046e-05 (10.1413)
Other time (%) = 0.00027597 (72.6845)

Nlocal:    0.5 ave 1 max 0 min
Histogram: 2 0 0 0 0 0 0 0 0 2
Nghost:    1.5 ave 2 max 1 min
Histogram: 2 0 0 0 0 0 0 0 0 2
Neighs:    0.5 ave 1 max 0 min
Histogram: 2 0 0 0 0 0 0 0 0 2

Total # of neighbors = 2
Ave neighs/atom = 1
Neighbor list builds = 0
Dangerous builds = 0
run 10    
Setting up run at Thu Mar 19 18:00:26 2020

Memory usage per processor = 53.8006 Mbytes
    Step    Atoms         KinEng            rke         Volume 
     641        2    0.054485106              0              4 
CFD Coupling established at step 650
     651        2    0.055848999              0              4 
Loop time of 0.00510609 on 4 procs for 10 steps with 2 atoms, finish time Thu Mar 19 18:00:26 2020


Pair  time (%) = 3.52263e-05 (0.689889)
Neigh time (%) = 0 (0)
Comm  time (%) = 0.00216842 (42.4673)
Outpt time (%) = 0.000198722 (3.89186)
Other time (%) = 0.00270373 (52.951)

Nlocal:    0.5 ave 1 max 0 min
Histogram: 2 0 0 0 0 0 0 0 0 2
Nghost:    1.5 ave 2 max 1 min
Histogram: 2 0 0 0 0 0 0 0 0 2
Neighs:    0.5 ave 1 max 0 min
Histogram: 2 0 0 0 0 0 0 0 0 2

Total # of neighbors = 2
Ave neighs/atom = 1
Neighbor list builds = 0
Dangerous builds = 0
run 10    
Setting up run at Thu Mar 19 18:00:26 2020

Memory usage per processor = 53.8006 Mbytes
    Step    Atoms         KinEng            rke         Volume 
     651        2    0.055848999              0              4 
CFD Coupling established at step 660
     661        2    0.057221517              0              4 
Loop time of 0.000355542 on 4 procs for 10 steps with 2 atoms, finish time Thu Mar 19 18:00:26 2020


Pair  time (%) = 1.2219e-05 (3.43671)
Neigh time (%) = 0 (0)
Comm  time (%) = 6.21676e-05 (17.4853)
Outpt time (%) = 3.14713e-05 (8.85163)
Other time (%) = 0.000249684 (70.2263)

Nlocal:    0.5 ave 1 max 0 min
Histogram: 2 0 0 0 0 0 0 0 0 2
Nghost:    1.5 ave 2 max 1 min
Histogram: 2 0 0 0 0 0 0 0 0 2
Neighs:    0.5 ave 1 max 0 min
Histogram: 2 0 0 0 0 0 0 0 0 2

Total # of neighbors = 2
Ave neighs/atom = 1
Neighbor list builds = 0
Dangerous builds = 0
run 10    
Setting up run at Thu Mar 19 18:00:27 2020

Memory usage per processor = 53.8006 Mbytes
    Step    Atoms         KinEng            rke         Volume 
     661        2    0.057221517              0              4 
CFD Coupling established at step 670
     671        2     0.05859403              0              4 
Loop time of 0.000352025 on 4 procs for 10 steps with 2 atoms, finish time Thu Mar 19 18:00:27 2020


Pair  time (%) = 1.15633e-05 (3.2848)
Neigh time (%) = 0 (0)
Comm  time (%) = 6.34789e-05 (18.0325)
Outpt time (%) = 3.24845e-05 (9.2279)
Other time (%) = 0.000244498 (69.4548)

Nlocal:    0.5 ave 1 max 0 min
Histogram: 2 0 0 0 0 0 0 0 0 2
Nghost:    1.5 ave 2 max 1 min
Histogram: 2 0 0 0 0 0 0 0 0 2
Neighs:    0.5 ave 1 max 0 min
Histogram: 2 0 0 0 0 0 0 0 0 2

Total # of neighbors = 2
Ave neighs/atom = 1
Neighbor list builds = 0
Dangerous builds = 0
run 10    
Setting up run at Thu Mar 19 18:00:27 2020

Memory usage per processor = 53.8006 Mbytes
    Step    Atoms         KinEng            rke         Volume 
     671        2     0.05859403              0              4 
CFD Coupling established at step 680
     681        2    0.059958369              0              4 
Loop time of 0.000349998 on 4 procs for 10 steps with 2 atoms, finish time Thu Mar 19 18:00:27 2020


Pair  time (%) = 1.13845e-05 (3.25272)
Neigh time (%) = 0 (0)
Comm  time (%) = 5.71609e-05 (16.3317)
Outpt time (%) = 3.33786e-05 (9.53678)
Other time (%) = 0.000248075 (70.8787)

Nlocal:    0.5 ave 1 max 0 min
Histogram: 2 0 0 0 0 0 0 0 0 2
Nghost:    1.5 ave 2 max 1 min
Histogram: 2 0 0 0 0 0 0 0 0 2
Neighs:    0.5 ave 1 max 0 min
Histogram: 2 0 0 0 0 0 0 0 0 2

Total # of neighbors = 2
Ave neighs/atom = 1
Neighbor list builds = 0
Dangerous builds = 0
run 10    
Setting up run at Thu Mar 19 18:00:27 2020

Memory usage per processor = 53.8006 Mbytes
    Step    Atoms         KinEng            rke         Volume 
     681        2    0.059958369              0              4 
CFD Coupling established at step 690
     691        2     0.06110142              0              4 
Loop time of 0.000354707 on 4 procs for 10 steps with 2 atoms, finish time Thu Mar 19 18:00:27 2020


Pair  time (%) = 1.15633e-05 (3.25996)
Neigh time (%) = 0 (0)
Comm  time (%) = 5.94854e-05 (16.7703)
Outpt time (%) = 3.19481e-05 (9.00689)
Other time (%) = 0.00025171 (70.9629)

Nlocal:    0.5 ave 1 max 0 min
Histogram: 2 0 0 0 0 0 0 0 0 2
Nghost:    1.5 ave 2 max 1 min
Histogram: 2 0 0 0 0 0 0 0 0 2
Neighs:    0.5 ave 1 max 0 min
Histogram: 2 0 0 0 0 0 0 0 0 2

Total # of neighbors = 2
Ave neighs/atom = 1
Neighbor list builds = 0
Dangerous builds = 0
run 10    
Setting up run at Thu Mar 19 18:00:27 2020

Memory usage per processor = 53.8006 Mbytes
    Step    Atoms         KinEng            rke         Volume 
     691        2     0.06110142              0              4 
CFD Coupling established at step 700
     701        2    0.062375555              0              4 
Loop time of 0.000566483 on 4 procs for 10 steps with 2 atoms, finish time Thu Mar 19 18:00:27 2020


Pair  time (%) = 1.18613e-05 (2.09386)
Neigh time (%) = 0 (0)
Comm  time (%) = 3.73125e-05 (6.5867)
Outpt time (%) = 8.85129e-05 (15.625)
Other time (%) = 0.000428796 (75.6944)

Nlocal:    0.5 ave 1 max 0 min
Histogram: 2 0 0 0 0 0 0 0 0 2
Nghost:    1.5 ave 2 max 1 min
Histogram: 2 0 0 0 0 0 0 0 0 2
Neighs:    0.5 ave 1 max 0 min
Histogram: 2 0 0 0 0 0 0 0 0 2

Total # of neighbors = 2
Ave neighs/atom = 1
Neighbor list builds = 0
Dangerous builds = 0
run 10    
Setting up run at Thu Mar 19 18:00:27 2020

Memory usage per processor = 53.8006 Mbytes
    Step    Atoms         KinEng            rke         Volume 
     701        2    0.062375555              0              4 
CFD Coupling established at step 710
     711        2    0.063695088              0              4 
Loop time of 0.000357389 on 4 procs for 10 steps with 2 atoms, finish time Thu Mar 19 18:00:27 2020


Pair  time (%) = 1.26362e-05 (3.53569)
Neigh time (%) = 0 (0)
Comm  time (%) = 3.86238e-05 (10.8072)
Outpt time (%) = 5.62668e-05 (15.7438)
Other time (%) = 0.000249863 (69.9133)

Nlocal:    0.5 ave 1 max 0 min
Histogram: 2 0 0 0 0 0 0 0 0 2
Nghost:    1.5 ave 2 max 1 min
Histogram: 2 0 0 0 0 0 0 0 0 2
Neighs:    0.5 ave 1 max 0 min
Histogram: 2 0 0 0 0 0 0 0 0 2

Total # of neighbors = 2
Ave neighs/atom = 1
Neighbor list builds = 0
Dangerous builds = 0
run 10    
Setting up run at Thu Mar 19 18:00:28 2020

Memory usage per processor = 53.8006 Mbytes
    Step    Atoms         KinEng            rke         Volume 
     711        2    0.063695088              0              4 
CFD Coupling established at step 720
     721        2    0.065059737              0              4 
Loop time of 0.00036329 on 4 procs for 10 steps with 2 atoms, finish time Thu Mar 19 18:00:28 2020


Pair  time (%) = 1.2517e-05 (3.44545)
Neigh time (%) = 0 (0)
Comm  time (%) = 4.22597e-05 (11.6325)
Outpt time (%) = 5.65052e-05 (15.5537)
Other time (%) = 0.000252008 (69.3683)

Nlocal:    0.5 ave 1 max 0 min
Histogram: 2 0 0 0 0 0 0 0 0 2
Nghost:    1.5 ave 2 max 1 min
Histogram: 2 0 0 0 0 0 0 0 0 2
Neighs:    0.5 ave 1 max 0 min
Histogram: 2 0 0 0 0 0 0 0 0 2

Total # of neighbors = 2
Ave neighs/atom = 1
Neighbor list builds = 0
Dangerous builds = 0
run 10    
Setting up run at Thu Mar 19 18:00:28 2020

Memory usage per processor = 53.8006 Mbytes
    Step    Atoms         KinEng            rke         Volume 
     721        2    0.065059737              0              4 
CFD Coupling established at step 730
     731        2    0.066375561              0              4 
Loop time of 0.00034225 on 4 procs for 10 steps with 2 atoms, finish time Thu Mar 19 18:00:28 2020


Pair  time (%) = 1.18017e-05 (3.44828)
Neigh time (%) = 0 (0)
Comm  time (%) = 2.76566e-05 (8.08081)
Outpt time (%) = 5.6982e-05 (16.6493)
Other time (%) = 0.00024581 (71.8217)

Nlocal:    0.5 ave 2 max 0 min
Histogram: 3 0 0 0 0 0 0 0 0 1
Nghost:    1.5 ave 2 max 0 min
Histogram: 1 0 0 0 0 0 0 0 0 3
Neighs:    0.25 ave 1 max 0 min
Histogram: 3 0 0 0 0 0 0 0 0 1

Total # of neighbors = 1
Ave neighs/atom = 0.5
Neighbor list builds = 0
Dangerous builds = 0
run 10    
Setting up run at Thu Mar 19 18:00:28 2020

Memory usage per processor = 53.8006 Mbytes
    Step    Atoms         KinEng            rke         Volume 
     731        2    0.066375561              0              4 
CFD Coupling established at step 740
     741        2    0.067590422              0              4 
Loop time of 0.000801086 on 4 procs for 10 steps with 2 atoms, finish time Thu Mar 19 18:00:28 2020


Pair  time (%) = 3.01003e-05 (3.75744)
Neigh time (%) = 0 (0)
Comm  time (%) = 4.96507e-05 (6.19792)
Outpt time (%) = 7.59363e-05 (9.47917)
Other time (%) = 0.000645399 (80.5655)

Nlocal:    0.5 ave 2 max 0 min
Histogram: 3 0 0 0 0 0 0 0 0 1
Nghost:    1.5 ave 2 max 0 min
Histogram: 1 0 0 0 0 0 0 0 0 3
Neighs:    0.25 ave 1 max 0 min
Histogram: 3 0 0 0 0 0 0 0 0 1

Total # of neighbors = 1
Ave neighs/atom = 0.5
Neighbor list builds = 0
Dangerous builds = 0
run 10    
Setting up run at Thu Mar 19 18:00:28 2020

Memory usage per processor = 53.8006 Mbytes
    Step    Atoms         KinEng            rke         Volume 
     741        2    0.067590422              0              4 
CFD Coupling established at step 750
     751        2    0.068875072              0              4 
Loop time of 0.000347197 on 4 procs for 10 steps with 2 atoms, finish time Thu Mar 19 18:00:28 2020


Pair  time (%) = 1.2517e-05 (3.60515)
Neigh time (%) = 0 (0)
Comm  time (%) = 2.69413e-05 (7.75966)
Outpt time (%) = 5.75185e-05 (16.5665)
Other time (%) = 0.00025022 (72.0687)

Nlocal:    0.5 ave 2 max 0 min
Histogram: 3 0 0 0 0 0 0 0 0 1
Nghost:    1.5 ave 2 max 0 min
Histogram: 1 0 0 0 0 0 0 0 0 3
Neighs:    0.25 ave 1 max 0 min
Histogram: 3 0 0 0 0 0 0 0 0 1

Total # of neighbors = 1
Ave neighs/atom = 0.5
Neighbor list builds = 0
Dangerous builds = 0
run 10    
Setting up run at Thu Mar 19 18:00:28 2020

Memory usage per processor = 53.8006 Mbytes
    Step    Atoms         KinEng            rke         Volume 
     751        2    0.068875072              0              4 
CFD Coupling established at step 760
     761        2    0.070280388              0              4 
Loop time of 0.000349224 on 4 procs for 10 steps with 2 atoms, finish time Thu Mar 19 18:00:28 2020


Pair  time (%) = 1.10865e-05 (3.1746)
Neigh time (%) = 0 (0)
Comm  time (%) = 2.90871e-05 (8.32907)
Outpt time (%) = 5.57899e-05 (15.9754)
Other time (%) = 0.00025326 (72.5209)

Nlocal:    0.5 ave 2 max 0 min
Histogram: 3 0 0 0 0 0 0 0 0 1
Nghost:    1.5 ave 2 max 0 min
Histogram: 1 0 0 0 0 0 0 0 0 3
Neighs:    0.25 ave 1 max 0 min
Histogram: 3 0 0 0 0 0 0 0 0 1

Total # of neighbors = 1
Ave neighs/atom = 0.5
Neighbor list builds = 0
Dangerous builds = 0
run 10    
Setting up run at Thu Mar 19 18:00:28 2020

Memory usage per processor = 53.8006 Mbytes
    Step    Atoms         KinEng            rke         Volume 
     761        2    0.070280388              0              4 
CFD Coupling established at step 770
     771        2    0.071758714              0              4 
Loop time of 0.000410795 on 4 procs for 10 steps with 2 atoms, finish time Thu Mar 19 18:00:29 2020


Pair  time (%) = 1.54972e-05 (3.77249)
Neigh time (%) = 0 (0)
Comm  time (%) = 2.78354e-05 (6.77597)
Outpt time (%) = 5.94854e-05 (14.4806)
Other time (%) = 0.000307977 (74.971)

Nlocal:    0.5 ave 2 max 0 min
Histogram: 3 0 0 0 0 0 0 0 0 1
Nghost:    1.5 ave 2 max 0 min
Histogram: 1 0 0 0 0 0 0 0 0 3
Neighs:    0.25 ave 1 max 0 min
Histogram: 3 0 0 0 0 0 0 0 0 1

Total # of neighbors = 1
Ave neighs/atom = 0.5
Neighbor list builds = 0
Dangerous builds = 0
run 10    
Setting up run at Thu Mar 19 18:00:29 2020

Memory usage per processor = 53.8006 Mbytes
    Step    Atoms         KinEng            rke         Volume 
     771        2    0.071758714              0              4 
CFD Coupling established at step 780
     781        2    0.073031852              0              4 
Loop time of 0.000405788 on 4 procs for 10 steps with 2 atoms, finish time Thu Mar 19 18:00:29 2020


Pair  time (%) = 1.52588e-05 (3.76028)
Neigh time (%) = 0 (0)
Comm  time (%) = 2.76566e-05 (6.81551)
Outpt time (%) = 5.84722e-05 (14.4095)
Other time (%) = 0.000304401 (75.0147)

Nlocal:    0.5 ave 2 max 0 min
Histogram: 3 0 0 0 0 0 0 0 0 1
Nghost:    1.5 ave 2 max 0 min
Histogram: 1 0 0 0 0 0 0 0 0 3
Neighs:    0.25 ave 1 max 0 min
Histogram: 3 0 0 0 0 0 0 0 0 1

Total # of neighbors = 1
Ave neighs/atom = 0.5
Neighbor list builds = 0
Dangerous builds = 0
run 10    
Setting up run at Thu Mar 19 18:00:29 2020

Memory usage per processor = 53.8006 Mbytes
    Step    Atoms         KinEng            rke         Volume 
     781        2    0.073031852              0              4 
CFD Coupling established at step 790
     791        2    0.074485294              0              4 
Loop time of 0.00169295 on 4 procs for 10 steps with 2 atoms, finish time Thu Mar 19 18:00:29 2020


Pair  time (%) = 1.88947e-05 (1.11608)
Neigh time (%) = 0 (0)
Comm  time (%) = 3.02196e-05 (1.78502)
Outpt time (%) = 6.20484e-05 (3.66511)
Other time (%) = 0.00158179 (93.4338)

Nlocal:    0.5 ave 2 max 0 min
Histogram: 3 0 0 0 0 0 0 0 0 1
Nghost:    1.5 ave 2 max 0 min
Histogram: 1 0 0 0 0 0 0 0 0 3
Neighs:    0.25 ave 1 max 0 min
Histogram: 3 0 0 0 0 0 0 0 0 1

Total # of neighbors = 1
Ave neighs/atom = 0.5
Neighbor list builds = 0
Dangerous builds = 0
run 10    
Setting up run at Thu Mar 19 18:00:29 2020

Memory usage per processor = 53.8006 Mbytes
    Step    Atoms         KinEng            rke         Volume 
     791        2    0.074485294              0              4 
CFD Coupling established at step 800
     801        2    0.075807641              0              4 
Loop time of 0.000579834 on 4 procs for 10 steps with 2 atoms, finish time Thu Mar 19 18:00:29 2020


Pair  time (%) = 1.48416e-05 (2.55962)
Neigh time (%) = 0 (0)
Comm  time (%) = 2.78354e-05 (4.80058)
Outpt time (%) = 0.000109732 (18.9248)
Other time (%) = 0.000427425 (73.715)

Nlocal:    0.5 ave 2 max 0 min
Histogram: 3 0 0 0 0 0 0 0 0 1
Nghost:    1.5 ave 2 max 0 min
Histogram: 1 0 0 0 0 0 0 0 0 3
Neighs:    0.25 ave 1 max 0 min
Histogram: 3 0 0 0 0 0 0 0 0 1

Total # of neighbors = 1
Ave neighs/atom = 0.5
Neighbor list builds = 0
Dangerous builds = 0
run 10    
Setting up run at Thu Mar 19 18:00:29 2020

Memory usage per processor = 53.8006 Mbytes
    Step    Atoms         KinEng            rke         Volume 
     801        2    0.075807641              0              4 
CFD Coupling established at step 810
     811        2    0.077153829              0              4 
Loop time of 0.000399709 on 4 procs for 10 steps with 2 atoms, finish time Thu Mar 19 18:00:29 2020


Pair  time (%) = 1.48416e-05 (3.71309)
Neigh time (%) = 0 (0)
Comm  time (%) = 2.71201e-05 (6.78497)
Outpt time (%) = 5.85318e-05 (14.6436)
Other time (%) = 0.000299215 (74.8583)

Nlocal:    0.5 ave 2 max 0 min
Histogram: 3 0 0 0 0 0 0 0 0 1
Nghost:    1.5 ave 2 max 0 min
Histogram: 1 0 0 0 0 0 0 0 0 3
Neighs:    0.25 ave 1 max 0 min
Histogram: 3 0 0 0 0 0 0 0 0 1

Total # of neighbors = 1
Ave neighs/atom = 0.5
Neighbor list builds = 0
Dangerous builds = 0
run 10    
Setting up run at Thu Mar 19 18:00:29 2020

Memory usage per processor = 53.8006 Mbytes
    Step    Atoms         KinEng            rke         Volume 
     811        2    0.077153829              0              4 
CFD Coupling established at step 820
     821        2     0.07852941              0              4 
Loop time of 0.000364065 on 4 procs for 10 steps with 2 atoms, finish time Thu Mar 19 18:00:29 2020


Pair  time (%) = 1.24574e-05 (3.42174)
Neigh time (%) = 0 (0)
Comm  time (%) = 2.99215e-05 (8.21873)
Outpt time (%) = 6.38366e-05 (17.5344)
Other time (%) = 0.00025785 (70.8251)

Nlocal:    0.5 ave 2 max 0 min
Histogram: 3 0 0 0 0 0 0 0 0 1
Nghost:    1.5 ave 2 max 0 min
Histogram: 1 0 0 0 0 0 0 0 0 3
Neighs:    0.25 ave 1 max 0 min
Histogram: 3 0 0 0 0 0 0 0 0 1

Total # of neighbors = 1
Ave neighs/atom = 0.5
Neighbor list builds = 0
Dangerous builds = 0
run 10    
Setting up run at Thu Mar 19 18:00:30 2020

Memory usage per processor = 53.8006 Mbytes
    Step    Atoms         KinEng            rke         Volume 
     821        2     0.07852941              0              4 
CFD Coupling established at step 830
     831        2    0.079753892              0              4 
Loop time of 0.00041157 on 4 procs for 10 steps with 2 atoms, finish time Thu Mar 19 18:00:30 2020


Pair  time (%) = 1.46031e-05 (3.54815)
Neigh time (%) = 0 (0)
Comm  time (%) = 3.33786e-05 (8.11007)
Outpt time (%) = 6.77109e-05 (16.4518)
Other time (%) = 0.000295877 (71.8899)

Nlocal:    0.5 ave 2 max 0 min
Histogram: 3 0 0 0 0 0 0 0 0 1
Nghost:    1.5 ave 2 max 0 min
Histogram: 1 0 0 0 0 0 0 0 0 3
Neighs:    0.25 ave 1 max 0 min
Histogram: 3 0 0 0 0 0 0 0 0 1

Total # of neighbors = 1
Ave neighs/atom = 0.5
Neighbor list builds = 0
Dangerous builds = 0
run 10    
Setting up run at Thu Mar 19 18:00:30 2020

Memory usage per processor = 53.8006 Mbytes
    Step    Atoms         KinEng            rke         Volume 
     831        2    0.079753892              0              4 
CFD Coupling established at step 840
     841        2    0.081137351              0              4 
Loop time of 0.000380933 on 4 procs for 10 steps with 2 atoms, finish time Thu Mar 19 18:00:30 2020


Pair  time (%) = 1.40071e-05 (3.67705)
Neigh time (%) = 0 (0)
Comm  time (%) = 2.92659e-05 (7.68268)
Outpt time (%) = 7.56979e-05 (19.8717)
Other time (%) = 0.000261962 (68.7686)

Nlocal:    0.5 ave 2 max 0 min
Histogram: 3 0 0 0 0 0 0 0 0 1
Nghost:    1.5 ave 2 max 0 min
Histogram: 1 0 0 0 0 0 0 0 0 3
Neighs:    0.25 ave 1 max 0 min
Histogram: 3 0 0 0 0 0 0 0 0 1

Total # of neighbors = 1
Ave neighs/atom = 0.5
Neighbor list builds = 0
Dangerous builds = 0
run 10    
Setting up run at Thu Mar 19 18:00:30 2020

Memory usage per processor = 53.8006 Mbytes
    Step    Atoms         KinEng            rke         Volume 
     841        2    0.081137351              0              4 
CFD Coupling established at step 850
     851        2    0.082353172              0              4 
Loop time of 0.000351369 on 4 procs for 10 steps with 2 atoms, finish time Thu Mar 19 18:00:30 2020


Pair  time (%) = 1.22786e-05 (3.49449)
Neigh time (%) = 0 (0)
Comm  time (%) = 2.80738e-05 (7.98982)
Outpt time (%) = 7.24792e-05 (20.6277)
[...]
Comm  time (%) = 3.86238e-05 (9.27835)
Outpt time (%) = 5.87702e-05 (14.118)
Other time (%) = 0.000295281 (70.9336)

Nlocal:    0.5 ave 2 max 0 min
Histogram: 3 0 0 0 0 0 0 0 0 1
Nghost:    1.5 ave 2 max 0 min
Histogram: 1 0 0 0 0 0 0 0 0 3
Neighs:    0.25 ave 1 max 0 min
Histogram: 3 0 0 0 0 0 0 0 0 1

Total # of neighbors = 1
Ave neighs/atom = 0.5
Neighbor list builds = 0
Dangerous builds = 0
run 10    
Setting up run at Thu Mar 19 18:01:17 2020

Memory usage per processor = 53.8006 Mbytes
    Step    Atoms         KinEng            rke         Volume 
    3111        2     0.29734749              0              4 
CFD Coupling established at step 3120
    3121        2     0.29797984              0              4 
Loop time of 0.000398278 on 4 procs for 10 steps with 2 atoms, finish time Thu Mar 19 18:01:17 2020


Pair  time (%) = 1.56164e-05 (3.92098)
Neigh time (%) = 0 (0)
Comm  time (%) = 3.50475e-05 (8.79976)
Outpt time (%) = 5.79953e-05 (14.5615)
Other time (%) = 0.000289619 (72.7177)

Nlocal:    0.5 ave 2 max 0 min
Histogram: 3 0 0 0 0 0 0 0 0 1
Nghost:    1.5 ave 2 max 0 min
Histogram: 1 0 0 0 0 0 0 0 0 3
Neighs:    0.25 ave 1 max 0 min
Histogram: 3 0 0 0 0 0 0 0 0 1

Total # of neighbors = 1
Ave neighs/atom = 0.5
Neighbor list builds = 0
Dangerous builds = 0
run 10    
Setting up run at Thu Mar 19 18:01:17 2020

Memory usage per processor = 53.8006 Mbytes
    Step    Atoms         KinEng            rke         Volume 
    3121        2     0.29797984              0              4 
CFD Coupling established at step 3130
    3131        2     0.29860929              0              4 
Loop time of 0.000358284 on 4 procs for 10 steps with 2 atoms, finish time Thu Mar 19 18:01:17 2020


Pair  time (%) = 1.18017e-05 (3.29396)
Neigh time (%) = 0 (0)
Comm  time (%) = 3.61204e-05 (10.0815)
Outpt time (%) = 5.39422e-05 (15.0557)
Other time (%) = 0.000256419 (71.5688)

Nlocal:    0.5 ave 2 max 0 min
Histogram: 3 0 0 0 0 0 0 0 0 1
Nghost:    1.5 ave 2 max 0 min
Histogram: 1 0 0 0 0 0 0 0 0 3
Neighs:    0.25 ave 1 max 0 min
Histogram: 3 0 0 0 0 0 0 0 0 1

Total # of neighbors = 1
Ave neighs/atom = 0.5
Neighbor list builds = 0
Dangerous builds = 0
run 10    
Setting up run at Thu Mar 19 18:01:18 2020

Memory usage per processor = 53.8006 Mbytes
    Step    Atoms         KinEng            rke         Volume 
    3131        2     0.29860929              0              4 
CFD Coupling established at step 3140
    3141        2     0.29970618              0              4 
Loop time of 0.000360548 on 4 procs for 10 steps with 2 atoms, finish time Thu Mar 19 18:01:18 2020


Pair  time (%) = 1.17421e-05 (3.25674)
Neigh time (%) = 0 (0)
Comm  time (%) = 3.3021e-05 (9.15854)
Outpt time (%) = 5.54919e-05 (15.391)
Other time (%) = 0.000260293 (72.1938)

Nlocal:    0.5 ave 2 max 0 min
Histogram: 3 0 0 0 0 0 0 0 0 1
Nghost:    1.5 ave 2 max 0 min
Histogram: 1 0 0 0 0 0 0 0 0 3
Neighs:    0.25 ave 1 max 0 min
Histogram: 3 0 0 0 0 0 0 0 0 1

Total # of neighbors = 1
Ave neighs/atom = 0.5
Neighbor list builds = 0
Dangerous builds = 0
run 10    
Setting up run at Thu Mar 19 18:01:18 2020

Memory usage per processor = 53.8006 Mbytes
    Step    Atoms         KinEng            rke         Volume 
    3141        2     0.29970618              0              4 
CFD Coupling established at step 3150
    3151        2     0.30012137              0              4 
Loop time of 0.000382066 on 4 procs for 10 steps with 2 atoms, finish time Thu Mar 19 18:01:18 2020


Pair  time (%) = 1.35899e-05 (3.55694)
Neigh time (%) = 0 (0)
Comm  time (%) = 2.68221e-05 (7.02028)
Outpt time (%) = 5.42998e-05 (14.2122)
Other time (%) = 0.000287354 (75.2106)

Nlocal:    0.5 ave 2 max 0 min
Histogram: 3 0 0 0 0 0 0 0 0 1
Nghost:    1.5 ave 2 max 0 min
Histogram: 1 0 0 0 0 0 0 0 0 3
Neighs:    0.25 ave 1 max 0 min
Histogram: 3 0 0 0 0 0 0 0 0 1

Total # of neighbors = 1
Ave neighs/atom = 0.5
Neighbor list builds = 0
Dangerous builds = 0
run 10    
Setting up run at Thu Mar 19 18:01:18 2020

Memory usage per processor = 53.8006 Mbytes
    Step    Atoms         KinEng            rke         Volume 
    3151        2     0.30012137              0              4 
CFD Coupling established at step 3160
    3161        2      0.3008533              0              4 
Loop time of 0.000228882 on 4 procs for 10 steps with 2 atoms, finish time Thu Mar 19 18:01:18 2020


Pair  time (%) = 1.17421e-05 (5.13021)
Neigh time (%) = 0 (0)
Comm  time (%) = 2.70009e-05 (11.7969)
Outpt time (%) = 2.81334e-05 (12.2917)
Other time (%) = 0.000162005 (70.7812)

Nlocal:    0.5 ave 2 max 0 min
Histogram: 3 0 0 0 0 0 0 0 0 1
Nghost:    1.5 ave 2 max 0 min
Histogram: 1 0 0 0 0 0 0 0 0 3
Neighs:    0.25 ave 1 max 0 min
Histogram: 3 0 0 0 0 0 0 0 0 1

Total # of neighbors = 1
Ave neighs/atom = 0.5
Neighbor list builds = 0
Dangerous builds = 0
run 10    
Setting up run at Thu Mar 19 18:01:18 2020

Memory usage per processor = 53.8006 Mbytes
    Step    Atoms         KinEng            rke         Volume 
    3161        2      0.3008533              0              4 
CFD Coupling established at step 3170
    3171        2       0.301953              0              4 
Loop time of 0.000386 on 4 procs for 10 steps with 2 atoms, finish time Thu Mar 19 18:01:18 2020


Pair  time (%) = 1.24574e-05 (3.2273)
Neigh time (%) = 0 (0)
Comm  time (%) = 2.44975e-05 (6.34651)
Outpt time (%) = 5.47767e-05 (14.1909)
Other time (%) = 0.000294268 (76.2353)

Nlocal:    0.5 ave 2 max 0 min
Histogram: 3 0 0 0 0 0 0 0 0 1
Nghost:    1.5 ave 2 max 0 min
Histogram: 1 0 0 0 0 0 0 0 0 3
Neighs:    0.25 ave 1 max 0 min
Histogram: 3 0 0 0 0 0 0 0 0 1

Total # of neighbors = 1
Ave neighs/atom = 0.5
Neighbor list builds = 0
Dangerous builds = 0
run 10    
Setting up run at Thu Mar 19 18:01:18 2020

Memory usage per processor = 53.8006 Mbytes
    Step    Atoms         KinEng            rke         Volume 
    3171        2       0.301953              0              4 
CFD Coupling established at step 3180
    3181        2      0.3028631              0              4 
Loop time of 0.00577444 on 4 procs for 10 steps with 2 atoms, finish time Thu Mar 19 18:01:18 2020


Pair  time (%) = 7.11679e-05 (1.23247)
Neigh time (%) = 0 (0)
Comm  time (%) = 0.00129098 (22.3568)
Outpt time (%) = 0.000111461 (1.93024)
Other time (%) = 0.00430083 (74.4805)

Nlocal:    0.5 ave 2 max 0 min
Histogram: 3 0 0 0 0 0 0 0 0 1
Nghost:    1.5 ave 2 max 0 min
Histogram: 1 0 0 0 0 0 0 0 0 3
Neighs:    0.25 ave 1 max 0 min
Histogram: 3 0 0 0 0 0 0 0 0 1

Total # of neighbors = 1
Ave neighs/atom = 0.5
Neighbor list builds = 0
Dangerous builds = 0
run 10    
Setting up run at Thu Mar 19 18:01:19 2020

Memory usage per processor = 53.8006 Mbytes
    Step    Atoms         KinEng            rke         Volume 
    3181        2      0.3028631              0              4 
CFD Coupling established at step 3190
    3191        2     0.30365194              0              4 
Loop time of 0.000364482 on 4 procs for 10 steps with 2 atoms, finish time Thu Mar 19 18:01:19 2020


Pair  time (%) = 1.20997e-05 (3.31971)
Neigh time (%) = 0 (0)
Comm  time (%) = 2.71201e-05 (7.44072)
Outpt time (%) = 5.31673e-05 (14.5871)
Other time (%) = 0.000272095 (74.6525)

Nlocal:    0.5 ave 2 max 0 min
Histogram: 3 0 0 0 0 0 0 0 0 1
Nghost:    1.5 ave 2 max 0 min
Histogram: 1 0 0 0 0 0 0 0 0 3
Neighs:    0.25 ave 1 max 0 min
Histogram: 3 0 0 0 0 0 0 0 0 1

Total # of neighbors = 1
Ave neighs/atom = 0.5
Neighbor list builds = 0
Dangerous builds = 0
run 10    
Setting up run at Thu Mar 19 18:01:19 2020

Memory usage per processor = 53.8006 Mbytes
    Step    Atoms         KinEng            rke         Volume 
    3191        2     0.30365194              0              4 
CFD Coupling established at step 3200
    3201        2     0.30472377              0              4 
Loop time of 0.000582218 on 4 procs for 10 steps with 2 atoms, finish time Thu Mar 19 18:01:19 2020


Pair  time (%) = 1.54972e-05 (2.66175)
Neigh time (%) = 0 (0)
Comm  time (%) = 3.05176e-05 (5.24161)
Outpt time (%) = 0.000102282 (17.5676)
Other time (%) = 0.000433922 (74.5291)

Nlocal:    0.5 ave 2 max 0 min
Histogram: 3 0 0 0 0 0 0 0 0 1
Nghost:    1.5 ave 2 max 0 min
Histogram: 1 0 0 0 0 0 0 0 0 3
Neighs:    0.25 ave 1 max 0 min
Histogram: 3 0 0 0 0 0 0 0 0 1

Total # of neighbors = 1
Ave neighs/atom = 0.5
Neighbor list builds = 0
Dangerous builds = 0
run 10    
Setting up run at Thu Mar 19 18:01:19 2020

Memory usage per processor = 53.8006 Mbytes
    Step    Atoms         KinEng            rke         Volume 
    3201        2     0.30472377              0              4 
CFD Coupling established at step 3210
    3211        2     0.30502825              0              4 
Loop time of 0.00036478 on 4 procs for 10 steps with 2 atoms, finish time Thu Mar 19 18:01:19 2020


Pair  time (%) = 1.16825e-05 (3.20261)
Neigh time (%) = 0 (0)
Comm  time (%) = 2.5034e-05 (6.86275)
Outpt time (%) = 5.42402e-05 (14.8693)
Other time (%) = 0.000273824 (75.0654)

Nlocal:    0.5 ave 2 max 0 min
Histogram: 3 0 0 0 0 0 0 0 0 1
Nghost:    1.5 ave 2 max 0 min
Histogram: 1 0 0 0 0 0 0 0 0 3
Neighs:    0.25 ave 1 max 0 min
Histogram: 3 0 0 0 0 0 0 0 0 1

Total # of neighbors = 1
Ave neighs/atom = 0.5
Neighbor list builds = 0
Dangerous builds = 0
run 10    
Setting up run at Thu Mar 19 18:01:19 2020

Memory usage per processor = 53.8006 Mbytes
    Step    Atoms         KinEng            rke         Volume 
    3211        2     0.30502825              0              4 
CFD Coupling established at step 3220
    3221        2     0.30590411              0              4 
Loop time of 0.000382543 on 4 procs for 10 steps with 2 atoms, finish time Thu Mar 19 18:01:19 2020


Pair  time (%) = 1.20997e-05 (3.16298)
Neigh time (%) = 0 (0)
Comm  time (%) = 2.59876e-05 (6.79339)
Outpt time (%) = 5.28097e-05 (13.8049)
Other time (%) = 0.000291646 (76.2387)

Nlocal:    0.5 ave 2 max 0 min
Histogram: 3 0 0 0 0 0 0 0 0 1
Nghost:    1.5 ave 2 max 0 min
Histogram: 1 0 0 0 0 0 0 0 0 3
Neighs:    0.25 ave 1 max 0 min
Histogram: 3 0 0 0 0 0 0 0 0 1

Total # of neighbors = 1
Ave neighs/atom = 0.5
Neighbor list builds = 0
Dangerous builds = 0
run 10    
Setting up run at Thu Mar 19 18:01:20 2020

Memory usage per processor = 53.8006 Mbytes
    Step    Atoms         KinEng            rke         Volume 
    3221        2     0.30590411              0              4 
CFD Coupling established at step 3230
    3231        2     0.30726138              0              4 
Loop time of 0.000374913 on 4 procs for 10 steps with 2 atoms, finish time Thu Mar 19 18:01:20 2020


Pair  time (%) = 1.2517e-05 (3.33863)
Neigh time (%) = 0 (0)
Comm  time (%) = 2.98619e-05 (7.96502)
Outpt time (%) = 5.42998e-05 (14.4833)
Other time (%) = 0.000278234 (74.213)

Nlocal:    0.5 ave 2 max 0 min
Histogram: 3 0 0 0 0 0 0 0 0 1
Nghost:    1.5 ave 2 max 0 min
Histogram: 1 0 0 0 0 0 0 0 0 3
Neighs:    0.25 ave 1 max 0 min
Histogram: 3 0 0 0 0 0 0 0 0 1

Total # of neighbors = 1
Ave neighs/atom = 0.5
Neighbor list builds = 0
Dangerous builds = 0
run 10    
Setting up run at Thu Mar 19 18:01:20 2020

Memory usage per processor = 53.8006 Mbytes
    Step    Atoms         KinEng            rke         Volume 
    3231        2     0.30726138              0              4 
CFD Coupling established at step 3240
    3241        2     0.30670944              0              4 
Loop time of 0.000368953 on 4 procs for 10 steps with 2 atoms, finish time Thu Mar 19 18:01:20 2020


Pair  time (%) = 1.24574e-05 (3.37641)
Neigh time (%) = 0 (0)
Comm  time (%) = 2.68221e-05 (7.26979)
Outpt time (%) = 5.26905e-05 (14.2811)
Other time (%) = 0.000276983 (75.0727)

Nlocal:    0.5 ave 2 max 0 min
Histogram: 3 0 0 0 0 0 0 0 0 1
Nghost:    1.5 ave 2 max 0 min
Histogram: 1 0 0 0 0 0 0 0 0 3
Neighs:    0.25 ave 1 max 0 min
Histogram: 3 0 0 0 0 0 0 0 0 1

Total # of neighbors = 1
Ave neighs/atom = 0.5
Neighbor list builds = 0
Dangerous builds = 0
run 10    
Setting up run at Thu Mar 19 18:01:20 2020

Memory usage per processor = 53.8006 Mbytes
    Step    Atoms         KinEng            rke         Volume 
    3241        2     0.30670944              0              4 
CFD Coupling established at step 3250
    3251        2     0.30696137              0              4 
Loop time of 0.00036031 on 4 procs for 10 steps with 2 atoms, finish time Thu Mar 19 18:01:20 2020


Pair  time (%) = 1.30534e-05 (3.62283)
Neigh time (%) = 0 (0)
Comm  time (%) = 2.81334e-05 (7.80811)
Outpt time (%) = 5.14984e-05 (14.2928)
Other time (%) = 0.000267625 (74.2763)

Nlocal:    0.5 ave 2 max 0 min
Histogram: 3 0 0 0 0 0 0 0 0 1
Nghost:    1.5 ave 2 max 0 min
Histogram: 1 0 0 0 0 0 0 0 0 3
Neighs:    0.25 ave 1 max 0 min
Histogram: 3 0 0 0 0 0 0 0 0 1

Total # of neighbors = 1
Ave neighs/atom = 0.5
Neighbor list builds = 0
Dangerous builds = 0
run 10    
Setting up run at Thu Mar 19 18:01:20 2020

Memory usage per processor = 53.8006 Mbytes
    Step    Atoms         KinEng            rke         Volume 
    3251        2     0.30696137              0              4 
CFD Coupling established at step 3260
    3261        2     0.30794936              0              4 
Loop time of 0.000371695 on 4 procs for 10 steps with 2 atoms, finish time Thu Mar 19 18:01:20 2020


Pair  time (%) = 1.2815e-05 (3.44772)
Neigh time (%) = 0 (0)
Comm  time (%) = 2.49743e-05 (6.71905)
Outpt time (%) = 5.55515e-05 (14.9455)
Other time (%) = 0.000278354 (74.8877)

Nlocal:    0.5 ave 2 max 0 min
Histogram: 3 0 0 0 0 0 0 0 0 1
Nghost:    1.5 ave 2 max 0 min
Histogram: 1 0 0 0 0 0 0 0 0 3
Neighs:    0.25 ave 1 max 0 min
Histogram: 3 0 0 0 0 0 0 0 0 1

Total # of neighbors = 1
Ave neighs/atom = 0.5
Neighbor list builds = 0
Dangerous builds = 0
run 10    
Setting up run at Thu Mar 19 18:01:21 2020

Memory usage per processor = 53.8006 Mbytes
    Step    Atoms         KinEng            rke         Volume 
    3261        2     0.30794936              0              4 
CFD Coupling established at step 3270
    3271        2     0.30931361              0              4 
Loop time of 0.000409544 on 4 procs for 10 steps with 2 atoms, finish time Thu Mar 19 18:01:21 2020


Pair  time (%) = 1.32322e-05 (3.23097)
Neigh time (%) = 0 (0)
Comm  time (%) = 3.77893e-05 (9.22719)
Outpt time (%) = 5.53131e-05 (13.506)
Other time (%) = 0.000303209 (74.0358)

Nlocal:    0.5 ave 2 max 0 min
Histogram: 3 0 0 0 0 0 0 0 0 1
Nghost:    1.5 ave 2 max 0 min
Histogram: 1 0 0 0 0 0 0 0 0 3
Neighs:    0.25 ave 1 max 0 min
Histogram: 3 0 0 0 0 0 0 0 0 1

Total # of neighbors = 1
Ave neighs/atom = 0.5
Neighbor list builds = 0
Dangerous builds = 0
run 10    
Setting up run at Thu Mar 19 18:01:21 2020

Memory usage per processor = 53.8006 Mbytes
    Step    Atoms         KinEng            rke         Volume 
    3271        2     0.30931361              0              4 
CFD Coupling established at step 3280
    3281        2     0.31022526              0              4 
Loop time of 0.000389099 on 4 procs for 10 steps with 2 atoms, finish time Thu Mar 19 18:01:21 2020


Pair  time (%) = 1.32322e-05 (3.40074)
Neigh time (%) = 0 (0)
Comm  time (%) = 2.5928e-05 (6.6636)
Outpt time (%) = 7.82609e-05 (20.1134)
Other time (%) = 0.000271678 (69.8223)

Nlocal:    0.5 ave 2 max 0 min
Histogram: 3 0 0 0 0 0 0 0 0 1
Nghost:    1.5 ave 2 max 0 min
Histogram: 1 0 0 0 0 0 0 0 0 3
Neighs:    0.25 ave 1 max 0 min
Histogram: 3 0 0 0 0 0 0 0 0 1

Total # of neighbors = 1
Ave neighs/atom = 0.5
Neighbor list builds = 0
Dangerous builds = 0
run 10    
Setting up run at Thu Mar 19 18:01:21 2020

Memory usage per processor = 53.8006 Mbytes
    Step    Atoms         KinEng            rke         Volume 
    3281        2     0.31022526              0              4 
CFD Coupling established at step 3290
    3291        2     0.31123334              0              4 
Loop time of 0.000380754 on 4 procs for 10 steps with 2 atoms, finish time Thu Mar 19 18:01:21 2020


Pair  time (%) = 1.41263e-05 (3.71008)
Neigh time (%) = 0 (0)
Comm  time (%) = 2.5332e-05 (6.6531)
Outpt time (%) = 5.40614e-05 (14.1985)
Other time (%) = 0.000287235 (75.4383)

Nlocal:    0.5 ave 2 max 0 min
Histogram: 3 0 0 0 0 0 0 0 0 1
Nghost:    1.5 ave 2 max 0 min
Histogram: 1 0 0 0 0 0 0 0 0 3
Neighs:    0.25 ave 1 max 0 min
Histogram: 3 0 0 0 0 0 0 0 0 1

Total # of neighbors = 1
Ave neighs/atom = 0.5
Neighbor list builds = 0
Dangerous builds = 0
run 10    
Setting up run at Thu Mar 19 18:01:21 2020

Memory usage per processor = 53.8006 Mbytes
    Step    Atoms         KinEng            rke         Volume 
    3291        2     0.31123334              0              4 
CFD Coupling established at step 3300
    3301        2     0.31068337              0              4 
Loop time of 0.000574291 on 4 procs for 10 steps with 2 atoms, finish time Thu Mar 19 18:01:21 2020


Pair  time (%) = 1.46627e-05 (2.55319)
Neigh time (%) = 0 (0)
Comm  time (%) = 2.94447e-05 (5.12714)
Outpt time (%) = 0.000106156 (18.4847)
Other time (%) = 0.000424027 (73.835)

Nlocal:    0.5 ave 2 max 0 min
Histogram: 3 0 0 0 0 0 0 0 0 1
Nghost:    1.5 ave 2 max 0 min
Histogram: 1 0 0 0 0 0 0 0 0 3
Neighs:    0.25 ave 1 max 0 min
Histogram: 3 0 0 0 0 0 0 0 0 1

Total # of neighbors = 1
Ave neighs/atom = 0.5
Neighbor list builds = 0
Dangerous builds = 0
run 10    
Setting up run at Thu Mar 19 18:01:22 2020

Memory usage per processor = 53.8006 Mbytes
    Step    Atoms         KinEng            rke         Volume 
    3301        2     0.31068337              0              4 
CFD Coupling established at step 3310
    3311        2     0.31155371              0              4 
Loop time of 0.000383258 on 4 procs for 10 steps with 2 atoms, finish time Thu Mar 19 18:01:22 2020


Pair  time (%) = 1.35303e-05 (3.53033)
Neigh time (%) = 0 (0)
Comm  time (%) = 2.93851e-05 (7.66719)
Outpt time (%) = 5.37634e-05 (14.028)
Other time (%) = 0.000286579 (74.7745)

Nlocal:    0.5 ave 2 max 0 min
Histogram: 3 0 0 0 0 0 0 0 0 1
Nghost:    1.5 ave 2 max 0 min
Histogram: 1 0 0 0 0 0 0 0 0 3
Neighs:    0.25 ave 1 max 0 min
Histogram: 3 0 0 0 0 0 0 0 0 1

Total # of neighbors = 1
Ave neighs/atom = 0.5
Neighbor list builds = 0
Dangerous builds = 0
run 10    
Setting up run at Thu Mar 19 18:01:22 2020

Memory usage per processor = 53.8006 Mbytes
    Step    Atoms         KinEng            rke         Volume 
    3311        2     0.31155371              0              4 
CFD Coupling established at step 3320
    3321        2     0.31277233              0              4 
Loop time of 0.000380278 on 4 procs for 10 steps with 2 atoms, finish time Thu Mar 19 18:01:22 2020


Pair  time (%) = 1.2517e-05 (3.29154)
Neigh time (%) = 0 (0)
Comm  time (%) = 2.6226e-05 (6.89655)
Outpt time (%) = 5.47767e-05 (14.4044)
Other time (%) = 0.000286758 (75.4075)

Nlocal:    0.5 ave 2 max 0 min
Histogram: 3 0 0 0 0 0 0 0 0 1
Nghost:    1.5 ave 2 max 0 min
Histogram: 1 0 0 0 0 0 0 0 0 3
Neighs:    0.25 ave 1 max 0 min
Histogram: 3 0 0 0 0 0 0 0 0 1

Total # of neighbors = 1
Ave neighs/atom = 0.5
Neighbor list builds = 0
Dangerous builds = 0
run 10    
Setting up run at Thu Mar 19 18:01:22 2020

Memory usage per processor = 53.8006 Mbytes
    Step    Atoms         KinEng            rke         Volume 
    3321        2     0.31277233              0              4 
CFD Coupling established at step 3330
    3331        2     0.31418717              0              4 
Loop time of 0.000377178 on 4 procs for 10 steps with 2 atoms, finish time Thu Mar 19 18:01:22 2020


Pair  time (%) = 1.40071e-05 (3.71365)
Neigh time (%) = 0 (0)
Comm  time (%) = 2.57492e-05 (6.8268)
Outpt time (%) = 5.37634e-05 (14.2541)
Other time (%) = 0.000283659 (75.2054)

Nlocal:    0.5 ave 2 max 0 min
Histogram: 3 0 0 0 0 0 0 0 0 1
Nghost:    1.5 ave 2 max 0 min
Histogram: 1 0 0 0 0 0 0 0 0 3
Neighs:    0.25 ave 1 max 0 min
Histogram: 3 0 0 0 0 0 0 0 0 1

Total # of neighbors = 1
Ave neighs/atom = 0.5
Neighbor list builds = 0
Dangerous builds = 0
