FoamFile
{version 2.0; format ascii;class vectorField; location 0;object  v;}
2
(
( -1.43972e-06 -1.43972e-06 -1.56371 )  
( 1.00357e-06 1.00357e-06 -1.46167 )  
)
