/*--------------------------------*- C++ -*----------------------------------*\
| =========                 |                                                 |
| \\      /  F ield         | OpenFOAM: The Open Source CFD Toolbox           |
|  \\    /   O peration     | Version:  5.x                                   |
|   \\  /    A nd           | Web:      www.OpenFOAM.org                      |
|    \\/     M anipulation  |                                                 |
\*---------------------------------------------------------------------------*/
FoamFile
{
    version     2.0;
    format      ascii;
    class       volScalarField;
    location    "0.027";
    object      interFace;
}
// * * * * * * * * * * * * * * * * * * * * * * * * * * * * * * * * * * * * * //

dimensions      [0 0 0 0 0 0 0];

internalField   nonuniform List<scalar> 
1560
(
0
0
0
0
0
0
0
0
0
0
0
0
0
0
0
0
0
0
0
0
0
0
0
0
0
0
0
0
0
0
0
0
0
0
0
0
0
0
0
0
0
0
0
0
0
0
0
0
0
0
0
0
0
0
0
0
0
0
0
0
0
0
0
0
0
0
0
0
0
0
0
0
0
0
0
0
0
0
0
0
0
0
0
0
0
0
0
0
0
0
0
0
0
0
0
0
0
0
0
0
0
0
0
0
0
0
0
0
0
0
0
0
0
0
0
0
0
0
0
0
0
0
0
0
0
0
0
0
0
0
0
0
0
0
0
0
0
0
0
0
0
0
0
0
0
0
0
0
0
0
0
0
0
0
0
0
0
0
0
0
0
0
0
0
0
0
0
0
0
0
0
0
0
0
0
0
0
0
0
0
0
0
0
0
0
0
0
0
0
0
0
0
0
0
0
0
0
0
0
0
0
0
0
0
0
0
0
0
0
0
0
0
0
0
0
0
0
0
0
0
0
0
0
0
0
0
0
0
0
0
0
0
0
0
0
0
0
0
0
0
0
0
0
0
0
0
0
0
0
0
0
0
0
0
0
0
0
0
0
0
0
0
0
0
0
0
0
0
0
0
0
0
0
0
0
0
0
0
0
0
0
0
0
0
0
0
0
0
0
0
0
0
0
0
0
0
0
0
0
0
0
0
0
0
0
0
0
0
0
0
0
0
0
0
0
0
0
0
0
0
0
0
0
0
0
0
0
0
0
0
0
0
0
0
0
0
0
0
0
0
0
0
0
0
0
0
0
0
0
0
0
0
0
0
0
0
0
0
0
0
0
0
0
0
0
0
0
0
0
0
0
0
0
0
0
0
0
0
0
0
0
0
0
0
0
0
0
0
0
0
0
0
0
0
0
0
0
0
0
0
0
0
0
0
0
0
0
0
0
0
0
0
0
0
0
0
0
0
0
0
0
0
0
0
0
0
0
0
0
0
0
0
0
0
0
0
0
0
0
0
0
0
0
0
0
0
0
0
0
0
0
0
0
0
0
0
0
0
0
0
0
0
0
0
0
0
0
0
0
0
0
0
0
0
0
0
0
0
0
0
0
0
0
0
0
0
0
0
0
0
0
0
0
0
0
0
0
0
0
0
0
0
0
0
0
0
0
0
0
0
0
0
0
0
0
0
0
0
0
0
0
0
0
0
0
0
0
0
0
0
0
0
0
0
0
0
0
0
0
0
0
0
0
0
0
0
0
0
0
0
0
0
0
0
0
0
0
0
0
0
0
0
0
0
0
0
0
0
0
0
0
0
0
0
0
0
0
0
0
0
0
0
0
0
0
0
0
0
0
0
0
0
0
0
0
0
0
0
0
0
0
0
0
0
0
0
0
0
0
0
0
0
0
0
0
0
0
0
0
0
0
0
0
0
0
0
0
0
0
0
0
0
0
0
0
0
0
0
0
0
0
0
0
0
0
0
0
0
0
0
0
0
0
0
0
0
0
0
0
0
0
0
0
0
0
0
0
0
0
0
0
0
0
0
0
0
0
0
0
0
0
0
0
0
0
0
0
0
0
0
0
0
0
0
0
0
0
0
0
0
0
0
0
0
0
0
0
0
0
0
0
0
0
0
0
0
0
0
0
0
0
0
0
0
0
0.963505
0
0
0
0
0
0
0
0
0
0
0
0
0
0
0
0
0
0
0
0
0
0
0
0
0.20002
0.648227
0
0
0
0.648227
0
0
0
0
0
0
0
0
0
0
0
0
0
0
0
0
0
0
0
0.0381916
0.486399
0
0
0
0.486399
0
0
0
0
0
0
0
0
0
0
0
0
0
0
0
0
0
0
0
0.746943
0
0
0
0
0
0
0
0
0
0
0
0
0
0
0
0
0
0
0
0
0
0
0
0
0.45033
0.9282
0
0
0
0.928201
0
0
0
0
0
0
0
0
0
0
0
0
0
0
0
0
0
0
0
0.0152849
0.463496
0
0
0
0.463496
0
0
0
0
0
0
0
0
0
0
0
0
0
0
0
0
0
0
0
0.297368
0.954521
0
0
0
0.954521
0
0
0
0
0
0
0
0
0
0
0
0
0
0
0
0
0
0
0
0
0
0
0
0
0
0
0
0
0
0
0
0
0
0
0
0
0
0
0
0
0
0
0
0
0
0
0
0
0
0
0
0
0
0
0
0
0
0
0
0
0
0
0
0
0
0
0
0
0
0
0
0
0
0
0
0
0
0
0
0
0
0
0
0
0
0
0
0
0
0
0
0
0
0
0
0
0
0
0
0
0
0
0
0
0
0
0
0
0
0
0
0
0
0
0
0
0
0
0
0.468944
0.468945
0.737869
0.0114179
0.280342
0.280342
0.549267
0
0.89132
0
0.459625
0
0.728549
0
0.89132
0
0
0.459625
0.728549
0
0
0.307116
0.307116
0.576041
0.387436
0.65636
0.65636
0.925285
0
0.755323
0
0.87268
0
0
0
0.755323
0
0
0.87268
0
0
0
0
0
0
0
0
0
0
0.926226
0.926226
0
0.831973
0
0
0
0.719257
0.719258
0.988185
0.0568153
0.325743
0.325743
0.59467
0
0
0
0.505026
0
0.845142
0
0
0
0
0.505027
0.845142
0
0
0.284212
0.284212
0.55314
0.159617
0.428544
0.428544
0.697472
0
0.732424
0
0.607828
0
0.858303
0
0.732424
0
0
0.607828
0.858303
0
0
0
0
0
0
0
0
0
0.566296
0.566296
0.835223
0.871454
0
0
0
0
0
0
0
0
0
0
0
0
0
0
0
0
0
0.199428
0.0830126
0.0830126
0.109786
0.127834
0.154607
0.154607
0.826917
0.710502
0.53122
0.557993
0.755323
0.602814
0.782096
0.826917
0.53122
0.710502
0.557993
0.755323
0.602814
0.782096
0.108219
0.0601068
0.0601069
0.0185749
0.104929
0.0633969
0.0633969
0.735712
0.6876
0.508318
0.466786
0.732422
0.511608
0.69089
0.735712
0.508318
0.6876
0.466786
0.732422
0.511608
0.69089
0.569585
0.34219
0.34219
0.479941
0.387012
0.524763
0.524763
0.119107
0.0294648
0.0562389
0.0562389
0.10106
0.0742857
0.0742857
0.208748
0.298389
0.14588
0.325163
0.34321
0.190701
0.163927
0.208748
0.298389
0.14588
0.325163
0.34321
0.190701
0.163927
0.29839
0.567314
0.414805
0.414805
0.432852
0.432852
0.280343
0.289069
0.172654
0.351937
0.37871
0.217475
0.423531
0.244248
0.289069
0.172654
0.351937
0.37871
0.217475
0.423531
0.244248
0.378711
0.441578
0.441578
0.647635
0.307116
0.513173
0.513173
0.315843
0.226201
0.432257
0.432257
0.477078
0.271022
0.271022
0.405484
0.495125
0.521898
0.701181
0.539946
0.566719
0.360663
0.405484
0.495125
0.521898
0.701181
0.539946
0.566719
0.360663
0.495125
0.76405
0.790823
0.790823
0.629587
0.629588
0.656361
0.916558
0.620861
0.979426
0.826917
0.844964
0.692455
0
0.916558
0.620861
0.979426
0.826917
0.844964
0.692455
0
0.23281
0.143166
0.101637
0.101637
0.146459
0.187988
0.187988
0.322453
0.412094
0.19128
0.370565
0.456916
0.236102
0.277631
0.322453
0.412094
0.19128
0.370565
0.456916
0.236102
0.277631
0.197861
0.149749
0.329034
0.287502
0.194571
0.332324
0.153039
0.197861
0.149749
0.329034
0.287503
0.194571
0.332325
0.153039
0.287504
0.418677
0.418677
0.55643
0.284214
0.421967
0.421967
0.156329
0.0666855
0.204439
0.204439
0.249261
0.111507
0.111508
0.245972
0.335613
0.294081
0.473366
0.380435
0.338903
0.20115
0.245972
0.335613
0.294081
0.473366
0.380435
0.338903
0.20115
0.335615
0.604541
0.563009
0.563009
0.470078
0.470078
0.428546
0.783823
0.514897
0.831932
0.65265
0.559719
0.876754
0.739001
0.783823
0.514897
0.65265
0.831932
0.559719
0.876754
0.739001
0.659227
0.431833
0.611118
0.748868
0.476655
0.79369
0.614405
0.659227
0.431833
0.611118
0.748868
0.476655
0.79369
0.614405
0.74887
0.70076
0.70076
0
0.566297
0.883333
0.883333
0
0
0
0.352529
0.621453
0.621453
0.890377
0.181974
0.244841
0.244841
0.0923321
0.289662
0.137153
0.137153
0.271615
0.334482
0.513765
0.361257
0.379303
0.406077
0.226795
0.271616
0.334483
0.513765
0.361257
0.379303
0.406078
0.226795
0.746596
0.477672
0.683728
0.504446
0.522493
0.728549
0.701775
0.746596
0.477672
0.504446
0.683728
0.522493
0.728549
0.701775
0.412095
0.681021
0.460207
0.460207
0.546558
0.546558
0.325744
0.361257
0.603407
0.603407
0.630181
0.468945
0.495719
0.495719
0.825355
0.59796
0.956528
0.735714
0.822065
0.601251
0.959818
0.825355
0.597961
0.956528
0.735714
0.822065
0.601251
0.959818
0.363982
0.495152
0.495152
0.274338
0.539974
0.31916
0.31916
0
0
0
0
0
0
0
0.836237
0.746596
0.594087
0.952652
0.612134
0.970699
0.81819
0.836237
0.746596
0.594087
0.952652
0.612134
0.970699
0.81819
0.453624
0.584794
0.764079
0.543265
0.629616
0.588087
0.408802
0.453624
0.584795
0.76408
0.543266
0.629616
0.588087
0.408802
0.860303
0.591377
0.72913
0.549848
0.636199
0.773952
0.815481
0.860304
0.591378
0.549849
0.729131
0.6362
0.773953
0.815482
0.397349
0.397349
0.44217
0.639499
0.549858
0.594678
0.594678
0
0
0
0
0
0
0
0
0
0
0
0
0
0
0.809463
0.87233
0.693048
0.540539
0.917151
0.58536
0.764642
0.809463
0.693048
0.87233
0.540539
0.917151
0.58536
0.764642
0.486991
0.666274
0.531812
0.729141
0.818782
0.863603
0.68432
0.486991
0.666274
0.531812
0.729141
0.818782
0.863603
0.68432
0.543267
0.853722
0.853722
0.812193
0.719259
0.67773
0.67773
0.755915
0.755915
0.621453
0.818782
0
0.953244
0.953244
)
;

boundaryField
{
    inlet
    {
        type            calculated;
        value           uniform 0;
    }
    wall
    {
        type            calculated;
        value           uniform 0;
    }
    outlet
    {
        type            calculated;
        value           uniform 0;
    }
    procBoundary3to1
    {
        type            processor;
        value           uniform 0;
    }
    procBoundary3to2
    {
        type            processor;
        value           uniform 0;
    }
}


// ************************************************************************* //
