/*--------------------------------*- C++ -*----------------------------------*\
| =========                 |                                                 |
| \\      /  F ield         | OpenFOAM: The Open Source CFD Toolbox           |
|  \\    /   O peration     | Version:  5.x                                   |
|   \\  /    A nd           | Web:      www.OpenFOAM.org                      |
|    \\/     M anipulation  |                                                 |
\*---------------------------------------------------------------------------*/
FoamFile
{
    version     2.0;
    format      ascii;
    class       volScalarField;
    location    "0.027";
    object      phiIB;
}
// * * * * * * * * * * * * * * * * * * * * * * * * * * * * * * * * * * * * * //

dimensions      [0 2 -1 0 0 0 0];

internalField   nonuniform List<scalar> 
1560
(
4.72734e-06
4.72864e-06
4.72437e-06
4.72738e-06
4.71976e-06
4.72864e-06
4.72997e-06
4.72573e-06
4.72878e-06
4.72119e-06
4.72438e-06
4.72574e-06
4.72153e-06
4.7246e-06
4.71704e-06
4.72738e-06
4.72878e-06
4.7246e-06
4.7277e-06
4.72014e-06
4.71978e-06
4.7212e-06
4.71705e-06
4.72015e-06
4.71264e-06
9.15347e-06
9.15341e-06
9.15144e-06
9.15152e-06
9.14736e-06
9.15341e-06
9.15342e-06
9.15154e-06
9.1517e-06
9.1476e-06
9.15145e-06
9.15155e-06
9.14976e-06
9.14998e-06
9.14592e-06
9.15153e-06
9.15171e-06
9.14998e-06
9.15026e-06
9.14622e-06
9.14738e-06
9.14761e-06
9.14593e-06
9.14623e-06
9.14221e-06
2.10905e-05
2.10908e-05
2.10852e-05
2.10865e-05
2.10767e-05
2.10908e-05
2.10913e-05
2.10859e-05
2.10873e-05
2.10775e-05
2.10852e-05
2.10859e-05
2.10805e-05
2.1082e-05
2.10724e-05
2.10865e-05
2.10873e-05
2.1082e-05
2.10836e-05
2.1074e-05
2.10767e-05
2.10776e-05
2.10724e-05
2.1074e-05
2.10644e-05
2.90539e-05
2.9054e-05
2.90481e-05
2.90492e-05
2.90388e-05
2.9054e-05
2.90543e-05
2.90486e-05
2.90498e-05
2.90394e-05
2.90482e-05
2.90486e-05
2.9043e-05
2.90442e-05
2.90339e-05
2.90492e-05
2.90498e-05
2.90442e-05
2.90454e-05
2.90352e-05
2.90388e-05
2.90394e-05
2.90339e-05
2.90352e-05
2.9025e-05
3.92345e-05
3.9235e-05
3.92258e-05
3.92276e-05
3.92113e-05
3.92351e-05
3.92357e-05
3.92265e-05
3.92284e-05
3.92121e-05
3.92258e-05
3.92266e-05
3.92174e-05
3.92193e-05
3.92031e-05
3.92277e-05
3.92284e-05
3.92193e-05
3.92212e-05
3.9205e-05
3.92114e-05
3.92122e-05
3.92031e-05
3.9205e-05
3.91889e-05
4.86229e-05
4.86241e-05
4.8612e-05
4.86145e-05
4.85933e-05
4.86241e-05
4.86251e-05
4.8613e-05
4.86155e-05
4.85942e-05
4.86121e-05
4.86131e-05
4.8601e-05
4.86034e-05
4.85822e-05
4.86145e-05
4.86155e-05
4.86034e-05
4.86058e-05
4.85847e-05
4.85933e-05
4.85943e-05
4.85823e-05
4.85847e-05
4.85637e-05
5.79998e-05
5.80011e-05
5.79827e-05
5.79855e-05
5.79543e-05
5.80011e-05
5.80022e-05
5.79838e-05
5.79866e-05
5.79554e-05
5.79828e-05
5.79839e-05
5.79657e-05
5.79685e-05
5.79376e-05
5.79855e-05
5.79866e-05
5.79686e-05
5.79716e-05
5.79407e-05
5.79543e-05
5.79555e-05
5.79376e-05
5.79407e-05
5.79101e-05
6.79596e-05
6.79615e-05
6.79363e-05
6.79404e-05
6.78984e-05
6.79615e-05
6.79631e-05
6.7938e-05
6.79421e-05
6.79001e-05
6.79364e-05
6.7938e-05
6.79133e-05
6.79176e-05
6.78759e-05
6.79404e-05
6.79421e-05
6.79176e-05
6.7922e-05
6.78804e-05
6.78985e-05
6.79002e-05
6.78759e-05
6.78804e-05
6.78392e-05
7.72867e-05
7.72884e-05
7.72512e-05
7.7255e-05
7.71934e-05
7.72885e-05
7.72898e-05
7.72527e-05
7.72567e-05
7.71954e-05
7.72513e-05
7.72527e-05
7.72164e-05
7.7221e-05
7.71603e-05
7.72551e-05
7.72568e-05
7.7221e-05
7.72259e-05
7.71655e-05
7.71936e-05
7.71955e-05
7.71603e-05
7.71655e-05
7.71059e-05
8.73874e-05
8.73847e-05
8.73287e-05
8.73287e-05
8.72453e-05
8.73847e-05
8.73824e-05
8.73283e-05
8.73296e-05
8.72464e-05
8.73288e-05
8.73283e-05
8.72773e-05
8.72801e-05
8.71972e-05
8.73288e-05
8.73296e-05
8.72801e-05
8.72841e-05
8.72014e-05
8.72454e-05
8.72465e-05
8.71973e-05
8.72014e-05
8.71193e-05
9.72338e-05
9.72085e-05
9.71098e-05
9.70854e-05
9.69528e-05
9.72086e-05
9.71892e-05
9.70969e-05
9.70773e-05
9.69469e-05
9.711e-05
9.7097e-05
9.70089e-05
9.69953e-05
9.68675e-05
9.70856e-05
9.70774e-05
9.69953e-05
9.69868e-05
9.68606e-05
9.6953e-05
9.69471e-05
9.68676e-05
9.68607e-05
9.67378e-05
0.000107649
0.000107535
0.00010728
0.000107174
0.000106977
0.000107535
0.000107451
0.000107231
0.000107141
0.000106949
0.000107281
0.000107231
0.000107069
0.000107004
0.000106814
0.000107175
0.000107141
0.000107004
0.000106957
0.000106774
0.000106977
0.000106949
0.000106814
0.000106774
0.000106593
0.000118685
0.000118462
0.000117988
0.000117712
0.000117324
0.000118463
0.000118284
0.000117856
0.000117608
0.000117241
0.000117988
0.000117856
0.000117498
0.000117303
0.000116982
0.000117713
0.000117609
0.000117303
0.000117155
0.000116864
0.000117324
0.000117241
0.000116982
0.000116864
0.00011659
0.000128842
0.000128681
0.000128184
0.000127731
0.000126983
0.000128682
0.000128489
0.00012795
0.000127513
0.000126814
0.000128185
0.00012795
0.00012731
0.00012692
0.000126397
0.000127731
0.000127514
0.00012692
0.000126608
0.00012618
0.000126984
0.000126815
0.000126397
0.00012618
0.000125778
0.000138906
0.000138776
0.000138268
0.000137894
0.000137103
0.000138777
0.00013862
0.000138092
0.000137705
0.000136896
0.000138269
0.000138092
0.000137547
0.000137148
0.000136369
0.000137895
0.000137705
0.000137148
0.000136781
0.000136097
0.000137104
0.000136896
0.00013637
0.000136097
0.00013555
0.000146381
0.00014625
0.000145688
0.000145443
0.00014468
0.00014625
0.000146112
0.000145546
0.000145275
0.000144473
0.000145689
0.000145546
0.000145019
0.000144708
0.00014373
0.000145444
0.000145275
0.000144709
0.000144397
0.000143452
0.000144681
0.000144473
0.000143731
0.000143452
0.000142842
0.000154947
0.00015477
0.00015404
0.000153713
0.000152632
0.000154771
0.0001546
0.000153878
0.00015356
0.000152489
0.000154041
0.000153878
0.000153184
0.000152885
0.000151818
0.000153714
0.000153561
0.000152885
0.000152635
0.000151627
0.000152634
0.000152489
0.000151818
0.000151627
0.000150831
0.000159319
0.000159129
0.000158225
0.000157892
0.000156489
0.00015913
0.000158953
0.000158075
0.000157764
0.000156395
0.000158226
0.000158076
0.000157242
0.000156982
0.000155694
0.000157894
0.000157765
0.000156983
0.000156763
0.000155517
0.00015649
0.000156396
0.000155695
0.000155518
0.000154468
0.000168151
0.000167788
0.000166514
0.00016585
0.000163809
0.000167789
0.000167457
0.000166206
0.000165579
0.000163557
0.000166515
0.000166206
0.000164995
0.000164411
0.000162422
0.000165852
0.00016558
0.000164411
0.000163937
0.000162104
0.000163811
0.000163559
0.000162423
0.000162104
0.000160724
0.000170357
0.000169824
0.000168092
0.000167272
0.000164605
0.000169825
0.00016935
0.000167708
0.000166964
0.000164405
0.000168094
0.000167708
0.000166146
0.000165542
0.000163141
0.000167275
0.000166966
0.000165543
0.00016508
0.000162832
0.000164608
0.000164407
0.000163142
0.000162832
0.000160805
0.000182619
0.000181568
0.000179216
0.00017754
0.000173739
0.00018157
0.000180661
0.000178401
0.000176894
0.00017317
0.000179219
0.000178402
0.000176226
0.000174863
0.000171201
0.000177544
0.000176897
0.000174864
0.000173862
0.000170646
0.000173744
0.000173173
0.000171203
0.000170647
0.000168216
0.000184416
0.000182401
0.000178946
0.000176493
0.000171352
0.000182403
0.000180777
0.000177728
0.000175657
0.000170951
0.00017895
0.00017773
0.000174812
0.000173288
0.00016889
0.000176499
0.00017566
0.00017329
0.000172425
0.000168749
0.000171359
0.000170955
0.000168892
0.000168749
0.000164609
0.000203641
0.000200457
0.000196185
0.000191741
0.000184961
0.00020046
0.000197843
0.000193919
0.000190139
0.000183593
0.00019619
0.000193922
0.000190192
0.000186867
0.000180466
0.000191748
0.000190143
0.000186869
0.000184805
0.000179919
0.00018497
0.000183598
0.000180469
0.000179919
0.000175546
0.000213563
0.000204358
0.000197058
0.000188679
0.000178824
0.000204362
0.000197869
0.000192361
0.000185907
0.000177719
0.000197066
0.000192364
0.00018669
0.000182033
0.000174144
0.00018869
0.000185913
0.000182036
0.000178984
0.000172116
0.000178836
0.000177726
0.000174148
0.000172117
0.000164077
0.000237759
0.000228394
0.000220137
0.00020962
0.000198481
0.0002284
0.000221085
0.000214493
0.000205824
0.000195669
0.000220148
0.000214498
0.000208457
0.00020101
0.000192276
0.000209635
0.000205833
0.000201014
0.000196114
0.000189277
0.000198497
0.000195679
0.000192281
0.000189279
0.000181291
0.00030137
0.00025708
0.000239212
0.000208953
0.00019185
0.000257087
0.000229441
0.000219936
0.000199456
0.000187383
0.000239227
0.000219943
0.000208515
0.000193215
0.000177931
0.000208973
0.000199469
0.00019322
0.000183824
0.000171286
0.000191872
0.000187398
0.000177939
0.000171288
0.000156464
0.000305807
0.000268674
0.000246931
0.000228984
0.000212371
0.000268682
0.000248595
0.000235514
0.000220253
0.000208499
0.000246956
0.000235528
0.000225482
0.00021344
0.000202141
0.000229013
0.000220273
0.000213448
0.000205441
0.000194705
0.000212401
0.00020852
0.000202151
0.000194708
0.000181629
0.000585622
0.000402173
0.000333746
0.00023811
0.000214873
0.000402186
0.000283063
0.000267128
0.000211196
0.000193435
0.00033379
0.000267152
0.000243643
0.000200469
0.000176296
0.000238152
0.000211224
0.00020048
0.000176533
0.000162078
0.000214913
0.000193463
0.000176311
0.000162083
0.000141849
0.000615662
0.000351879
0.000284364
0.000253696
0.000216446
0.000351988
0.000262175
0.000242371
0.000228989
0.000210425
0.000284448
0.000242416
0.000225745
0.000214985
0.000197955
0.000253747
0.000229027
0.000214999
0.000200665
0.000188977
0.000216491
0.00021046
0.000197972
0.000188983
0.000172361
0.00228776
0.000993602
0.000452709
0.000253103
0.000217921
0.000994449
0.000306983
0.000305244
0.000210986
0.000184622
0.000452717
0.000305288
0.000252276
0.000186472
0.000165462
0.000253131
0.000211023
0.000186486
0.000158152
0.00014393
0.000217961
0.000184657
0.00016548
0.000143936
0.000123825
0.00776044
0.00146019
0.000249141
0.000223032
0.000197539
0.00146112
0.000545825
0.000220222
0.000202464
0.000196427
0.000249239
0.000220263
0.000196073
0.000192726
0.000178302
0.000223092
0.000202502
0.000192739
0.00017936
0.000173506
0.000197586
0.000196463
0.000178318
0.000173512
0.000154636
-0.00052838
-0.000248269
-1.52378e-05
0.000108879
9.96237e-05
-0.000248211
2.84808e-05
5.96735e-05
0.000121314
9.48425e-05
-1.51897e-05
5.9694e-05
8.23366e-05
0.000101785
9.50339e-05
0.000108931
0.000121342
0.000101793
0.000107589
9.54858e-05
9.96676e-05
9.48724e-05
9.50454e-05
9.54893e-05
8.89731e-05
3.45043e-05
0.000229296
0.000200711
0.000185652
0.000154973
0.000229319
9.38856e-05
0.00017323
0.000152699
0.000149993
0.000200729
0.00017324
0.000144485
0.000145751
0.000133336
0.000185686
0.000152718
0.000145755
0.00013528
0.000134659
0.000155007
0.000150016
0.000133344
0.000134662
0.000124659
0.00339433
0.0010508
0.000269973
5.34839e-05
0.000111962
0.00105081
0.000186131
0.000117844
8.46223e-05
8.02339e-05
0.000269984
0.00011785
0.000122687
7.22959e-05
7.6305e-05
5.35084e-05
8.46371e-05
7.23001e-05
6.94066e-05
6.87036e-05
0.000111989
8.02507e-05
7.63117e-05
6.87062e-05
6.95702e-05
0.00049887
-0.000386954
-0.000181509
-3.71937e-05
3.08076e-05
-0.000386946
-0.000188784
-6.94921e-05
9.30977e-06
5.06221e-05
-0.000181502
-6.94869e-05
-2.179e-05
2.96557e-05
5.67526e-05
-3.71761e-05
9.32309e-06
2.96593e-05
5.65544e-05
7.32381e-05
3.08254e-05
5.06382e-05
5.67587e-05
7.32413e-05
7.92664e-05
-0.00242996
-0.000518346
-8.71807e-05
-3.42843e-05
1.64096e-05
-0.00051834
-0.000152882
-4.90535e-05
-1.56566e-05
2.00291e-05
-8.71728e-05
-4.90494e-05
-9.11758e-06
5.00737e-06
2.51241e-05
-3.42717e-05
-1.5647e-05
5.01081e-06
1.49747e-05
3.06357e-05
1.64222e-05
2.00405e-05
2.51291e-05
3.06377e-05
4.05053e-05
-0.000402806
-0.000271084
-0.000116377
-3.94236e-05
-1.06705e-05
-0.000271082
-0.000157805
-7.3023e-05
-1.85046e-05
8.59186e-06
-0.000116371
-7.30189e-05
-4.71803e-05
-1.28864e-06
1.09424e-05
-3.94168e-05
-1.84985e-05
-1.28686e-06
1.84544e-05
3.01167e-05
-1.06631e-05
8.60035e-06
1.09459e-05
3.01188e-05
3.58412e-05
-0.000220391
-0.000159918
-8.223e-05
-5.05577e-05
-1.20482e-05
-0.000159916
-0.000124773
-6.68397e-05
-4.16897e-05
-5.88011e-06
-8.22252e-05
-6.68363e-05
-3.87413e-05
-1.979e-05
4.44943e-06
-5.05519e-05
-4.16848e-05
-1.97886e-05
-9.27373e-06
1.27782e-05
-1.20405e-05
-5.87321e-06
4.45284e-06
1.27802e-05
2.99626e-05
-8.92569e-05
-6.91384e-05
-5.12193e-05
-2.02074e-05
-1.81915e-05
-6.91378e-05
-5.00017e-05
-3.41248e-05
-1.40472e-05
-7.7178e-06
-5.12177e-05
-3.41234e-05
-3.0236e-05
-9.27726e-06
-8.822e-06
-2.02055e-05
-1.40455e-05
-9.27684e-06
9.92623e-07
7.5319e-07
-1.81893e-05
-7.71555e-06
-8.82123e-06
7.53736e-07
4.0191e-07
-9.64007e-05
-7.84502e-05
-5.57187e-05
-3.19561e-05
-1.01013e-05
-7.8451e-05
-6.40529e-05
-4.12059e-05
-2.60574e-05
-3.65744e-06
-5.57188e-05
-4.12042e-05
-2.60828e-05
-1.25926e-05
1.00927e-05
-3.19574e-05
-2.60569e-05
-1.25929e-05
-8.325e-06
1.49915e-05
-1.00998e-05
-3.65466e-06
1.00945e-05
1.49933e-05
3.77893e-05
0.00178305
0.00178255
0.000792971
0.000450082
-0.000742426
-0.000742289
0.00015166
0.000729904
0.00081367
0.000519022
0.000101852
6.7723e-05
9.68473e-05
0.000165174
0.000813734
0.000730201
0.000519198
0.000101911
9.68398e-05
6.78368e-05
0.000165248
-0.00196648
-0.00196639
-0.000317103
-0.000966875
0.000133018
0.000133046
0.000481021
0.000182272
-2.79878e-05
0.000156788
-0.000383828
0.000146402
-0.000156747
0.000267718
-2.79852e-05
0.000182322
0.000156822
-0.000383792
-0.00015673
0.000146438
0.000267743
0.000149057
0.00014907
0.000195278
-8.33848e-05
3.73727e-05
3.73824e-05
0.000292555
2.03245e-05
2.03153e-05
-9.47119e-05
0.00139039
0.00092355
0.000923575
0.000553673
0.000919005
0.000919051
0.000370751
0.00214999
0.00196042
0.00196045
0.000405421
0.000122702
0.000603142
-1.82348e-05
0.000111454
0.000228861
0.000454503
0.000137177
0.000603157
0.000122714
-1.82141e-05
0.000111466
0.000454501
0.000228883
0.000137188
0.000191217
0.000191238
8.54742e-05
-0.00242857
-0.00135337
-0.00135335
-0.00046234
-0.00025517
-0.000162311
-0.000218202
-0.000948996
-0.000262883
-0.000493415
-0.000234795
-0.000162314
-0.000255169
-0.000218196
-0.000948984
-0.000493409
-0.000262872
-0.000234794
-0.000134777
-0.00013478
-7.73594e-05
-0.000260363
-0.000165952
-0.000165952
-9.8889e-05
-0.00114845
-0.00114845
-0.000454975
-0.000672227
-0.000507409
-0.000507405
-0.000405967
-0.000269308
-0.000393398
-0.000203189
-0.000426927
-0.000179962
-0.000347504
-0.000131167
-0.000393394
-0.000269301
-0.000203184
-0.000426921
-0.000347501
-0.000179953
-0.000131164
-0.00119181
-0.000627028
-0.00062697
-0.00129342
-0.000751952
-0.0012627
-0.00126268
-4.68583e-05
-0.00020627
-0.000179415
-0.000457358
-0.000153777
-0.00035372
-0.000107426
-4.68199e-05
-0.000179373
-0.000206213
-0.000457308
-0.000153737
-0.00035368
-0.000107377
-0.000908892
0.000254321
0.000254325
-0.000664588
-4.51624e-05
-0.000791715
-0.00079171
-0.000391866
0.000148748
-0.000447764
-0.000478245
8.01374e-05
-0.000477172
-0.000460149
-0.000391853
-0.000447768
0.000148764
-0.000478234
8.01468e-05
-0.000477159
-0.000460134
-0.000933714
-0.00177461
-0.00177461
-0.0011963
-0.00152634
-0.00113904
-0.00113904
0.00116121
0.00192373
0.000204755
0.000204896
-2.61786e-05
0.00148629
0.0014866
0.000280473
0.00207436
-0.000256496
-0.000361183
0.00144636
-0.000453057
0.000542619
0.000282075
0.00207447
-0.000256198
-0.000361083
0.00144626
-0.000452702
0.000543524
0.000817325
0.000663285
-0.000279914
-0.000279938
0.000271564
0.000271368
-0.000985617
-0.00124236
-0.000753423
-0.00162499
-0.00108882
-0.000903104
-0.000820596
-0.00120702
-0.00124234
-0.000753324
-0.00162491
-0.00108876
-0.000903022
-0.000820552
-0.00120699
-0.00146572
-0.000567083
-0.00056707
-9.37318e-05
-0.00154011
-0.000457731
-0.000457716
-0.000839117
-0.00190712
-0.000330128
-0.00033012
6.78534e-05
-0.00140347
-0.00140346
-0.00110268
-0.000703276
-0.000681286
0.000342659
-0.000516471
-0.000334825
-0.00132089
-0.00110267
-0.00070324
-0.000681267
0.000342681
-0.000516443
-0.000334813
-0.00132088
-0.000992482
-3.4387e-05
-4.30372e-05
-4.30267e-05
-0.000459173
-0.00045916
-0.000500793
-5.04618e-05
-0.000165844
4.63425e-05
-8.8627e-05
-4.13519e-05
-0.00030784
7.99525e-05
-5.04368e-05
-0.000165835
4.63561e-05
-8.86179e-05
-4.13305e-05
-0.000307821
7.99686e-05
0.00303249
0.00447206
0.00181346
0.00181347
0.00149593
0.00428794
0.00428797
0.00214529
0.00137739
0.000771587
0.0011741
0.00076713
0.00098871
0.00288949
0.00214537
0.00137743
0.000771588
0.00117412
0.000767208
0.000988732
0.00288953
-0.00103991
-0.000204759
0.000134367
-0.00209245
-0.000678976
-0.00171277
-0.00103989
-0.00103991
-0.000204753
0.000134373
-0.00209244
-0.000678983
-0.00171276
-0.00103988
-0.00172977
-0.000431453
-0.000431446
-0.000563825
-0.000580196
-0.000915609
-0.000915612
-0.00163937
-0.00157447
-0.0023687
-0.00236869
-0.0021119
-0.00160009
-0.00160009
-0.00153626
-0.00221377
-0.00204311
-0.00102825
-0.00174559
-0.00186031
-0.00149538
-0.00153625
-0.00221375
-0.0020431
-0.00102824
-0.00174557
-0.0018603
-0.00149537
-0.00225388
-0.000654936
-0.00105147
-0.00105147
-0.00103152
-0.00103152
-0.00174244
-0.000499412
-0.000642566
-0.000503755
-0.000908493
-0.000650386
-0.000396848
-0.00061326
-0.000499404
-0.000642552
-0.000908485
-0.000503741
-0.00065038
-0.000396838
-0.000613246
-0.000872777
-0.0017009
-0.000942695
-0.000672729
-0.00152048
-0.000505022
-0.000981645
-0.000872774
-0.0017009
-0.000942689
-0.000672722
-0.00152048
-0.000505018
-0.000981639
-0.000876824
-0.000830317
-0.000830315
-0.000207888
-0.00113858
-0.000606678
-0.000606676
0.00165488
0.00165511
0.00125004
0.0049104
0.00224516
0.002243
0.000950366
0.00343675
0.0051373
0.00513691
0.00427126
0.0032744
0.00359995
0.00360047
0.0024275
0.00344275
0.00167472
0.00231557
0.0033009
0.0014677
0.00251334
0.00243095
0.00344736
0.00167297
0.00231529
0.00332266
0.00146607
0.00251563
0.000627984
4.74282e-05
0.000136446
3.68953e-05
0.000192716
0.000192451
0.000756666
0.000628054
4.74765e-05
3.6924e-05
0.000136518
0.000192706
0.000192499
0.000756769
0.00170375
0.000532358
0.000319383
0.000319415
0.000798265
0.000798268
0.0014972
0.00199344
0.00144971
0.00144841
0.00079751
0.00309878
0.000933271
0.000932526
-0.000317015
-0.000239535
7.34176e-06
-0.000316346
-0.000111625
-0.000452131
-0.000253775
-0.000317011
-0.000239528
7.34209e-06
-0.000316348
-0.000111617
-0.00045213
-0.000253774
0.0030302
0.00266103
0.00266106
0.00466654
0.00188796
0.00333439
0.00333442
0.000408252
0.000408288
0.000298694
0.000166265
0.000163767
0.000163794
0.000226042
0.00040051
0.000336518
3.49778e-05
0.000243074
0.000359167
0.000447429
0.000150415
0.000400542
0.000336506
3.49578e-05
0.00024309
0.000359116
0.000447449
0.000150438
0.00258898
0.0018075
0.00067909
0.00153947
0.00147683
0.00126562
0.00303589
0.00258902
0.00180753
0.000679116
0.00153948
0.00147685
0.00126563
0.00303594
0.000388403
0.000917832
0.000587286
0.000360307
0.000844165
0.000395243
0.000546195
0.000388426
0.000917864
0.00036033
0.000587302
0.000844192
0.00039526
0.000546223
0.00474194
0.00474309
0.00441241
0.00251712
0.00339434
0.0029173
0.00291817
0.000823963
0.00075149
0.000688527
0.00124962
0.000552223
0.00103018
0.000398809
0.000752101
0.000824216
0.000688833
0.00124999
0.00103079
0.000552107
0.000399067
0.000731273
0.000996662
0.00147308
0.00111866
0.000908326
0.00110261
0.000949916
0.000731516
0.00147465
0.000997385
0.00111881
0.000909059
0.00110274
0.000950182
0.00363966
0.00196701
0.00337807
0.00206852
0.00178064
0.0016153
0.00229949
0.00365664
0.00193957
0.00338261
0.00204556
0.00177969
0.00160902
0.00229846
0.00175716
0.000623616
0.000623633
0.000649364
0.00110838
0.00101745
0.00101744
0.00123892
0.00124272
0.0034623
0.00120985
0.00198823
0.00138433
0.00138566
)
;

boundaryField
{
    inlet
    {
        type            fixedValue;
        value           uniform 0;
    }
    wall
    {
        type            zeroGradient;
    }
    outlet
    {
        type            fixedValue;
        value           uniform 0;
    }
    procBoundary3to1
    {
        type            processor;
        value           nonuniform List<scalar> 
317
(
4.72739e-06
4.72864e-06
4.72439e-06
4.72739e-06
4.7198e-06
9.15345e-06
9.15339e-06
9.15145e-06
9.15155e-06
9.14742e-06
2.10906e-05
2.10909e-05
2.10853e-05
2.10866e-05
2.10768e-05
2.90539e-05
2.9054e-05
2.90482e-05
2.90492e-05
2.90389e-05
3.92346e-05
3.92351e-05
3.92258e-05
3.92277e-05
3.92114e-05
4.8623e-05
4.8624e-05
4.8612e-05
4.86144e-05
4.85933e-05
5.8e-05
5.80011e-05
5.79827e-05
5.79854e-05
5.79542e-05
6.79599e-05
6.79615e-05
6.79362e-05
6.79403e-05
6.78984e-05
7.72873e-05
7.72885e-05
7.72512e-05
7.72549e-05
7.71934e-05
8.73882e-05
8.73849e-05
8.73287e-05
8.73287e-05
8.72453e-05
9.72347e-05
9.72088e-05
9.71099e-05
9.70855e-05
9.69528e-05
0.000107651
0.000107536
0.000107281
0.000107174
0.000106977
0.000118686
0.000118463
0.000117988
0.000117713
0.000117324
0.000128843
0.000128683
0.000128186
0.000127732
0.000126985
0.000138908
0.000138778
0.00013827
0.000137896
0.000137105
0.000146384
0.000146252
0.000145691
0.000145446
0.000144682
0.000154946
0.00015477
0.00015404
0.000153713
0.000152632
0.000159314
0.000159124
0.000158221
0.000157889
0.000156487
0.000168136
0.000167774
0.0001665
0.000165837
0.000163797
0.000170332
0.000169799
0.000168068
0.000167249
0.000164584
0.000182574
0.000181522
0.000179171
0.000177497
0.000173698
0.000184358
0.000182336
0.000178881
0.000176427
0.000171287
0.000203546
0.000200351
0.00019608
0.000191637
0.000184861
0.000213472
0.000204233
0.00019693
0.000188537
0.000178675
0.000237595
0.000228173
0.000219937
0.000209416
0.000198291
0.000301346
0.000256919
0.000239004
0.000208694
0.000191575
0.00030553
0.00026819
0.000246592
0.000228584
0.000212011
0.000586024
0.00040206
0.000333348
0.000237678
0.000214358
0.000613707
0.000350794
0.000283534
0.000253038
0.000215977
0.00228114
0.000990814
0.000451883
0.000252576
0.000217343
0.00777617
0.0014605
0.000247175
0.000222702
0.000196633
-0.000536494
-0.000252273
-1.64206e-05
0.000108321
9.94332e-05
0.00021182
0.000239012
0.000202498
0.000184941
0.000154857
0.00341816
0.00109674
0.000271946
5.38622e-05
0.000112272
0.000499585
-0.000385516
-0.000180615
-3.67487e-05
3.09409e-05
-0.0024273
-0.000518183
-8.64798e-05
-3.41178e-05
1.68017e-05
-0.000402127
-0.000269942
-0.000116606
-3.90527e-05
-1.06452e-05
-0.000219605
-0.000160283
-8.20822e-05
-5.05985e-05
-1.1834e-05
-8.96525e-05
-6.87363e-05
-5.13305e-05
-2.01024e-05
-1.81179e-05
-9.65575e-05
-7.86239e-05
-5.57502e-05
-3.20236e-05
-1.00318e-05
0.000447697
-0.000743867
0.0017827
0.000100253
6.69339e-05
0.000732359
-0.00098383
0.000120964
-0.00197213
-0.000393591
0.000146318
0.000179999
0.00133332
0.000935308
-1.67524e-05
0.00215105
0.00196584
0.000928867
0.000114606
0.000231391
0.000134766
-0.00242794
-0.00135374
0.000192697
-0.000951983
-0.000261865
-0.000254665
-0.000676706
-0.000507827
-0.00114762
-0.000428611
-0.000179422
-0.000270907
-0.0013143
-0.00131415
-0.000639115
-0.00046162
-0.000110703
-0.000208493
-0.000664253
-0.000791145
0.000255233
-0.000476458
-0.000458677
0.000149342
-0.00119583
-0.00113907
-0.00177481
0.000201862
0.00148606
0.001924
0.00207286
0.000543111
-0.000257577
-0.000454371
-0.00157975
-0.0019194
-0.000741186
-0.00133065
-0.000701228
-0.000757095
-0.00120813
-0.00109353
0.00181493
0.00429011
0.00447195
0.00138201
0.00289788
0.00077382
-0.00236854
-0.00159971
-0.00157431
-0.00221308
-0.00149404
-0.0020419
-0.000203485
-0.00103882
-0.00209094
-0.000500924
-0.00061194
-0.000642308
-0.00169908
-0.000981665
-0.000673526
0.00491809
0.00224803
0.00166046
0.00427486
0.00360078
0.00513918
0.00344899
0.0025158
0.00231655
0.000135314
0.000756455
4.6554e-05
0.00465603
0.00332729
0.00268633
0.00181785
0.0030397
0.00154949
0.000589635
0.000557936
0.000931425
0.00474506
0.00292094
0.00339934
0.00124954
0.000551341
0.000824459
0.00111855
0.000949991
0.00099791
0.00178341
0.00230587
0.00365785
)
;
    }
    procBoundary3to2
    {
        type            processor;
        value           nonuniform List<scalar> 
317
(
4.7274e-06
4.72864e-06
4.7244e-06
4.7274e-06
4.71982e-06
9.15345e-06
9.15339e-06
9.15146e-06
9.15156e-06
9.14744e-06
2.10906e-05
2.10909e-05
2.10853e-05
2.10866e-05
2.10768e-05
2.90539e-05
2.9054e-05
2.90482e-05
2.90493e-05
2.90389e-05
3.92346e-05
3.92351e-05
3.92259e-05
3.92277e-05
3.92115e-05
4.8623e-05
4.8624e-05
4.8612e-05
4.86145e-05
4.85933e-05
5.8e-05
5.80011e-05
5.79827e-05
5.79855e-05
5.79543e-05
6.79599e-05
6.79615e-05
6.79363e-05
6.79404e-05
6.78985e-05
7.72873e-05
7.72885e-05
7.72513e-05
7.7255e-05
7.71935e-05
8.73882e-05
8.7385e-05
8.73289e-05
8.73288e-05
8.72455e-05
9.72348e-05
9.7209e-05
9.71102e-05
9.70858e-05
9.69531e-05
0.000107651
0.000107536
0.000107281
0.000107175
0.000106978
0.000118686
0.000118464
0.000117989
0.000117713
0.000117325
0.000128843
0.000128684
0.000128187
0.000127733
0.000126986
0.000138909
0.000138779
0.000138272
0.000137898
0.000137107
0.000146385
0.000146254
0.000145693
0.000145448
0.000144685
0.000154948
0.000154773
0.000154042
0.000153716
0.000152635
0.000159317
0.000159128
0.000158225
0.000157893
0.000156491
0.000168139
0.000167778
0.000166505
0.000165843
0.000163802
0.000170337
0.000169804
0.000168074
0.000167256
0.000164591
0.000182579
0.000181529
0.000179179
0.000177506
0.000173707
0.000184365
0.000182345
0.000178892
0.000176439
0.0001713
0.000203555
0.000200363
0.000196094
0.000191652
0.000184877
0.000213483
0.000204249
0.000196949
0.000188558
0.000178697
0.000237609
0.000228193
0.000219962
0.000209443
0.00019832
0.000301366
0.000256947
0.000239039
0.000208732
0.000191613
0.000305568
0.000268235
0.000246644
0.000228635
0.000212061
0.000586116
0.000402151
0.000333432
0.000237748
0.000214424
0.00061407
0.000351033
0.000283675
0.000253126
0.000216051
0.00228177
0.000991439
0.000452028
0.000252661
0.000217415
0.00777624
0.00146093
0.000247337
0.000222804
0.000196708
-0.000536448
-0.000252197
-1.63355e-05
0.000108398
9.9494e-05
0.00021186
0.000239066
0.000202543
0.000184997
0.000154908
0.00341818
0.00109677
0.000271978
5.38994e-05
0.000112311
0.00049959
-0.000385501
-0.000180589
-3.67202e-05
3.097e-05
-0.0024273
-0.000518169
-8.64597e-05
-3.40956e-05
1.68246e-05
-0.000402119
-0.000269932
-0.000116592
-3.90361e-05
-1.06266e-05
-0.000219595
-0.000160272
-8.20681e-05
-5.05823e-05
-1.18155e-05
-8.96496e-05
-6.87327e-05
-5.13245e-05
-2.00953e-05
-1.81097e-05
-9.6554e-05
-7.86205e-05
-5.57402e-05
-3.20138e-05
-1.00203e-05
0.00178236
-0.000743734
0.000447789
0.000732701
6.71021e-05
0.000100343
-0.00197204
0.000121005
-0.000983819
0.000180086
0.000146377
-0.000393538
-1.67166e-05
0.000935339
0.00133334
0.000928896
0.00196585
0.00215105
0.0001348
0.000231423
0.000114616
0.00019272
-0.00135372
-0.00242793
-0.000254642
-0.000261844
-0.000951966
-0.0011476
-0.000507818
-0.000676701
-0.00027089
-0.000179407
-0.000428598
-0.000639032
-0.00131411
-0.00131427
-0.000208413
-0.000110635
-0.000461557
0.000255242
-0.000791134
-0.000664248
0.000149363
-0.000458654
-0.000476438
-0.0017748
-0.00113906
-0.00119583
-0.00025736
0.000543608
0.00207302
0.00192416
0.00148639
0.000202036
-0.00109347
-0.00120809
-0.000757004
-0.000701196
-0.00133063
-0.000741142
-0.00191938
-0.00157973
-0.000454352
0.000773819
0.00289788
0.00138202
0.00447196
0.00429013
0.00181494
-0.00209092
-0.00103881
-0.000203473
-0.00204189
-0.00149402
-0.00221306
-0.0015743
-0.0015997
-0.00236853
-0.000642291
-0.000611922
-0.000500907
-0.000673514
-0.000981656
-0.00169907
0.001661
0.002246
0.00491774
0.00513936
0.00360127
0.00427507
0.00231659
0.00251684
0.00345082
4.66604e-05
0.000756606
0.000135422
0.00268635
0.0033273
0.00465604
0.0015495
0.00303972
0.00181786
0.000931436
0.000557955
0.000589655
0.00339905
0.00292049
0.00474487
0.000824829
0.000551722
0.00125007
0.000998436
0.000950292
0.00111873
0.00365949
0.00230417
0.00178211
)
;
    }
}


// ************************************************************************* //
