/*--------------------------------*- C++ -*----------------------------------*\
| =========                 |                                                 |
| \\      /  F ield         | OpenFOAM: The Open Source CFD Toolbox           |
|  \\    /   O peration     | Version:  5.x                                   |
|   \\  /    A nd           | Web:      www.OpenFOAM.org                      |
|    \\/     M anipulation  |                                                 |
\*---------------------------------------------------------------------------*/
FoamFile
{
    version     2.0;
    format      ascii;
    class       volVectorField;
    location    "0.027";
    object      U;
}
// * * * * * * * * * * * * * * * * * * * * * * * * * * * * * * * * * * * * * //

dimensions      [0 1 -1 0 0 0 0];

internalField   nonuniform List<vector> 
1560
(
(7.95084e-08 7.57167e-08 -0.000240065)
(1.45214e-06 7.2427e-08 -0.00024029)
(1.51966e-06 8.11593e-08 -0.000239598)
(2.45355e-06 8.1251e-08 -0.000240125)
(2.32681e-06 9.00552e-08 -0.000238738)
(7.61416e-08 1.44845e-06 -0.00024029)
(1.44931e-06 1.44555e-06 -0.000240517)
(1.51913e-06 1.44419e-06 -0.000239826)
(2.45366e-06 1.44318e-06 -0.000240352)
(2.32755e-06 1.43679e-06 -0.000238964)
(8.48848e-08 1.51658e-06 -0.000239599)
(1.44788e-06 1.51598e-06 -0.000239826)
(1.51728e-06 1.51415e-06 -0.000239138)
(2.44614e-06 1.51416e-06 -0.000239665)
(2.32036e-06 1.50634e-06 -0.000238286)
(8.4962e-08 2.45035e-06 -0.000240125)
(1.44687e-06 2.45041e-06 -0.000240352)
(1.5173e-06 2.44293e-06 -0.000239664)
(2.44585e-06 2.44263e-06 -0.000240189)
(2.31964e-06 2.42593e-06 -0.000238809)
(9.37724e-08 2.32464e-06 -0.000238739)
(1.44046e-06 2.32535e-06 -0.000238966)
(1.50951e-06 2.31818e-06 -0.000238286)
(2.42915e-06 2.31745e-06 -0.00023881)
(2.30343e-06 2.30124e-06 -0.000237447)
(2.10321e-07 2.06898e-07 -1.47289e-05)
(1.03367e-06 2.17056e-07 -1.46251e-05)
(1.24374e-06 2.25189e-07 -1.43609e-05)
(1.66489e-06 2.28665e-07 -1.41617e-05)
(1.25437e-06 2.3122e-07 -1.38063e-05)
(2.20502e-07 1.03026e-06 -1.46252e-05)
(1.04012e-06 1.03676e-06 -1.45204e-05)
(1.24664e-06 1.03541e-06 -1.4258e-05)
(1.66625e-06 1.03639e-06 -1.40593e-05)
(1.2542e-06 1.02857e-06 -1.37053e-05)
(2.28618e-07 1.24087e-06 -1.43612e-05)
(1.03882e-06 1.24378e-06 -1.42582e-05)
(1.24337e-06 1.24052e-06 -1.40012e-05)
(1.65804e-06 1.23991e-06 -1.38036e-05)
(1.24642e-06 1.23069e-06 -1.34553e-05)
(2.3212e-07 1.66237e-06 -1.41622e-05)
(1.03977e-06 1.6637e-06 -1.40596e-05)
(1.24277e-06 1.65549e-06 -1.38037e-05)
(1.65642e-06 1.65387e-06 -1.3607e-05)
(1.24481e-06 1.63836e-06 -1.32598e-05)
(2.34693e-07 1.25295e-06 -1.38068e-05)
(1.03194e-06 1.25278e-06 -1.37057e-05)
(1.23355e-06 1.245e-06 -1.34554e-05)
(1.64091e-06 1.24339e-06 -1.32598e-05)
(1.23063e-06 1.22921e-06 -1.29194e-05)
(1.98767e-07 1.94616e-07 -0.000122504)
(1.83816e-06 1.90753e-07 -0.000122464)
(2.00509e-06 1.94481e-07 -0.000121413)
(3.03773e-06 1.93393e-07 -0.00012135)
(2.71217e-06 1.97821e-07 -0.000119583)
(1.9496e-07 1.83408e-06 -0.000122465)
(1.83465e-06 1.83054e-06 -0.000122427)
(2.00228e-06 1.82204e-06 -0.000121377)
(3.03597e-06 1.81942e-06 -0.000121314)
(2.71146e-06 1.8059e-06 -0.000119548)
(1.98655e-07 2.0016e-06 -0.000121414)
(1.82612e-06 1.99877e-06 -0.000121378)
(1.99397e-06 1.99047e-06 -0.000120338)
(3.02158e-06 1.98844e-06 -0.000120277)
(2.69842e-06 1.97381e-06 -0.000118528)
(1.97573e-07 3.0343e-06 -0.000121351)
(1.82352e-06 3.03252e-06 -0.000121315)
(1.99195e-06 3.01817e-06 -0.000120277)
(3.0193e-06 3.01587e-06 -0.000120215)
(2.69654e-06 2.99111e-06 -0.00011847)
(2.01995e-07 2.70997e-06 -0.000119585)
(1.80999e-06 2.70924e-06 -0.00011955)
(1.97733e-06 2.69621e-06 -0.000118529)
(2.99453e-06 2.69432e-06 -0.00011847)
(2.67318e-06 2.67096e-06 -0.000116754)
(2.49482e-07 2.45059e-07 -0.000107058)
(2.12449e-06 2.52347e-07 -0.000106898)
(2.35839e-06 2.6131e-07 -0.000105694)
(3.49551e-06 2.64608e-07 -0.000105395)
(3.05054e-06 2.6814e-07 -0.000103467)
(2.56736e-07 2.12008e-06 -0.000106899)
(2.12787e-06 2.12348e-06 -0.000106739)
(2.35955e-06 2.11104e-06 -0.000105535)
(3.49522e-06 2.1097e-06 -0.000105235)
(3.04915e-06 2.08339e-06 -0.000103309)
(2.65694e-07 2.35474e-06 -0.000105695)
(2.11545e-06 2.35584e-06 -0.000105535)
(2.3446e-06 2.34091e-06 -0.000104345)
(3.46786e-06 2.33878e-06 -0.000104047)
(3.02376e-06 2.30951e-06 -0.000102141)
(2.69044e-07 3.49203e-06 -0.000105396)
(2.11404e-06 3.49167e-06 -0.000105236)
(2.34249e-06 3.46433e-06 -0.000104047)
(3.46382e-06 3.46029e-06 -0.00010375)
(3.0193e-06 3.41241e-06 -0.000101846)
(2.72575e-07 3.04831e-06 -0.000103469)
(2.08775e-06 3.04693e-06 -0.000103311)
(2.31322e-06 3.02154e-06 -0.000102142)
(3.41594e-06 3.01708e-06 -0.000101847)
(2.97494e-06 2.97272e-06 -9.99744e-05)
(3.67494e-07 3.62159e-07 -8.12322e-05)
(3.20208e-06 3.5848e-07 -8.10186e-05)
(3.50896e-06 3.60022e-07 -7.90091e-05)
(5.26471e-06 3.58911e-07 -7.86052e-05)
(4.67456e-06 3.60013e-07 -7.53341e-05)
(3.63871e-07 3.19686e-06 -8.10193e-05)
(3.19896e-06 3.19373e-06 -8.08052e-05)
(3.50553e-06 3.17116e-06 -7.87982e-05)
(5.26163e-06 3.16723e-06 -7.83945e-05)
(4.67239e-06 3.13224e-06 -7.5128e-05)
(3.65333e-07 3.50448e-06 -7.90107e-05)
(3.17637e-06 3.50103e-06 -7.87992e-05)
(3.48245e-06 3.47798e-06 -7.68175e-05)
(5.22578e-06 3.47415e-06 -7.64192e-05)
(4.63876e-06 3.43663e-06 -7.31963e-05)
(3.64245e-07 5.26039e-06 -7.86074e-05)
(3.17245e-06 5.2573e-06 -7.8396e-05)
(3.47864e-06 5.22146e-06 -7.64197e-05)
(5.22028e-06 5.21596e-06 -7.60218e-05)
(4.63396e-06 5.15764e-06 -7.28077e-05)
(3.65336e-07 4.67177e-06 -7.53372e-05)
(3.13745e-06 4.6696e-06 -7.51305e-05)
(3.44112e-06 4.63596e-06 -7.31977e-05)
(5.16196e-06 4.63115e-06 -7.28087e-05)
(4.57912e-06 4.57632e-06 -6.96663e-05)
(4.73789e-07 4.67799e-07 -0.000132942)
(4.34765e-06 4.72791e-07 -0.000132613)
(4.77175e-06 4.77827e-07 -0.000129862)
(7.17089e-06 4.80908e-07 -0.000129237)
(6.37913e-06 4.79258e-07 -0.000124798)
(4.78934e-07 4.34165e-06 -0.000132614)
(4.34892e-06 4.34284e-06 -0.000132284)
(4.77026e-06 4.30264e-06 -0.000129534)
(7.16578e-06 4.29571e-06 -0.00012891)
(6.37289e-06 4.22121e-06 -0.000124476)
(4.83963e-07 4.76663e-06 -0.000129864)
(4.30863e-06 4.76508e-06 -0.000129535)
(4.72462e-06 4.71945e-06 -0.000126818)
(7.08946e-06 4.71144e-06 -0.000126199)
(6.30312e-06 4.62984e-06 -0.000121815)
(4.87063e-07 7.1659e-06 -0.00012924)
(4.30174e-06 7.16079e-06 -0.000128912)
(4.71661e-06 7.08449e-06 -0.0001262)
(7.07616e-06 7.07118e-06 -0.000125584)
(6.2895e-06 6.94271e-06 -0.000121209)
(4.85433e-07 6.37592e-06 -0.000124802)
(4.22724e-06 6.36966e-06 -0.000124478)
(4.63503e-06 6.29991e-06 -0.000121817)
(6.94767e-06 6.28628e-06 -0.00012121)
(6.17178e-06 6.16856e-06 -0.000116912)
(7.07117e-07 6.9963e-07 -8.98177e-05)
(6.28203e-06 6.96634e-07 -8.93533e-05)
(6.88506e-06 6.95016e-07 -8.5309e-05)
(1.03285e-05 6.9341e-07 -8.44297e-05)
(9.19367e-06 6.88519e-07 -7.78691e-05)
(7.04095e-07 6.27479e-06 -8.93545e-05)
(6.27923e-06 6.27197e-06 -8.88896e-05)
(6.87927e-06 6.2144e-06 -8.48518e-05)
(1.03203e-05 6.20479e-06 -8.39731e-05)
(9.1869e-06 6.11535e-06 -7.74268e-05)
(7.02406e-07 6.87884e-06 -8.53117e-05)
(6.22165e-06 6.87304e-06 -8.48533e-05)
(6.81787e-06 6.81165e-06 -8.08741e-05)
(1.02294e-05 6.8006e-06 -8.00119e-05)
(9.10187e-06 6.7036e-06 -7.35733e-05)
(7.00811e-07 1.03225e-05 -8.44331e-05)
(6.21203e-06 1.03143e-05 -8.39754e-05)
(6.80683e-06 1.02234e-05 -8.00127e-05)
(1.02122e-05 1.02062e-05 -7.91515e-05)
(9.08731e-06 1.00615e-05 -7.27383e-05)
(6.95913e-07 9.18977e-06 -7.7874e-05)
(6.12259e-06 9.18299e-06 -7.74305e-05)
(6.70983e-06 9.09796e-06 -7.35755e-05)
(1.00674e-05 9.0834e-06 -7.27398e-05)
(8.95352e-06 8.94962e-06 -6.65055e-05)
(9.56949e-07 9.48305e-07 -0.00013758)
(8.85639e-06 9.50216e-07 -0.00013688)
(9.69537e-06 9.46016e-07 -0.000131095)
(1.46116e-05 9.48124e-07 -0.000129779)
(1.306e-05 9.30658e-07 -0.000120497)
(9.59066e-07 8.84774e-06 -0.000136881)
(8.85159e-06 8.84285e-06 -0.000136181)
(9.6868e-06 8.73754e-06 -0.000130408)
(1.45916e-05 8.71355e-06 -0.000129098)
(1.30389e-05 8.51707e-06 -0.000119834)
(9.548e-07 9.68799e-06 -0.000131098)
(8.7462e-06 9.67936e-06 -0.00013041)
(9.56607e-06 9.55864e-06 -0.000124735)
(1.43911e-05 9.53307e-06 -0.000123446)
(1.2859e-05 9.31835e-06 -0.000114308)
(9.56968e-07 1.46045e-05 -0.000129783)
(8.72223e-06 1.45844e-05 -0.000129101)
(9.54052e-06 1.4384e-05 -0.000123447)
(1.43513e-05 1.43441e-05 -0.000122168)
(1.2819e-05 1.40112e-05 -0.000113064)
(9.39519e-07 1.30553e-05 -0.000120503)
(8.52575e-06 1.30342e-05 -0.000119838)
(9.3258e-06 1.28543e-05 -0.000114311)
(1.40184e-05 1.28143e-05 -0.000113066)
(1.25183e-05 1.25137e-05 -0.00010415)
(1.42256e-06 1.41174e-06 -0.000122231)
(1.27677e-05 1.40714e-06 -0.000121253)
(1.39862e-05 1.39102e-06 -0.000113025)
(2.09274e-05 1.38348e-06 -0.000111201)
(1.86478e-05 1.35949e-06 -9.78965e-05)
(1.41792e-06 1.27572e-05 -0.000121255)
(1.27524e-05 1.2742e-05 -0.000120283)
(1.3962e-05 1.25738e-05 -0.00011208)
(2.08958e-05 1.25377e-05 -0.000110264)
(1.86229e-05 1.23039e-05 -9.70029e-05)
(1.40171e-06 1.39772e-05 -0.000113029)
(1.25843e-05 1.39531e-05 -0.000112082)
(1.3782e-05 1.3773e-05 -0.000104012)
(2.06576e-05 1.37308e-05 -0.00010225)
(1.84077e-05 1.34728e-05 -8.92504e-05)
(1.39417e-06 2.09188e-05 -0.000111206)
(1.25482e-05 2.08872e-05 -0.000110267)
(1.37397e-05 2.0649e-05 -0.000102251)
(2.05955e-05 2.05869e-05 -0.000100497)
(1.83579e-05 2.02208e-05 -8.75697e-05)
(1.3702e-06 1.86421e-05 -9.79039e-05)
(1.23144e-05 1.86173e-05 -9.70084e-05)
(1.34818e-05 1.84021e-05 -8.92538e-05)
(2.02294e-05 1.83523e-05 -8.75718e-05)
(1.80312e-05 1.80255e-05 -7.5082e-05)
(1.95891e-06 1.94613e-06 -0.000153248)
(1.80626e-05 1.9398e-06 -0.000151723)
(1.97471e-05 1.90734e-06 -0.00013973)
(2.97416e-05 1.9016e-06 -0.000136892)
(2.66172e-05 1.83904e-06 -0.000117834)
(1.95271e-06 1.80499e-05 -0.000151725)
(1.80264e-05 1.80135e-05 -0.000150203)
(1.97056e-05 1.77506e-05 -0.000138253)
(2.96706e-05 1.76645e-05 -0.000135443)
(2.65513e-05 1.71632e-05 -0.000116448)
(1.92031e-06 1.97363e-05 -0.000139735)
(1.77634e-05 1.96948e-05 -0.000138255)
(1.9398e-05 1.93872e-05 -0.000126588)
(2.9154e-05 1.92997e-05 -0.000123858)
(2.61037e-05 1.87516e-05 -0.000105197)
(1.91455e-06 2.97311e-05 -0.000136899)
(1.76773e-05 2.96601e-05 -0.000135447)
(1.93105e-05 2.91436e-05 -0.00012386)
(2.90349e-05 2.90244e-05 -0.000121171)
(2.59894e-05 2.81813e-05 -0.000102627)
(1.85206e-06 2.66104e-05 -0.000117843)
(1.7176e-05 2.65445e-05 -0.000116455)
(1.87624e-05 2.60968e-05 -0.000105201)
(2.81917e-05 2.59826e-05 -0.000102629)
(2.52401e-05 2.52333e-05 -8.45671e-05)
(2.96398e-06 2.94817e-06 -0.000170837)
(2.6286e-05 2.94105e-06 -0.000168557)
(2.88167e-05 2.87957e-06 -0.000151502)
(4.28261e-05 2.84418e-06 -0.000147442)
(3.80692e-05 2.75461e-06 -0.000120561)
(2.95677e-06 2.62703e-05 -0.00016856)
(2.62249e-05 2.62094e-05 -0.000166322)
(2.8722e-05 2.57151e-05 -0.000149439)
(4.27031e-05 2.5572e-05 -0.000145442)
(3.7979e-05 2.4941e-05 -0.000118693)
(2.89527e-06 2.88036e-05 -0.000151509)
(2.57308e-05 2.87091e-05 -0.000149442)
(2.81792e-05 2.81663e-05 -0.000133082)
(4.20518e-05 2.80021e-05 -0.000129313)
(3.7422e-05 2.72941e-05 -0.00010314)
(2.85986e-06 4.28134e-05 -0.00014745)
(2.55876e-05 4.26904e-05 -0.000145446)
(2.8015e-05 4.20392e-05 -0.000129315)
(4.18308e-05 4.18181e-05 -0.000125618)
(3.72523e-05 4.08528e-05 -9.96569e-05)
(2.77034e-06 3.8061e-05 -0.000120572)
(2.49567e-05 3.79709e-05 -0.000118701)
(2.73071e-05 3.74139e-05 -0.000103145)
(4.08655e-05 3.72442e-05 -9.96598e-05)
(3.64298e-05 3.64217e-05 -7.47181e-05)
(4.26761e-06 4.2483e-06 -0.000207169)
(3.73975e-05 4.20245e-06 -0.000203972)
(4.0862e-05 3.99576e-06 -0.000180123)
(6.06874e-05 3.9266e-06 -0.000173607)
(5.40313e-05 3.73031e-06 -0.000134542)
(4.22161e-06 3.73784e-05 -0.000203977)
(3.71478e-05 3.71287e-05 -0.000200615)
(4.05858e-05 3.61713e-05 -0.000176702)
(6.04205e-05 3.57936e-05 -0.000170278)
(5.38284e-05 3.45835e-05 -0.000131498)
(4.01504e-06 4.08463e-05 -0.000180132)
(3.61905e-05 4.05702e-05 -0.000176705)
(3.95268e-05 3.95111e-05 -0.00015277)
(5.90993e-05 3.91238e-05 -0.000146607)
(5.27877e-05 3.77878e-05 -0.000108832)
(3.94579e-06 6.0672e-05 -0.000173618)
(3.58127e-05 6.04051e-05 -0.000170283)
(3.91394e-05 5.90838e-05 -0.00014661)
(5.86968e-05 5.86814e-05 -0.000140681)
(5.24548e-05 5.6607e-05 -0.000103294)
(3.74965e-06 5.40215e-05 -0.000134556)
(3.46026e-05 5.38187e-05 -0.000131507)
(3.78034e-05 5.27779e-05 -0.000108838)
(5.66224e-05 5.24451e-05 -0.000103297)
(5.06579e-05 5.06482e-05 -6.72283e-05)
(6.17881e-06 6.1558e-06 -0.000245818)
(5.33318e-05 6.31635e-06 -0.000240625)
(5.91811e-05 6.31732e-06 -0.000205891)
(8.84133e-05 6.19054e-06 -0.000197029)
(7.79042e-05 5.81169e-06 -0.000143192)
(6.33901e-06 5.33076e-05 -0.000240632)
(5.34996e-05 5.34758e-05 -0.000235647)
(5.90587e-05 5.3068e-05 -0.000201341)
(8.79127e-05 5.25718e-05 -0.00019259)
(7.7522e-05 5.06509e-05 -0.000139188)
(6.34036e-06 5.91621e-05 -0.000205901)
(5.30922e-05 5.904e-05 -0.000201343)
(5.82771e-05 5.82583e-05 -0.00016947)
(8.59957e-05 5.7599e-05 -0.000161158)
(7.59371e-05 5.54983e-05 -0.000108607)
(6.21345e-06 8.83943e-05 -0.000197042)
(5.25959e-05 8.78939e-05 -0.000192596)
(5.76177e-05 8.59768e-05 -0.000161161)
(8.51522e-05 8.51333e-05 -0.000153106)
(7.53678e-05 8.24615e-05 -0.000101231)
(5.83457e-06 7.78925e-05 -0.000143209)
(5.06752e-05 7.75105e-05 -0.000139199)
(5.5517e-05 7.59256e-05 -0.000108615)
(8.24804e-05 7.53564e-05 -0.000101234)
(7.31942e-05 7.31827e-05 -5.16909e-05)
(9.50554e-06 9.4768e-06 -0.000336997)
(7.73239e-05 9.22586e-06 -0.000328173)
(8.44579e-05 8.58981e-06 -0.000277431)
(0.000123395 8.40868e-06 -0.000262757)
(0.000108993 7.77741e-06 -0.00018433)
(9.25448e-06 7.72951e-05 -0.000328186)
(7.64397e-05 7.64108e-05 -0.000319854)
(8.36436e-05 7.25928e-05 -0.000269812)
(0.000122581 7.16649e-05 -0.000255447)
(0.000108343 6.91685e-05 -0.000177896)
(8.61838e-06 8.44362e-05 -0.000277446)
(7.26217e-05 8.36217e-05 -0.000269814)
(7.9712e-05 7.96902e-05 -0.000221974)
(0.00011997 7.86077e-05 -0.000208527)
(0.000106406 7.57453e-05 -0.000133514)
(8.43704e-06 0.000123372 -0.000262777)
(7.16938e-05 0.000122559 -0.000255454)
(7.86296e-05 0.000119948 -0.000208533)
(0.000118636 0.000118613 -0.000195718)
(0.000105377 0.000113531 -0.000121368)
(7.80631e-06 0.000108979 -0.000184353)
(6.91975e-05 0.000108329 -0.000177907)
(7.57674e-05 0.000106392 -0.000133524)
(0.000113553 0.000105363 -0.000121373)
(0.000101175 0.000101162 -5.0622e-05)
(1.5046e-05 1.50123e-05 -0.000400704)
(0.000112897 1.46843e-05 -0.000387609)
(0.000124597 1.39775e-05 -0.000313722)
(0.000181528 1.35408e-05 -0.00029036)
(0.000157964 1.22768e-05 -0.000171685)
(1.47173e-05 0.000112858 -0.000387626)
(0.000111874 0.000111836 -0.000374831)
(0.000123466 0.000108526 -0.000302129)
(0.000179841 0.000106802 -0.000279404)
(0.000156687 0.000101466 -0.000162573)
(1.40105e-05 0.000124571 -0.00031374)
(0.000108565 0.00012344 -0.000302131)
(0.000119563 0.000119537 -0.000232578)
(0.000174467 0.000117328 -0.000211911)
(0.0001525 0.000112025 -0.000104323)
(1.35736e-05 0.000181501 -0.000290385)
(0.00010684 0.000179813 -0.000279412)
(0.000117354 0.000174439 -0.000211918)
(0.000172328 0.0001723 -0.000192287)
(0.000151235 0.000165365 -8.8574e-05)
(1.23088e-05 0.00015795 -0.000171715)
(0.000101504 0.000156671 -0.000162587)
(0.000112051 0.000152485 -0.000104334)
(0.000165393 0.00015122 -8.85788e-05)
(0.000145365 0.000145349 9.25543e-06)
(2.27048e-05 2.26637e-05 -0.000620881)
(0.000164306 2.21096e-05 -0.00059768)
(0.000181706 2.02916e-05 -0.000492936)
(0.000265451 1.94704e-05 -0.000454763)
(0.000230095 1.69956e-05 -0.00028952)
(2.21506e-05 0.000164259 -0.000597706)
(0.000161937 0.000161889 -0.000575677)
(0.00017907 0.000153737 -0.000472964)
(0.000262156 0.000150114 -0.000436347)
(0.000227556 0.000136531 -0.000273466)
(2.03332e-05 0.000181676 -0.000492962)
(0.000153784 0.00017904 -0.000472964)
(0.000169931 0.0001699 -0.000376687)
(0.000248243 0.000165724 -0.00034283)
(0.000216231 0.000149744 -0.000188911)
(1.95121e-05 0.000265417 -0.000454798)
(0.000150161 0.000262121 -0.000436358)
(0.000165754 0.000248209 -0.000342839)
(0.000241997 0.000241963 -0.000310871)
(0.000211256 0.000227124 -0.000161215)
(1.70386e-05 0.000230076 -0.000289562)
(0.000136579 0.000227537 -0.000273483)
(0.000149775 0.000216213 -0.000188927)
(0.000227158 0.000211237 -0.000161222)
(0.000200995 0.000200977 -2.26118e-05)
(3.83762e-05 3.83277e-05 -0.000726078)
(0.000240842 3.68297e-05 -0.000689684)
(0.000267514 3.40736e-05 -0.000535957)
(0.000384972 3.20808e-05 -0.000476677)
(0.000326739 2.84402e-05 -0.000236833)
(3.68773e-05 0.000240777 -0.000689712)
(0.000236617 0.000236552 -0.000654959)
(0.000262795 0.000224775 -0.000505568)
(0.000379367 0.000218735 -0.000448704)
(0.000323033 0.000202076 -0.000215225)
(3.41209e-05 0.000267478 -0.000535986)
(0.00022484 0.000262759 -0.00050557)
(0.000249697 0.000249661 -0.000365402)
(0.000362269 0.000242803 -0.000315103)
(0.000309682 0.000224276 -9.45416e-05)
(3.21278e-05 0.000384929 -0.000476717)
(0.000218799 0.000379323 -0.000448717)
(0.00024284 0.000362225 -0.000315114)
(0.000353978 0.000353933 -0.000268446)
(0.000304044 0.000331687 -5.79998e-05)
(2.84872e-05 0.000326718 -0.000236879)
(0.000202139 0.000323011 -0.000215246)
(0.000224312 0.000309659 -9.45603e-05)
(0.000331732 0.000304022 -5.8007e-05)
(0.000286855 0.000286833 0.000124289)
(5.93579e-05 5.92983e-05 -0.00124494)
(0.000354427 5.70994e-05 -0.00117329)
(0.00039471 5.09593e-05 -0.000950356)
(0.000564618 4.77211e-05 -0.000841327)
(0.000475095 3.88925e-05 -0.000500101)
(5.71592e-05 0.000354351 -0.00117333)
(0.000346081 0.000346003 -0.00110802)
(0.000385323 0.000324291 -0.000892596)
(0.000552541 0.000311687 -0.000791269)
(0.000466068 0.000278822 -0.000459665)
(5.1019e-05 0.000394668 -0.000950389)
(0.000324368 0.000385279 -0.000892598)
(0.000360395 0.000360352 -0.000693694)
(0.000519142 0.00034598 -0.000602864)
(0.000441502 0.000306967 -0.000295638)
(4.77806e-05 0.000564566 -0.000841374)
(0.000311763 0.000552487 -0.000791287)
(0.000346024 0.00051909 -0.000602878)
(0.000499148 0.000499095 -0.000522207)
(0.000426182 0.000445988 -0.000227799)
(3.89517e-05 0.00047507 -0.000500155)
(0.000278897 0.000466042 -0.000459691)
(0.000307012 0.000441476 -0.00029566)
(0.00044604 0.000426156 -0.000227808)
(0.000387232 0.000387207 3.69834e-05)
(0.000110301 0.000110223 -0.00144868)
(0.000535432 0.000102402 -0.00133721)
(0.00059948 9.20913e-05 -0.00100822)
(0.000835295 8.24089e-05 -0.000843013)
(0.000675514 6.90987e-05 -0.000347787)
(0.000102478 0.000535335 -0.00133725)
(0.00051735 0.000517249 -0.00123392)
(0.000579547 0.00048144 -0.000922781)
(0.000812362 0.000457199 -0.000767977)
(0.000661967 0.000406541 -0.000294518)
(9.21697e-05 0.000599429 -0.00100827)
(0.000481537 0.000579492 -0.000922785)
(0.000539431 0.000539377 -0.000635854)
(0.000760386 0.000511864 -0.000503996)
(0.000623706 0.000456141 -6.7384e-05)
(8.24864e-05 0.000835229 -0.000843074)
(0.000457297 0.000812295 -0.000767999)
(0.000511918 0.000760319 -0.000504013)
(0.000729113 0.000729045 -0.000386226)
(0.000604916 0.000664357 1.96223e-05)
(6.9176e-05 0.000675486 -0.000347858)
(0.000406637 0.000661936 -0.000294551)
(0.000456194 0.000623676 -6.74125e-05)
(0.000664424 0.000604885 1.96119e-05)
(0.000557379 0.000557347 0.000360904)
(0.000171304 0.000171214 -0.00267007)
(0.000794891 0.000160862 -0.0024261)
(0.000888893 0.000136947 -0.00193898)
(0.00122515 0.000123321 -0.00160968)
(0.000981348 9.27994e-05 -0.000899958)
(0.000160952 0.000794771 -0.00242614)
(0.000760549 0.000760427 -0.00221732)
(0.000851258 0.000696658 -0.00175953)
(0.00118089 0.000650704 -0.00146644)
(0.000950119 0.000559222 -0.000789647)
(0.000137037 0.00088883 -0.00193903)
(0.000696778 0.000851192 -0.00175954)
(0.000779173 0.000779107 -0.001345)
(0.00108769 0.000727721 -0.00108844)
(0.000887871 0.000621099 -0.00047305)
(0.00012341 0.00122507 -0.00160976)
(0.000650823 0.00118081 -0.00146647)
(0.000727787 0.00108761 -0.00108846)
(0.00102286 0.00102278 -0.000874407)
(0.00084111 0.000874344 -0.000299642)
(9.28868e-05 0.000981313 -0.000900046)
(0.00055934 0.000950082 -0.000789692)
(0.000621166 0.000887834 -0.000473086)
(0.000874425 0.000841073 -0.000299657)
(0.000736268 0.000736232 0.000191573)
(0.000354637 0.000354508 -0.00318742)
(0.00126653 0.000311643 -0.00280126)
(0.00141589 0.000271935 -0.00205729)
(0.00187447 0.000226123 -0.00156351)
(0.00140187 0.000179798 -0.000528017)
(0.00031177 0.00126638 -0.00280132)
(0.00118397 0.00118382 -0.00245876)
(0.00133042 0.00107543 -0.00179401)
(0.0017824 0.000978445 -0.00134753)
(0.00135457 0.000833461 -0.000393225)
(0.000272062 0.00141581 -0.00205735)
(0.00107558 0.00133034 -0.00179402)
(0.00121052 0.00121044 -0.00118901)
(0.00163247 0.00110389 -0.000827598)
(0.00125339 0.000946143 4.10999e-05)
(0.000226249 0.00187437 -0.0015636)
(0.000978596 0.00178229 -0.00134757)
(0.00110397 0.00163237 -0.000827624)
(0.00151806 0.00151795 -0.000523064)
(0.00119298 0.00132908 0.000245492)
(0.000179922 0.00140183 -0.000528126)
(0.000833608 0.00135452 -0.000393279)
(0.000946226 0.00125335 4.1056e-05)
(0.00132918 0.00119293 0.000245473)
(0.00105971 0.00105966 0.00087445)
(0.000558072 0.00055793 -0.00615388)
(0.00192504 0.000503983 -0.00523644)
(0.00212661 0.000401051 -0.00411823)
(0.00275465 0.000340233 -0.00308016)
(0.00204121 0.00022877 -0.00160704)
(0.000504126 0.00192486 -0.00523649)
(0.00176786 0.00176768 -0.00452351)
(0.00196245 0.00156494 -0.00352836)
(0.0025819 0.00138661 -0.00266149)
(0.00192708 0.00112832 -0.00130295)
(0.000401192 0.00212651 -0.00411831)
(0.00156513 0.00196235 -0.00352838)
(0.00174555 0.00174545 -0.00264962)
(0.00231798 0.00155216 -0.00191351)
(0.00177689 0.00125978 -0.000702523)
(0.000340372 0.00275453 -0.00308027)
(0.0013868 0.00258177 -0.00266154)
(0.00155226 0.00231785 -0.00191354)
(0.00209614 0.00209601 -0.00134865)
(0.00162774 0.00170784 -0.000264641)
(0.000228904 0.00204116 -0.00160718)
(0.00112851 0.00192702 -0.00130303)
(0.00125988 0.00177683 -0.00070258)
(0.00170797 0.00162769 -0.000264667)
(0.00137999 0.00137993 0.000602602)
(0.00127206 0.00127185 -0.00788572)
(0.00330226 0.00102493 -0.00635394)
(0.00357219 0.00086216 -0.00450561)
(0.00438604 0.000645439 -0.00294736)
(0.00291225 0.000484512 -0.000757359)
(0.00102513 0.00330203 -0.00635402)
(0.00289215 0.00289192 -0.00508619)
(0.00319244 0.00254408 -0.0036257)
(0.00400816 0.00214511 -0.00229062)
(0.00274732 0.00173803 -0.000413419)
(0.000862364 0.00357205 -0.00450571)
(0.00254431 0.00319231 -0.00362572)
(0.0028254 0.00282526 -0.00230136)
(0.00357989 0.00241669 -0.00129121)
(0.0024945 0.00198445 0.000410764)
(0.000645641 0.00438589 -0.0029475)
(0.00214534 0.004008 -0.00229068)
(0.00241682 0.00357973 -0.00129124)
(0.0031672 0.00316704 -0.000501823)
(0.00230355 0.00263437 0.000866698)
(0.000484712 0.00291218 -0.000757528)
(0.00173826 0.00274725 -0.000413509)
(0.00198459 0.00249442 0.000410695)
(0.00263453 0.00230347 0.000866667)
(0.00194767 0.0019476 0.0020071)
(0.00209052 0.00209029 -0.0155811)
(0.00530518 0.001772 -0.0117852)
(0.00553308 0.00128185 -0.00896251)
(0.00650352 0.000998161 -0.0056544)
(0.00428566 0.000574519 -0.00265012)
(0.00177223 0.00530489 -0.0117853)
(0.00449616 0.00449587 -0.0092297)
(0.0047579 0.00376919 -0.00697074)
(0.00579467 0.00304276 -0.00444941)
(0.00385217 0.00229636 -0.00183174)
(0.00128207 0.00553292 -0.00896262)
(0.00376947 0.00475774 -0.00697078)
(0.00407993 0.00407977 -0.00506652)
(0.0050305 0.00334087 -0.00301369)
(0.00352058 0.00253979 -0.000719065)
(0.000998382 0.00650333 -0.00565455)
(0.00304305 0.00579448 -0.00444949)
(0.00334102 0.00503031 -0.00301372)
(0.00425442 0.00425422 -0.00160546)
(0.0030306 0.0033045 0.000270403)
(0.000574729 0.00428557 -0.00265032)
(0.00229664 0.00385208 -0.00183186)
(0.00253995 0.00352049 -0.000719148)
(0.00330469 0.00303052 0.000270361)
(0.00254737 0.00254729 0.00170549)
(0.00506567 0.00506532 -0.0227956)
(0.00992142 0.00357913 -0.0157827)
(0.00970364 0.00285323 -0.010463)
(0.0106994 0.00185079 -0.00536789)
(0.00599907 0.00130368 -0.000758778)
(0.00357945 0.00992108 -0.0157828)
(0.00770694 0.00770662 -0.0105709)
(0.007973 0.00644027 -0.00730944)
(0.00914797 0.00478585 -0.00331527)
(0.00543698 0.00366926 0.000131136)
(0.00285356 0.00970341 -0.0104631)
(0.0064406 0.00797279 -0.0073095)
(0.00678264 0.00678243 -0.00430545)
(0.007928 0.00526057 -0.0015233)
(0.00485029 0.00408662 0.00160131)
(0.00185111 0.0106991 -0.00536808)
(0.00478619 0.00914774 -0.00331536)
(0.00526078 0.00792776 -0.00152335)
(0.00645175 0.00645151 0.000433344)
(0.0042288 0.00505916 0.00261734)
(0.00130399 0.00599895 -0.000759036)
(0.00366959 0.00543687 0.000130983)
(0.00408683 0.00485017 0.0016012)
(0.0050594 0.00422869 0.00261729)
(0.00341894 0.00341883 0.00443194)
(0.00911272 0.00911235 -0.0450619)
(0.0176357 0.00698387 -0.0276578)
(0.015948 0.00443589 -0.0191881)
(0.0162083 0.00305167 -0.00909738)
(0.00901668 0.00146635 -0.00329791)
(0.00698424 0.0176353 -0.0276577)
(0.0129684 0.012968 -0.018225)
(0.0120135 0.00992609 -0.0126616)
(0.0132359 0.0068872 -0.00588761)
(0.00739536 0.00465624 -0.00126516)
(0.00443627 0.0159477 -0.0191882)
(0.00992652 0.0120132 -0.0126617)
(0.00986571 0.00986545 -0.00848079)
(0.0109379 0.00708929 -0.00330937)
(0.00672625 0.00502587 0.000498144)
(0.00305202 0.016208 -0.00909755)
(0.00688762 0.0132356 -0.00588772)
(0.00708954 0.0109376 -0.00330941)
(0.00839579 0.0083955 -0.000226465)
(0.00527421 0.00613576 0.00249822)
(0.00146669 0.00901652 -0.00329818)
(0.00465667 0.00739521 -0.00126535)
(0.00502612 0.0067261 0.000498022)
(0.00613607 0.00527407 0.00249815)
(0.0044065 0.00440636 0.00446195)
(0.02248 0.0224794 -0.0791532)
(0.0357994 0.013009 -0.0430536)
(0.0282695 0.00937667 -0.0243458)
(0.0265928 0.00506004 -0.00796222)
(0.0119778 0.00333744 0.000996523)
(0.0130095 0.0357989 -0.0430534)
(0.0227007 0.0227003 -0.0197734)
(0.0203136 0.017148 -0.0129489)
(0.0205465 0.0105742 -0.00200681)
(0.0102019 0.00746505 0.00311706)
(0.00937721 0.0282691 -0.024346)
(0.0171485 0.0203133 -0.0129491)
(0.0161366 0.0161362 -0.00621289)
(0.0169081 0.010922 0.000598974)
(0.0087693 0.00784994 0.00545471)
(0.00506053 0.0265924 -0.00796245)
(0.0105747 0.0205462 -0.00200695)
(0.0109224 0.0169078 0.000598916)
(0.0122599 0.0122595 0.00464596)
(0.00703393 0.00902314 0.00726238)
(0.00333792 0.0119775 0.000996166)
(0.00746554 0.0102017 0.00311682)
(0.00785027 0.0087691 0.00545454)
(0.0090235 0.00703375 0.00726229)
(0.00543693 0.00543675 0.00945224)
(0.0455198 0.0455191 -0.157939)
(0.0723705 0.0303123 -0.0667844)
(0.0510389 0.0158399 -0.0351114)
(0.0415432 0.00900785 -0.00884232)
(0.0182361 0.00358838 0.000426168)
(0.0303129 0.07237 -0.0667839)
(0.0430526 0.0430522 -0.03209)
(0.029779 0.0280479 -0.0168672)
(0.0292992 0.015446 -0.00214855)
(0.0126891 0.00911494 0.00405839)
(0.0158406 0.0510383 -0.0351115)
(0.0280485 0.0297786 -0.0168674)
(0.0234123 0.0234119 -0.00795371)
(0.0226056 0.0137422 0.00171628)
(0.0117183 0.00917148 0.0063437)
(0.00900841 0.0415427 -0.00884244)
(0.0154466 0.0292988 -0.0021487)
(0.0137426 0.0226052 0.00171623)
(0.0150603 0.0150599 0.00646005)
(0.00797626 0.010134 0.00913053)
(0.00358892 0.0182358 0.000425868)
(0.00911556 0.0126889 0.00405814)
(0.00917189 0.011718 0.00634354)
(0.0101344 0.00797602 0.00913044)
(0.00665361 0.00665338 0.0108328)
(0.119804 0.119802 -0.32886)
(0.160019 0.0482912 -0.126606)
(0.0861871 0.0276619 -0.0420224)
(0.0621318 0.0117587 0.00111393)
(0.0215851 0.0069694 0.0115318)
(0.0482925 0.160019 -0.126604)
(0.0726003 0.0726003 -0.0160085)
(0.0502768 0.0442977 -0.00809145)
(0.0414746 0.0211288 0.011803)
(0.0166404 0.0133819 0.0150732)
(0.0276628 0.0861861 -0.0420217)
(0.0442982 0.0502763 -0.00809159)
(0.0347289 0.0347284 0.00306935)
(0.0312073 0.0195336 0.0132421)
(0.0135568 0.0129231 0.0166245)
(0.0117594 0.0621311 0.00111394)
(0.0211293 0.0414742 0.0118028)
(0.0195341 0.0312067 0.0132421)
(0.0196757 0.0196752 0.0174722)
(0.00980358 0.0135134 0.0180932)
(0.0069701 0.0215847 0.0115314)
(0.0133825 0.0166401 0.0150728)
(0.0129236 0.0135565 0.0166242)
(0.013514 0.0098033 0.0180931)
(0.00719471 0.00719443 0.0185035)
(0.357713 0.357742 -0.946385)
(0.451424 0.132362 -0.229717)
(0.150268 0.0502658 -0.00545888)
(0.0949763 0.0197388 0.0221807)
(0.0290824 0.00712755 0.0213067)
(0.13236 0.45139 -0.229685)
(0.159433 0.159431 -0.0333801)
(0.0572857 0.0730689 0.00926809)
(0.0524539 0.0275528 0.023232)
(0.0161495 0.014204 0.0224176)
(0.0502669 0.150266 -0.00545946)
(0.0730689 0.0572852 0.00926794)
(0.0447445 0.0447439 0.0191934)
(0.036155 0.0194089 0.0233532)
(0.0152359 0.0121906 0.0232491)
(0.0197396 0.0949747 0.0221803)
(0.0275534 0.0524533 0.0232318)
(0.0194095 0.0361543 0.0233531)
(0.0199084 0.0199077 0.0246097)
(0.00865355 0.0120116 0.0233263)
(0.00712842 0.0290816 0.0213063)
(0.0142048 0.016149 0.0224172)
(0.0121912 0.0152354 0.0232489)
(0.0120124 0.00865318 0.0233261)
(0.00708776 0.00708739 0.0225073)
(0.0655321 0.0655179 -4.90252)
(1.2573 0.206657 0.0155967)
(0.117571 0.042722 0.161831)
(0.0861898 0.0128356 0.0762984)
(0.0208864 0.0080899 0.0557018)
(0.206654 1.25735 0.0155381)
(0.244043 0.244042 0.152578)
(0.0710688 0.0674327 0.100627)
(0.0542984 0.0222425 0.055324)
(0.0159783 0.0153337 0.0478501)
(0.0427238 0.117571 0.161829)
(0.0674338 0.0710681 0.100626)
(0.0484634 0.0484626 0.0744875)
(0.0352325 0.0209025 0.0516549)
(0.0135113 0.0138372 0.0409302)
(0.0128368 0.0861893 0.076298)
(0.0222434 0.0542978 0.0553238)
(0.0209032 0.0352317 0.0516549)
(0.0196451 0.0196444 0.0405971)
(0.00853422 0.012772 0.0361635)
(0.00809096 0.0208858 0.0557009)
(0.0153346 0.0159779 0.0478497)
(0.0138379 0.0135109 0.0409298)
(0.0127728 0.0085338 0.0361634)
(0.00636089 0.00636047 0.0306124)
(0.00154888 0.00154447 -4.89587)
(-0.3714 -0.0445164 -0.0247473)
(-0.0213023 -0.0127381 0.165141)
(-0.0115829 -0.00116635 0.0811947)
(0.0080369 -0.000739848 0.0621782)
(-0.0445118 -0.371397 -0.0247407)
(-0.0714431 -0.071445 0.394288)
(0.00676398 -0.0150616 0.110372)
(0.000204935 0.00310938 0.0689662)
(0.00851084 -0.000556238 0.05269)
(-0.0127363 -0.0213031 0.165141)
(-0.0150597 0.00676302 0.110372)