/*--------------------------------*- C++ -*----------------------------------*\
| =========                 |                                                 |
| \\      /  F ield         | OpenFOAM: The Open Source CFD Toolbox           |
|  \\    /   O peration     | Version:  5.x                                   |
|   \\  /    A nd           | Web:      www.OpenFOAM.org                      |
|    \\/     M anipulation  |                                                 |
\*---------------------------------------------------------------------------*/
FoamFile
{
    version     2.0;
    format      ascii;
    class       volScalarField;
    location    "0.048";
    object      interFace;
}
// * * * * * * * * * * * * * * * * * * * * * * * * * * * * * * * * * * * * * //

dimensions      [0 0 0 0 0 0 0];

internalField   nonuniform List<scalar> 
1609
(
0
0
0
0
0
0
0
0
0
0
0
0
0
0
0
0
0
0
0
0
0
0
0
0
0
0
0
0
0
0
0
0
0
0
0
0
0
0
0
0
0
0
0
0
0
0
0
0
0
0
0
0
0
0
0
0
0
0
0
0
0
0
0
0
0
0
0
0
0
0
0
0
0
0
0
0
0
0
0
0
0
0
0
0
0
0
0
0
0
0
0
0
0
0
0
0
0
0
0
0
0
0
0
0
0
0
0
0
0
0
0
0
0
0
0
0
0
0
0
0
0
0
0
0
0
0
0
0
0
0
0
0
0
0
0
0
0
0
0
0
0
0
0
0
0
0
0
0
0
0
0
0
0
0
0
0
0
0
0
0
0
0
0
0
0
0
0
0
0
0
0
0
0
0
0
0
0
0
0
0
0
0
0
0
0
0
0
0
0
0
0
0
0
0
0
0
0
0
0
0
0
0
0
0
0
0
0
0
0
0
0
0
0
0
0
0
0
0
0
0
0
0
0
0
0
0
0
0
0
0
0
0
0
0
0
0
0
0
0
0
0
0
0
0
0
0
0
0
0
0
0
0
0
0
0
0
0
0
0
0
0
0
0
0
0
0
0
0
0
0
0
0
0
0
0
0
0
0
0
0
0
0
0
0
0
0
0
0
0
0
0
0
0
0
0
0
0
0
0
0
0
0
0
0
0
0
0
0
0
0
0
0
0
0
0
0
0
0
0
0
0
0
0
0
0
0
0
0
0
0
0
0
0
0
0
0
0
0
0
0
0
0
0
0
0
0
0
0
0
0
0
0
0
0
0
0
0
0
0
0
0
0
0
0
0
0
0
0
0
0
0
0
0
0
0
0
0
0
0
0
0
0
0
0
0
0
0
0
0
0
0
0
0
0
0
0
0
0
0
0
0
0
0
0
0
0
0
0
0
0
0
0
0
0
0
0
0
0
0
0
0
0
0
0
0
0
0
0
0
0
0
0
0
0
0
0
0
0
0
0
0
0
0
0
0
0
0
0
0
0
0
0
0
0
0
0
0
0
0
0
0
0
0
0
0
0
0
0
0
0
0
0
0
0
0
0
0
0
0
0
0
0
0
0
0
0
0
0
0
0
0
0
0
0
0
0
0
0
0
0
0
0
0
0
0
0
0
0
0
0
0
0
0
0
0
0
0
0
0
0
0
0
0
0
0
0
0
0
0
0
0
0
0
0
0
0
0
0
0
0
0
0
0
0
0
0
0
0
0
0
0
0
0
0
0
0
0
0
0
0
0
0
0
0
0
0
0
0
0
0
0
0
0
0
0
0
0
0
0
0
0
0
0
0
0
0
0
0
0
0
0
0
0
0
0
0
0
0
0
0
0
0
0
0
0
0
0
0
0
0
0
0
0
0
0
0
0
0
0
0
0
0
0
0
0
0
0
0
0
0
0
0
0
0
0
0
0
0
0
0
0
0
0
0
0
0
0
0
0
0
0
0
0
0
0
0
0
0
0
0
0
0
0
0
0
0
0
0
0
0
0
0
0
0
0
0
0
0
0
0
0
0
0
0
0
0
0
0
0
0
0
0
0
0
0
0
0
0
0
0
0
0
0
0
0.854589
0
0
0
0
0
0
0
0
0
0
0
0
0
0
0
0
0
0
0
0
0
0
0
0
0.35303
0
0
0
0
0.801311
0
0
0
0
0
0
0
0
0
0
0
0
0
0
0
0
0
0
0
0.38812
0
0
0
0
0.924843
0
0
0
0
0
0
0
0
0
0
0
0
0
0
0
0
0
0
0
0
0
0
0
0
0
0
0
0
0
0
0
0
0
0
0
0
0
0
0
0
0
0
0
0
0.533502
0
0
0
0
0.94565
0
0
0
0
0
0
0
0
0
0
0
0
0
0
0
0
0
0
0
0.289177
0
0
0
0
0.737451
0
0
0
0
0
0
0
0
0
0
0
0
0
0
0
0
0
0
0
0.761981
0
0
0
0
0
0
0
0
0
0
0
0
0
0
0
0
0
0
0
0
0
0
0
0
0
0
0
0
0
0
0
0
0
0
0
0
0
0
0
0
0
0
0
0
0
0
0
0
0
0
0
0
0
0
0
0
0
0
0
0
0
0
0
0
0
0
0
0
0
0
0
0
0
0
0
0
0
0
0
0
0
0
0
0
0
0
0
0
0
0
0
0
0
0
0
0
0
0
0
0
0
0
0
0
0
0
0
0
0
0
0
0
0
0
0
0
0
0
0
0
0
0
0
0
0
0
0
0
0
0
0
0
0
0
0
0
0
0
0
0
0
0
0
0
0
0.567384
0
0.92477
0
0
0
0
0.11925
0.657099
0.388229
0.885052
0.616183
0.89753
0.885162
0.56753
0
0
0
0
0
0
0
0
0
0.706634
0.437762
0.933316
0.706737
0.264629
0.802477
0.533604
0.283028
0.0141549
0.552002
0.28313
0.468443
0
0.737417
0
0.755815
0
0.98248
0.0203046
0.558152
0.289279
0.576549
0.307677
0.845524
0.576652
0.468579
0
0
0.982548
0.755951
0
0
0
0
0
0
0
0
0
0.493109
0.994813
0.762083
0
0
0
0
0
0
0
0
0
0
0
0.902627
0.627536
0.806819
0.992234
0.672374
0
0.857789
0.584983
0.674588
0.750609
0.929892
0.719427
0.795448
0.540144
0.49536
0.405718
0.660985
0.661022
0.705825
0.450521
0.450557
0.58502
0.674697
0.750682
0.929965
0.7195
0.795484
0.540217
0.346331
0.435938
0.442105
0.621387
0.480776
0.486942
0.301493
0.256707
0.167065
0.35248
0.352514
0.397318
0.211869
0.211903
0.346365
0.43604
0.442173
0.621455
0.480844
0.486976
0.301561
0.813002
0.537912
0.537946
0.723361
0.58275
0.768165
0.768199
0.902661
0.627605
0.806887
0.992336
0.672408
0
0.857857
0.0841605
0.62201
0.35314
0.312117
0.0432467
0.581096
0.312226
0.329716
0.164053
0.164089
0.240074
0.208892
0.284876
0.284913
0.419339
0.253676
0.432959
0.508943
0.298515
0.553783
0.3745
0.419375
0.253749
0.433032
0.509053
0.298552
0.553856
0.374573
0.435989
0.704913
0.711045
0.711079
0.570434
0.570468
0.576601
0.508999
0.522619
0.522655
0.777923
0.388175
0.643443
0.643479
0.160916
0.0651083
0.0651423
0.0712748
0.109946
0.116078
0.116112
0.25054
0.154732
0.334015
0.340147
0.19957
0.384985
0.205703
0.884127
0.615203
0.979901
0.800652
0.660041
0
0.839289
0.250574
0.154801
0.334083
0.34025
0.199604
0.385053
0.205771
0.884263
0.61534
0.800755
0.980071
0.660143
0
0.839459
0.0880495
0.088086
0.132889
0.101706
0.0120641
0.0568669
0.0569034
0.532295
0
0.801274
0
0.491381
0
0.760361
0.532441
0
0
0.760397
0.491527
0
0
0.957132
0.791469
0.612223
0.688208
0.836308
0.733047
0.912293
0.957278
0.612333
0.791652
0.688354
0.836455
0.733157
0.912475
0.177673
0.356956
0.222512
0.191329
0.280934
0.325773
0.14649
0.177746
0.357029
0.222549
0.191366
0.281044
0.325846
0.146563
0.340199
0.423673
0.423707
0.609122
0.289228
0.474643
0.474677
0.446616
0.446652
0.312172
0.280989
0.549914
0.415433
0.41547
0
0
0
0
0
0
0
0.142467
0.0528258
0.0589586
0.0589927
0.103796
0.0976295
0.0976635
0.712767
0
0.945582
0
0.462293
0
0.731268
0.712903
0
0
0.731302
0.462429
0
0
0.232091
0.321698
0.148583
0.327865
0.366536
0.193421
0.187254
0.232125
0.321801
0.148651
0.327933
0.366604
0.193455
0.187322
0.788336
0.692528
0.51328
0.519413
0.737366
0.56425
0.743499
0.788472
0.513382
0.692699
0.519549
0.737502
0.564353
0.743669
0.675343
0
0.854662
0.456309
0.18744
0.725289
0.456419
0.115344
0.128963
0.129
0.025702
0.173803
0.0705048
0.0705413
0.204967
0.218587
0.39787
0.294572
0.263426
0.339411
0.160128
0.205004
0.21866
0.397943
0.294682
0.263462
0.339484
0.160201
0.715466
0.53622
0.760305
0.460198
0.505038
0.729123
0.684283
0.53633
0.715649
0.760451
0.460345
0.505147
0.729269
0.684466
0.32175
0.590673
0.417524
0.417558
0.456194
0.456229
0.283079
0.294627
0.48753
0.487566
0.563551
0.353086
0.429071
0.429108
0.878097
0.603007
0.961571
0.788422
0.827126
0.653977
0
0.877995
0.602939
0.961503
0.788388
0.827024
0.653909
0
0.225959
0.309433
0.309467
0.136317
0.354271
0.181121
0.181155
0
0
0
0
0
0
0
0.62588
0.984445
0.849965
0.729178
0.594698
0.818782
0.953263
0.625953
0.984519
0.850075
0.729214
0.594771
0.818892
0.953336
0.500964
0.686379
0.507131
0.545802
0.731216
0.769887
0.72505
0.5011
0.507233
0.686549
0.545904
0.731353
0.770024
0.72522
0.315583
0.399057
0.57834
0.40519
0.443895
0.450028
0.270745
0.315617
0.399125
0.578408
0.405292
0.443929
0.450096
0.270813
0.232242
0.232279
0.277082
0.425181
0.335539
0.380342
0.380378
0
0
0
0
0.827278
0
0
0
0
0
0
0.827424
0
0
0.577134
0.473836
0.518676
0.742761
0.75638
0.801219
0.697921
0.577244
0.473982
0.518785
0.742907
0.756562
0.801365
0.698104
0.405241
0.667998
0.668032
0.674165
0.533553
0.539686
0.53972
0.321866
0.501149
0.366705
0.514804
0.604409
0.649248
0.469965
0.321939
0.501222
0.366741
0.514841
0.604519
0.649321
0.470038
0.590809
0.590845
0.456365
0.604464
0.873389
0.738908
0.738945
0
0
0
0
0
0
0
0.769939
0.596789
0.955354
0.63546
0.820875
0.859546
0.994024
0.769973
0.596857
0.955422
0.635528
0.820977
0.859648
0.994092
0.745356
0.655715
0.482565
0.482599
0.527403
0.700518
0.700552
0.666867
0.742852
0.608409
0.83253
0
0.890988
0.966974
0.666794
0.742816
0.608335
0.83242
0
0.890879
0.966901
0
0
0
0
0
0
0
0
0
0
0
0
0
0
0.83498
0.924587
0.57219
0.751472
0.969425
0.617027
0.790143
0.835014
0.92469
0.572258
0.75154
0.969493
0.617061
0.790211
0.936853
0.757605
0.584455
0.981691
0.629293
0.853379
0.808541
0.757707
0.937023
0.584591
0.981827
0.629395
0.853515
0.808711
)
;

boundaryField
{
    inlet
    {
        type            calculated;
        value           uniform 0;
    }
    wall
    {
        type            calculated;
        value           uniform 0;
    }
    outlet
    {
        type            calculated;
        value           uniform 0;
    }
    procBoundary2to0
    {
        type            processor;
        value           uniform 0;
    }
    procBoundary2to3
    {
        type            processor;
        value           uniform 0;
    }
}


// ************************************************************************* //
