/*--------------------------------*- C++ -*----------------------------------*\
| =========                 |                                                 |
| \\      /  F ield         | OpenFOAM: The Open Source CFD Toolbox           |
|  \\    /   O peration     | Version:  5.x                                   |
|   \\  /    A nd           | Web:      www.OpenFOAM.org                      |
|    \\/     M anipulation  |                                                 |
\*---------------------------------------------------------------------------*/
FoamFile
{
    version     2.0;
    format      ascii;
    class       volScalarField;
    location    "0.11";
    object      Ksl;
}
// * * * * * * * * * * * * * * * * * * * * * * * * * * * * * * * * * * * * * //

dimensions      [1 -3 -1 0 0 0 0];

internalField   nonuniform List<scalar> 
320
(
8.59431e-05
0.000544232
0.000370041
3.52685e-05
0.00222322
0.00881095
0.00645665
0.000562498
0.0454627
0.195111
0.149876
0.0118966
1.1162
2.5878
1.44607
0.236261
2.9858
3.16541
1.53153
1.27423
1.37986
1.29943
1.01151
0.124141
0.051107
0.0796501
0.0710904
0.00672057
0.00173934
0.000897741
0.000960196
0.00036924
2.16661e-05
1.17879e-05
1.34843e-05
2.61921e-06
0
-1.3842e-21
0
0
0
0
0
0
0
0
0
0
0
0
0
0
0
0
0
0
0
0
0
0
0
0
0
0
0
0
0
0
0
0
0
0
0
0
0
0
0
0
0
0
0.000544232
0.00158857
0.00110666
9.50377e-05
0.00881095
0.0613186
0.0468153
0.0040739
0.195111
4.71419
2.72313
0.15194
2.5878
3.33079
1.57219
1.88679
3.16541
3.19699
1.51206
1.50928
1.29943
5.04768
1.86399
1.06592
0.0796501
0.141274
0.142622
0.0986494
0.000897741
0.00178817
0.00169804
0.00349341
1.17879e-05
2.82548e-05
2.62599e-05
3.71402e-05
-1.3842e-21
5.68196e-07
4.15718e-07
0
0
0
0
0
0
0
0
0
0
0
0
0
0
0
0
0
0
0
0
0
0
0
0
0
0
0
0
0
0
0
0
0
0
0
0
0
0
0
0
0
0.000370041
0.00110666
0.000877895
7.32761e-05
0.00645665
0.0468153
0.0435996
0.00396188
0.149876
2.72313
1.92911
0.190751
1.44607
1.57219
1.04428
1.15573
1.53153
1.51206
1.01077
1.01713
1.01151
1.86399
1.16688
0.779222
0.0710904
0.142622
0.146758
0.0764344
0.000960196
0.00169804
0.00160688
0.0054031
1.34843e-05
2.62599e-05
2.47462e-05
3.36989e-05
0
4.15718e-07
2.84592e-07
0
0
0
0
0
0
0
0
0
0
0
0
0
0
0
0
0
0
0
0
0
0
0
0
0
0
0
0
0
0
0
0
0
0
0
0
0
0
0
0
0
3.52685e-05
9.50377e-05
7.32761e-05
0
0.000562498
0.0040739
0.00396188
0.000283366
0.0118966
0.15194
0.190751
0.0166318
0.236261
1.88679
1.15573
1.21147
1.27423
1.50928
1.01713
0.96706
0.124141
1.06592
0.779222
0.160831
0.00672057
0.0986494
0.0764344
0.0036235
0.00036924
0.00349341
0.0054031
7.90298e-05
2.61921e-06
3.71402e-05
3.36989e-05
0
0
0
0
0
0
0
0
0
0
0
0
0
0
0
0
0
0
0
0
0
0
0
0
0
0
0
0
0
0
0
0
0
0
0
0
0
0
0
0
0
0
0
0
0
)
;

boundaryField
{
    inlet
    {
        type            zeroGradient;
    }
    outlet
    {
        type            zeroGradient;
    }
    walls
    {
        type            zeroGradient;
    }
}


// ************************************************************************* //
