/*--------------------------------*- C++ -*----------------------------------*\
| =========                 |                                                 |
| \\      /  F ield         | OpenFOAM: The Open Source CFD Toolbox           |
|  \\    /   O peration     | Version:  5.x                                   |
|   \\  /    A nd           | Web:      www.OpenFOAM.org                      |
|    \\/     M anipulation  |                                                 |
\*---------------------------------------------------------------------------*/
FoamFile
{
    version     2.0;
    format      ascii;
    class       volVectorField;
    location    "0.09";
    object      U;
}
// * * * * * * * * * * * * * * * * * * * * * * * * * * * * * * * * * * * * * //

dimensions      [0 1 -1 0 0 0 0];

internalField   nonuniform List<vector> 
1553
(
(-8.49835e-05 -1.90511e-05 0.0518167)
(-9.59125e-05 -2.32381e-05 0.0517467)
(-6.89084e-05 -2.4576e-05 0.0517396)
(-6.71488e-05 -2.80911e-05 0.0517202)
(-3.678e-05 -2.96531e-05 0.0517255)
(-8.6468e-05 9.05501e-06 0.0518175)
(-9.77776e-05 5.64732e-06 0.0517465)
(-7.04577e-05 4.50698e-06 0.0517396)
(-6.87223e-05 1.37528e-06 0.0517203)
(-3.82467e-05 -1.09901e-07 0.0517261)
(-8.84408e-05 1.42196e-05 0.051824)
(-0.00010046 1.15134e-05 0.0517521)
(-7.31804e-05 1.05783e-05 0.0517452)
(-7.17657e-05 7.90424e-06 0.0517253)
(-4.14219e-05 6.59412e-06 0.0517312)
(-8.92099e-05 3.7612e-05 0.0518315)
(-0.000101419 3.52354e-05 0.0517594)
(-7.40668e-05 3.43259e-05 0.0517526)
(-7.27064e-05 3.18219e-05 0.0517328)
(-4.2347e-05 3.04687e-05 0.051739)
(-9.08397e-05 3.79049e-05 0.051871)
(-0.000103746 3.6275e-05 0.0517981)
(-7.65939e-05 3.55559e-05 0.051791)
(-7.56228e-05 3.37189e-05 0.0517701)
(-4.55475e-05 3.26031e-05 0.0517757)
(-3.68585e-06 -1.98662e-05 -0.0305436)
(-9.95045e-06 -1.94685e-05 -0.0305315)
(-2.1811e-05 -1.9884e-05 -0.0305314)
(-2.7491e-05 -2.06683e-05 -0.0305295)
(-2.57194e-05 -2.16875e-05 -0.0305318)
(-3.55662e-06 -1.40838e-05 -0.0305446)
(-1.00521e-05 -1.4209e-05 -0.0305322)
(-2.24224e-05 -1.47702e-05 -0.0305322)
(-2.83664e-05 -1.57848e-05 -0.0305303)
(-2.68382e-05 -1.6884e-05 -0.0305327)
(-3.79738e-06 -1.13505e-05 -0.0305445)
(-1.06358e-05 -1.17379e-05 -0.0305321)
(-2.33867e-05 -1.22825e-05 -0.0305321)
(-2.96048e-05 -1.3252e-05 -0.0305303)
(-2.83514e-05 -1.42204e-05 -0.0305328)
(-3.93839e-06 -1.46626e-05 -0.0305458)
(-1.09833e-05 -1.51293e-05 -0.0305333)
(-2.39364e-05 -1.56013e-05 -0.0305334)
(-3.03043e-05 -1.65078e-05 -0.0305317)
(-2.91627e-05 -1.73135e-05 -0.0305344)
(-4.26369e-06 -8.75809e-06 -0.0305514)
(-1.15742e-05 -9.08325e-06 -0.0305391)
(-2.47652e-05 -9.35192e-06 -0.0305391)
(-3.13169e-05 -9.9207e-06 -0.0305374)
(-3.03632e-05 -1.03771e-05 -0.03054)
(-7.38864e-05 -1.99641e-05 0.0403751)
(-8.5214e-05 -2.37191e-05 0.0403265)
(-6.83669e-05 -2.50941e-05 0.0403205)
(-6.89623e-05 -2.88044e-05 0.0402923)
(-3.95941e-05 -3.06786e-05 0.0402899)
(-7.51411e-05 8.57124e-06 0.0403767)
(-8.68825e-05 5.4664e-06 0.0403274)
(-7.00322e-05 4.24246e-06 0.0403213)
(-7.07807e-05 9.44255e-07 0.0402927)
(-4.14339e-05 -8.21372e-07 0.0402903)
(-7.70357e-05 1.3482e-05 0.0403915)
(-8.95424e-05 1.08934e-05 0.0403414)
(-7.2889e-05 9.84569e-06 0.0403351)
(-7.40262e-05 7.0085e-06 0.0403056)
(-4.48912e-05 5.44998e-06 0.0403028)
(-7.77625e-05 3.11154e-05 0.0403955)
(-9.05185e-05 2.89315e-05 0.0403452)
(-7.39172e-05 2.79786e-05 0.0403389)
(-7.51764e-05 2.54416e-05 0.0403092)
(-4.61113e-05 2.39652e-05 0.0403064)
(-7.92384e-05 3.26603e-05 0.0404261)
(-9.2679e-05 3.11842e-05 0.0403755)
(-7.63788e-05 3.04816e-05 0.040369)
(-7.80394e-05 2.86945e-05 0.0403385)
(-4.93636e-05 2.75821e-05 0.0403353)
(-5.39381e-05 -2.1814e-05 -0.0196213)
(-6.43762e-05 -2.34463e-05 -0.0196453)
(-5.5829e-05 -2.43017e-05 -0.0196502)
(-5.80022e-05 -2.65977e-05 -0.0196689)
(-3.59168e-05 -2.80599e-05 -0.0196735)
(-5.45354e-05 2.28063e-06 -0.0196212)
(-6.52609e-05 6.20117e-07 -0.0196454)
(-5.69444e-05 -2.47653e-07 -0.0196504)
(-5.93289e-05 -2.54689e-06 -0.0196695)
(-3.74586e-05 -4.0166e-06 -0.0196742)
(-5.56016e-05 7.48738e-06 -0.0196088)
(-6.69036e-05 6.00941e-06 -0.0196334)
(-5.8996e-05 5.22523e-06 -0.0196386)
(-6.17711e-05 3.1821e-06 -0.0196582)
(-4.0313e-05 1.86439e-06 -0.0196633)
(-5.60142e-05 2.01719e-05 -0.0196067)
(-6.75222e-05 1.88689e-05 -0.0196315)
(-5.97717e-05 1.81605e-05 -0.0196367)
(-6.26898e-05 1.62811e-05 -0.0196565)
(-4.13844e-05 1.50547e-05 -0.0196617)
(-5.69001e-05 2.33926e-05 -0.0195874)
(-6.89147e-05 2.25069e-05 -0.0196125)
(-6.1584e-05 2.20021e-05 -0.0196179)
(-6.4877e-05 2.06826e-05 -0.0196381)
(-4.40505e-05 1.97941e-05 -0.0196436)
(-9.93664e-05 -2.16079e-05 0.0311796)
(-0.000114418 -2.61331e-05 0.0311186)
(-9.2121e-05 -2.78375e-05 0.0311091)
(-9.23542e-05 -3.26905e-05 0.0310671)
(-4.89802e-05 -3.51581e-05 0.0310601)
(-0.000100815 2.11223e-05 0.0311815)
(-0.000116371 1.75266e-05 0.0311199)
(-9.42323e-05 1.60193e-05 0.0311102)
(-9.46806e-05 1.17803e-05 0.0310675)
(-5.14308e-05 9.46174e-06 0.0310604)
(-0.000103002 2.79789e-05 0.0312079)
(-0.000119521 2.49969e-05 0.0311454)
(-9.78673e-05 2.37036e-05 0.0311354)
(-9.89118e-05 2.00699e-05 0.0310916)
(-5.63062e-05 1.79911e-05 0.0310838)
(-0.000103821 5.23518e-05 0.0312132)
(-0.000120646 5.00039e-05 0.0311506)
(-9.91594e-05 4.88772e-05 0.0311405)
(-0.000100393 4.57361e-05 0.0310963)
(-5.79595e-05 4.38163e-05 0.0310884)
(-0.000105351 5.29214e-05 0.0312572)
(-0.000122995 5.13912e-05 0.0311944)
(-0.000102135 5.05706e-05 0.0311842)
(-0.000103973 4.83925e-05 0.0311391)
(-6.24436e-05 4.69542e-05 0.0311307)
(-0.000117239 -2.34609e-05 -0.0117326)
(-0.000134646 -2.74985e-05 -0.0117992)
(-0.000107163 -2.90446e-05 -0.0118113)
(-0.000106763 -3.37094e-05 -0.0118585)
(-5.29034e-05 -3.61549e-05 -0.011868)
(-0.00011851 3.05421e-05 -0.0117305)
(-0.000136299 2.72909e-05 -0.0117976)
(-0.000109071 2.59727e-05 -0.01181)
(-0.000108987 2.18025e-05 -0.0118578)
(-5.5439e-05 1.95311e-05 -0.0118675)
(-0.000120503 3.91646e-05 -0.0116977)
(-0.000139214 3.65251e-05 -0.0117653)
(-0.000112651 3.53578e-05 -0.0117779)
(-0.000113205 3.18091e-05 -0.0118269)
(-6.04815e-05 2.9789e-05 -0.0118373)
(-0.000121147 6.96539e-05 -0.0116909)
(-0.000140104 6.76715e-05 -0.0117587)
(-0.000113787 6.67352e-05 -0.0117714)
(-0.000114556 6.367e-05 -0.0118206)
(-6.21635e-05 6.18231e-05 -0.0118313)
(-0.000122457 6.97306e-05 -0.0116384)
(-0.000142133 6.84204e-05 -0.0117063)
(-0.000116653 6.77282e-05 -0.0117191)
(-0.000118118 6.55487e-05 -0.0117689)
(-6.68599e-05 6.4143e-05 -0.0117801)
(-0.000169367 -2.24102e-05 0.0243657)
(-0.000193564 -2.90431e-05 0.0242606)
(-0.000151689 -3.14851e-05 0.0242422)
(-0.000149304 -3.88572e-05 0.0241691)
(-6.84741e-05 -4.24214e-05 0.0241556)
(-0.00017135 5.60736e-05 0.0243698)
(-0.000196233 5.15294e-05 0.0242641)
(-0.000154703 4.9564e-05 0.0242455)
(-0.000152481 4.355e-05 0.0241715)
(-7.20183e-05 4.03116e-05 0.0241577)
(-0.000173929 6.75782e-05 0.0244215)
(-0.000200072 6.40823e-05 0.0243151)
(-0.000159668 6.24679e-05 0.0242963)
(-0.000158556 5.74608e-05 0.0242208)
(-7.9776e-05 5.44316e-05 0.0242063)
(-0.000174836 0.000111524 0.0244323)
(-0.000201342 0.000109334 0.0243261)
(-0.000161324 0.000108073 0.0243073)
(-0.000160518 0.000104027 0.0242317)
(-8.22512e-05 0.000101395 0.024217)
(-0.000176059 0.00010802 0.0245144)
(-0.000203523 0.000106796 0.0244088)
(-0.000164976 0.000105899 0.0243904)
(-0.000165235 0.000103153 0.0243139)
(-8.93338e-05 0.000101162 0.0242987)
(-0.000226779 -2.33864e-05 -0.00599847)
(-0.000257852 -3.0503e-05 -0.00613776)
(-0.000198413 -3.30332e-05 -0.00616453)
(-0.000193093 -4.10907e-05 -0.00626102)
(-8.01554e-05 -4.5006e-05 -0.00627999)
(-0.000228656 8.62274e-05 -0.00599156)
(-0.000260322 8.15567e-05 -0.00613136)
(-0.000201363 7.98873e-05 -0.00615829)
(-0.000196457 7.33893e-05 -0.00625574)
(-8.43485e-05 7.00824e-05 -0.00627544)
(-0.000231435 0.000101563 -0.00592043)
(-0.00026419 9.82391e-05 -0.00606025)
(-0.00020658 9.69926e-05 -0.00608724)
(-0.000202898 9.17288e-05 -0.00618608)
(-9.26185e-05 8.88356e-05 -0.00620657)
(-0.000231927 0.000162945 -0.00590366)
(-0.000264889 0.000161276 -0.00604306)
(-0.000207873 0.000160583 -0.00606984)
(-0.000204614 0.000156495 -0.00616879)
(-9.52488e-05 0.000153976 -0.00618944)
(-0.000232982 0.000156332 -0.00579113)
(-0.000266552 0.000155277 -0.00592927)
(-0.000211364 0.000154791 -0.00595563)
(-0.000209507 0.000151834 -0.00605477)
(-0.000102899 0.000149904 -0.00607596)
(-0.000315522 -1.88058e-05 0.0193713)
(-0.000360226 -2.90383e-05 0.0191708)
(-0.000275289 -3.26318e-05 0.0191314)
(-0.00026508 -4.4365e-05 0.0189939)
(-0.000103587 -5.00435e-05 0.018967)
(-0.000318012 0.000134257 0.0193822)
(-0.00036357 0.000129288 0.0191819)
(-0.000279419 0.000127095 0.0191427)
(-0.000269944 0.00011874 0.0190047)
(-0.000109381 0.000113976 0.0189774)
(-0.000320412 0.000155569 0.0194861)
(-0.000367384 0.000152657 0.0192861)
(-0.000285837 0.000151191 0.0192477)
(-0.000278199 0.000144679 0.0191083)
(-0.000122073 0.000140705 0.0190806)
(-0.000320782 0.00024064 0.0195107)
(-0.000367944 0.000240753 0.0193126)
(-0.000287398 0.000240211 0.0192749)
(-0.000280429 0.000235865 0.0191363)
(-0.000125833 0.000232535 0.0191086)
(-0.000320035 0.000225933 0.0196732)
(-0.000367813 0.00022668 0.0194785)
(-0.000290731 0.000226327 0.0194428)
(-0.000285878 0.000223484 0.0193043)
(-0.00013725 0.00022095 0.019277)
(-0.000436293 -1.68111e-05 -0.00197246)
(-0.000497379 -2.75947e-05 -0.00225265)
(-0.000374907 -3.12018e-05 -0.00231394)
(-0.000357196 -4.37785e-05 -0.00250535)
(-0.00012681 -4.97955e-05 -0.0025459)
(-0.000437933 0.000200819 -0.00195337)
(-0.000499512 0.000196618 -0.00223296)
(-0.000378118 0.000195882 -0.00229364)
(-0.000361309 0.000187535 -0.00248574)
(-0.000132956 0.000183419 -0.00252671)
(-0.000440331 0.00022995 -0.00180672)
(-0.000502309 0.000228689 -0.00208376)
(-0.00038399 0.000228929 -0.00214304)
(-0.00036966 0.000222958 -0.00233576)
(-0.000145691 0.0002197 -0.00237757)
(-0.000438936 0.000350654 -0.00176649)
(-0.000500524 0.000353484 -0.0020405)
(-0.000383849 0.000355365 -0.00209809)
(-0.000370538 0.000352198 -0.00228938)
(-0.000149419 0.000350079 -0.00233057)
(-0.000437068 0.000327526 -0.00153716)
(-0.000497597 0.000329393 -0.00180533)
(-0.000385285 0.000330885 -0.00185988)
(-0.000374953 0.000328212 -0.00204915)
(-0.00016117 0.000326626 -0.00208987)
(-0.00060932 -2.18759e-06 0.0157513)
(-0.000702622 -1.7331e-05 0.0153549)
(-0.000528465 -2.1848e-05 0.0152633)
(-0.00049747 -4.03998e-05 0.0149946)
(-0.000169319 -4.87797e-05 0.014934)
(-0.000611145 0.000300237 0.0157797)
(-0.00070475 0.000298515 0.0153875)
(-0.000532664 0.000298339 0.0152976)
(-0.000503446 0.000288687 0.0150317)
(-0.000177767 0.000282659 0.0149718)
(-0.000610615 0.000342595 0.0159876)
(-0.000704508 0.0003455 0.0156003)
(-0.000538293 0.000347129 0.0155154)
(-0.00051315 0.000341441 0.0152495)
(-0.000198106 0.000337253 0.0151925)
(-0.000607655 0.000510013 0.0160454)
(-0.000700201 0.000519862 0.0156663)
(-0.000536722 0.000524196 0.0155846)
(-0.000513322 0.000523316 0.0153234)
(-0.00020274 0.000521088 0.0152676)
(-0.000599887 0.000466239 0.0163673)
(-0.000690325 0.000474006 0.0160002)
(-0.000534855 0.000476993 0.0159272)
(-0.00051627 0.000476446 0.0156707)
(-0.000220882 0.000474455 0.0156192)
(-0.000851074 8.03208e-06 0.000635875)
(-0.000985026 -4.72087e-06 7.19813e-05)
(-0.00073458 -8.60475e-06 -7.94401e-05)
(-0.00068608 -2.51879e-05 -0.00046148)
(-0.000215956 -3.30574e-05 -0.000557397)
(-0.000848272 0.000436831 0.000686208)
(-0.000981321 0.000441624 0.000128391)
(-0.000733434 0.000447509 -1.76284e-05)
(-0.000686635 0.00044201 -0.000398277)
(-0.000224165 0.000441491 -0.000492087)
(-0.000845586 0.0004954 0.000981591)
(-0.000974327 0.000506961 0.000434494)
(-0.000734194 0.000515439 0.000295965)
(-0.000692099 0.000514218 -8.03938e-05)
(-0.00024068 0.000515091 -0.00017345)
(-0.000835765 0.000731204 0.00107799)
(-0.000961255 0.000753367 0.000544103)
(-0.000726177 0.000766951 0.00041404)
(-0.000686982 0.000773083 4.5719e-05)
(-0.00024504 0.000776521 -4.14572e-05)
(-0.000822038 0.000666404 0.00153679)
(-0.000938581 0.00068013 0.00102063)
(-0.000714504 0.000690468 0.000903894)
(-0.000682547 0.000692745 0.000544656)
(-0.000258176 0.000695586 0.000463368)
(-0.0012005 4.88639e-05 0.0131185)
(-0.00141944 3.01905e-05 0.0123176)
(-0.00106259 2.89877e-05 0.0120878)
(-0.000976046 9.80776e-07 0.0115471)
(-0.000303514 -8.74204e-06 0.0113877)
(-0.00119594 0.000646293 0.0131913)
(-0.00141006 0.00066152 0.0124119)
(-0.00105998 0.000674258 0.0121887)
(-0.00097851 0.000670301 0.0116686)
(-0.000312378 0.000667148 0.0115159)
(-0.00118372 0.000734554 0.0136018)
(-0.00139143 0.000761753 0.0128415)
(-0.00105381 0.000779366 0.0126391)
(-0.000983156 0.000786026 0.0121234)
(-0.000345481 0.000788485 0.0119923)
(-0.00116676 0.00106512 0.0137394)
(-0.0013652 0.00110706 0.0130094)
(-0.00103571 0.00113346 0.0128196)
(-0.000969389 0.00114976 0.0123224)
(-0.000346205 0.00115933 0.0121963)
(-0.0011391 0.000947028 0.014368)
(-0.0013231 0.000974683 0.0136766)
(-0.00101116 0.000991807 0.0135189)
(-0.000957319 0.00100118 0.0130402)
(-0.000371508 0.0010054 0.0129363)
(-0.0016896 8.02997e-05 0.00197787)
(-0.00201547 7.88971e-05 0.000834442)
(-0.00150424 7.8806e-05 0.000432289)
(-0.00138544 7.10984e-05 -0.00033989)
(-0.000416442 6.64352e-05 -0.000587807)
(-0.00166465 0.000919759 0.00210909)
(-0.0019836 0.00096491 0.000993461)
(-0.00147592 0.000998181 0.000621505)
(-0.00135874 0.00101771 -0.000147737)
(-0.000422787 0.00104536 -0.000381735)
(-0.001642 0.00104327 0.00269256)
(-0.00193699 0.00110374 0.00161134)
(-0.00145145 0.00114558 0.0012678)
(-0.00133825 0.00116731 0.000526682)
(-0.000428252 0.0011947 0.000291722)
(-0.00160103 0.00149879 0.00292293)
(-0.0018812 0.00158867 0.00189196)
(-0.00141236 0.00164666 0.00158355)
(-0.00130962 0.00168968 0.00087543)
(-0.000430493 0.00172035 0.000674188)
(-0.00154787 0.00132809 0.00382613)
(-0.00178912 0.00138126 0.00283891)
(-0.00135052 0.00142445 0.0025816)
(-0.00126462 0.00144623 0.00190203)
(-0.000432583 0.00147187 0.00172821)
(-0.00239962 0.000188086 0.0110795)
(-0.00296769 0.000180485 0.0094328)
(-0.00223793 0.000207729 0.00881376)
(-0.00199715 0.00016411 0.00769909)
(-0.000609344 0.000162864 0.00722762)
(-0.002366 0.00136146 0.0112682)
(-0.00290023 0.00143916 0.00970897)
(-0.00220214 0.00151059 0.00910984)
(-0.00198269 0.00153773 0.00809488)
(-0.000604406 0.0015476 0.00765907)
(-0.00231682 0.00154853 0.0120719)
(-0.00281845 0.00166103 0.0105686)
(-0.00213938 0.00174226 0.0100455)
(-0.00196013 0.00181009 0.0090237)
(-0.000665897 0.00184536 0.00868966)
(-0.00224722 0.00219886 0.0124082)
(-0.00270632 0.00233638 0.0110079)
(-0.00205307 0.00244954 0.0105385)
(-0.00187958 0.00252761 0.0095821)
(-0.000633506 0.00259841 0.00926143)
(-0.00217143 0.00189376 0.0136067)
(-0.00256776 0.00196955 0.0123217)
(-0.00194832 0.00204021 0.0119604)
(-0.00181137 0.0020805 0.0110618)
(-0.000658162 0.0021134 0.010831)
(-0.00341512 0.000276576 0.00203054)
(-0.00428125 0.000346427 -0.000322513)
(-0.00323627 0.000362021 -0.00147755)
(-0.00297027 0.000432545 -0.00318179)
(-0.000947311 0.000460225 -0.004023)
(-0.00330015 0.00191161 0.00237327)
(-0.00414202 0.00209982 0.000137163)
(-0.00308844 0.00222888 -0.000856641)
(-0.00280829 0.00234116 -0.00249495)
(-0.000925692 0.00250616 -0.00322245)
(-0.00321878 0.00218301 0.00350824)
(-0.00396378 0.00240147 0.00137655)
(-0.00299493 0.00257284 0.000473765)
(-0.002693 0.00265304 -0.000999921)
(-0.000845505 0.00279547 -0.00166044)
(-0.00307149 0.003036 0.00406041)
(-0.00375185 0.00334262 0.00210989)
(-0.00283686 0.00356185 0.00134095)
(-0.00258565 0.00372784 -2.76979e-05)
(-0.000839727 0.00386176 -0.000531684)
(-0.00289902 0.00259075 0.00580571)
(-0.00343793 0.0027632 0.00393777)
(-0.00261003 0.00291792 0.00335605)
(-0.00239327 0.00300026 0.00207112)
(-0.000774731 0.00311841 0.00167874)
(-0.00486895 0.000552432 0.00912003)
(-0.0064806 0.000629146 0.00573)
(-0.00509869 0.000813207 0.00378951)
(-0.00454459 0.000795816 0.0013214)
(-0.00155544 0.000909443 -0.000191142)
(-0.00471339 0.00283964 0.00964379)
(-0.00613479 0.00313935 0.00654758)
(-0.00483541 0.00346319 0.00479257)
(-0.00435017 0.00372119 0.00254454)
(-0.00143634 0.0039121 0.00125444)
(-0.00455298 0.00323539 0.0112381)
(-0.0058568 0.00363479 0.00828004)
(-0.00451701 0.00394098 0.00684332)
(-0.00409571 0.00427848 0.00466455)
(-0.00148113 0.00453761 0.00359986)
(-0.0042943 0.00449707 0.0121014)
(-0.00542858 0.00490038 0.00945564)
(-0.00419174 0.00533572 0.00823826)
(-0.00375342 0.00560317 0.0063722)
(-0.00127734 0.00594228 0.0055107)
(-0.00412664 0.00372406 0.0143225)
(-0.00501814 0.0038917 0.0119801)
(-0.00381483 0.00415768 0.0110886)
(-0.00348942 0.00428808 0.00935387)
(-0.00123952 0.00443732 0.00877567)
(-0.0069711 0.000824999 0.000784923)
(-0.00961218 0.00115933 -0.00392501)
(-0.00764139 0.00136169 -0.00730404)
(-0.00694936 0.00162762 -0.0109397)
(-0.00252321 0.00187598 -0.0138717)
(-0.00655261 0.0040292 0.00166344)
(-0.00899365 0.00464823 -0.00258489)
(-0.00708809 0.00528063 -0.00550026)
(-0.00634383 0.00568187 -0.00862279)
(-0.00228015 0.00629569 -0.011035)
(-0.00632534 0.00464052 0.00386173)
(-0.00836018 0.00530705 -0.000173916)
(-0.00660731 0.00601556 -0.00264781)
(-0.00593433 0.00647744 -0.00568335)
(-0.0020388 0.00704846 -0.00755951)
(-0.00585401 0.00612486 0.00512768)
(-0.00761757 0.00704524 0.0016944)
(-0.00591772 0.00780867 -0.00020214)
(-0.00531154 0.00841757 -0.00282073)
(-0.00184094 0.00903796 -0.00422903)
(-0.00536527 0.00493286 0.0082798)
(-0.00667635 0.00542155 0.00494651)
(-0.00523602 0.00591425 0.00365039)
(-0.00470559 0.00613518 0.00122997)
(-0.00154998 0.00654618 0.000321345)
(-0.0098115 0.00147423 0.00701628)
(-0.0145796 0.00197031 0.000156122)
(-0.0121147 0.00262337 -0.00591731)
(-0.0111142 0.00306295 -0.0120358)
(-0.00459507 0.00370291 -0.0183377)
(-0.0091779 0.00591619 0.00849552)
(-0.0133077 0.00689271 0.00251638)
(-0.0108749 0.00812225 -0.00241345)
(-0.00988671 0.0089791 -0.00735083)
(-0.00395622 0.010226 -0.0120501)
(-0.00878974 0.00669741 0.0115388)
(-0.0123721 0.00791485 0.0059483)
(-0.0100289 0.00924152 0.00192763)
(-0.00901048 0.0100821 -0.00259949)
(-0.00353996 0.0113448 -0.0061185)
(-0.0079034 0.00891656 0.0135197)
(-0.0107618 0.0100242 0.00883359)
(-0.00870769 0.0116396 0.00593933)
(-0.00778284 0.0125258 0.00233585)
(-0.00287297 0.0138332 -5.17061e-05)
(-0.0076187 0.00703169 0.0178764)
(-0.00964897 0.00731636 0.0133508)
(-0.00752917 0.00820791 0.0113572)
(-0.00681839 0.00855124 0.00811835)
(-0.0024328 0.00921742 0.00662618)
(-0.0141624 0.00234857 -0.00110227)
(-0.0225518 0.00351624 -0.0106802)
(-0.019834 0.00487186 -0.0208701)
(-0.0193706 0.00625701 -0.0302117)
(-0.00896177 0.00812644 -0.0411486)
(-0.0128347 0.00855276 0.00110814)
(-0.0199067 0.0104383 -0.00682396)
(-0.0169547 0.0131257 -0.0149158)
(-0.0159821 0.0151198 -0.0220435)
(-0.00709434 0.0185159 -0.0303144)
(-0.0122001 0.00966486 0.00528825)
(-0.0179762 0.0116204 -0.00236956)
(-0.0151508 0.0143643 -0.0086144)
(-0.0139804 0.0161637 -0.01521)
(-0.00577948 0.0190476 -0.0212124)
(-0.0107877 0.0124707 0.0082344)
(-0.0152048 0.0144544 0.00206598)
(-0.0124113 0.0172429 -0.00239834)
(-0.0113003 0.019139 -0.00715416)
(-0.00441612 0.0217883 -0.0110567)
(-0.0101257 0.00952028 0.0137136)
(-0.013204 0.0101822 0.00796259)
(-0.0104685 0.0116121 0.0050121)
(-0.00943739 0.0122162 0.000484655)
(-0.00334814 0.0135514 -0.00170157)
(-0.019858 0.00375302 0.00552643)
(-0.0343621 0.00581678 -0.00912365)
(-0.0316542 0.0085865 -0.0287839)
(-0.0313967 0.0111361 -0.0464004)
(-0.0157508 0.0144782 -0.0775349)
(-0.0175221 0.0123052 0.00934568)
(-0.0293433 0.0152042 -0.00185347)
(-0.0260979 0.020379 -0.0162701)
(-0.0252852 0.0239804 -0.027576)
(-0.0124124 0.0301661 -0.0463176)
(-0.0168366 0.0138185 0.0150609)
(-0.0262839 0.0168034 0.00430741)
(-0.0228717 0.0217614 -0.00624484)
(-0.0216098 0.024975 -0.016546)
(-0.00989208 0.0306106 -0.0289852)
(-0.0144029 0.0173454 0.0192111)
(-0.0213979 0.0203595 0.0114938)
(-0.0179264 0.0252752 0.00432418)
(-0.0164423 0.028232 -0.00208921)
(-0.00710329 0.0333583 -0.00930313)
(-0.0136787 0.0128146 0.0262577)
(-0.0183542 0.0135388 0.0189729)
(-0.0150016 0.0160029 0.0148467)
(-0.0135308 0.0165966 0.00878646)
(-0.00512445 0.0190365 0.00504989)
(-0.0295303 0.00623846 -0.000504058)
(-0.0568649 0.0107908 -0.0204043)
(-0.0571191 0.017427 -0.0500578)
(-0.0680988 0.0250506 -0.0791102)
(-0.040343 0.0394596 -0.123425)
(-0.0246434 0.0180902 0.00455324)
(-0.0455288 0.0238636 -0.00989516)
(-0.0426783 0.0356549 -0.0307874)
(-0.0460113 0.0449558 -0.0477861)
(-0.0259868 0.0670429 -0.079352)
(-0.0235244 0.0195299 0.0112172)
(-0.0392948 0.0249653 -0.00208458)
(-0.0360007 0.0349554 -0.0169889)
(-0.0367111 0.0416519 -0.0311601)
(-0.0186057 0.0560705 -0.0505039)
(-0.01897 0.023685 0.0163604)
(-0.0301049 0.0291328 0.00745676)
(-0.0259918 0.0383469 -0.00209412)
(-0.024922 0.0444773 -0.0102759)
(-0.011904 0.055826 -0.0208797)
(-0.0178297 0.0169803 0.0242887)
(-0.0246327 0.0181205 0.0160281)
(-0.0206545 0.0227001 0.0109116)
(-0.0192373 0.0236953 0.00380897)
(-0.00758789 0.028618 -0.00122211)
(-0.0408108 0.0089202 0.0112943)
(-0.0839201 0.0163292 -0.0187178)
(-0.0904311 0.027933 -0.0777395)
(-0.104669 0.0424759 -0.137973)
(-0.0609993 0.0590228 -0.313415)
(-0.032804 0.0240141 0.0194575)
(-0.0646862 0.0335179 0.000975155)
(-0.0640265 0.0534305 -0.0353355)
(-0.0738025 0.0718848 -0.0612153)
(-0.0443619 0.102993 -0.137693)
(-0.0308909 0.0256089 0.0278582)
(-0.0544965 0.0341547 0.010844)
(-0.0519596 0.0504672 -0.0136748)
(-0.0551084 0.062523 -0.0357315)
(-0.0297894 0.0891542 -0.0778521)
(-0.0238686 0.0304149 0.0347831)
(-0.0398454 0.0384647 0.0246898)
(-0.0356582 0.0531813 0.0109427)
(-0.035222 0.0632029 0.000743878)
(-0.0180682 0.0826445 -0.0186863)
(-0.0224464 0.0212434 0.043964)
(-0.0317297 0.0226653 0.0344572)
(-0.0272033 0.0297557 0.027639)
(-0.0256525 0.0315072 0.0187229)
(-0.0108213 0.0397422 0.0108212)
(-0.0611547 0.01452 0.0128934)
(-0.145802 0.0305288 -0.0220488)
(-0.176429 0.0601035 -0.103621)
(-0.303856 0.10271 -0.220028)
(-0.219621 0.219739 -0.416477)
(-0.0443227 0.0346582 0.0211481)
(-0.100286 0.0533898 0.00289267)
(-0.104879 0.0995865 -0.0420094)
(-0.148051 0.146875 -0.0811322)
(-0.10331 0.302692 -0.220535)
(-0.0416063 0.0348582 0.0299911)
(-0.0808382 0.0486961 0.0128993)
(-0.0825876 0.0812453 -0.0136674)
(-0.100757 0.103622 -0.0425069)
(-0.0616164 0.175137 -0.104036)
(-0.0298067 0.0398191 0.0354979)
(-0.053955 0.0527552 0.0272236)
(-0.0499536 0.0796703 0.0129478)
(-0.0545148 0.0988948 0.00257101)
(-0.0317531 0.144401 -0.0225516)
(-0.0280159 0.026833 0.0439127)
(-0.0409868 0.0286235 0.0351018)
(-0.0363917 0.0404581 0.0297305)
(-0.0360609 0.0428622 0.0202137)
(-0.0163932 0.0597299 0.0123718)
(-0.0779586 0.0173243 0.0512697)
(-0.200185 0.0414242 0.0113928)
(-0.289246 0.0905737 -0.0910615)
(-0.592341 0.190307 -0.339882)
(-0.236864 0.229773 -1.14828)
(-0.0524821 0.0410507 0.0593705)
(-0.127755 0.0683571 0.0419764)
(-0.148121 0.143013 -0.0105262)
(-0.252883 0.249989 -0.065725)
(-0.193651 0.589991 -0.340331)
(-0.0491999 0.0399232 0.0665136)
(-0.0980872 0.0584974 0.051077)
(-0.10745 0.105507 0.0237705)
(-0.145118 0.14629 -0.0109401)
(-0.0933631 0.287974 -0.0907646)
(-0.0329153 0.0443101 0.0704763)
(-0.06233 0.0606004 0.064429)
(-0.0603225 0.0965089 0.0512648)
(-0.0706118 0.125837 0.0418243)
(-0.0435733 0.198801 0.0116708)
(-0.0320022 0.0303939 0.0764064)
(-0.0458868 0.0313072 0.0701159)
(-0.042055 0.0477488 0.066368)
(-0.0429525 0.0505578 0.058546)
(-0.0199162 0.0768678 0.0509912)
(-0.104137 0.022826 0.0801219)
(-0.286741 0.0616884 0.0771488)
(-0.450747 0.144213 0.0536601)
(-1.00847 0.223556 -0.22875)
(-1.92178 0.50399 -1.7674)
(-0.0634862 0.049863 0.0750653)
(-0.170018 0.0927631 0.0832121)
(-0.21005 0.213322 0.0692918)
(-0.435415 0.432811 0.0424288)
(-0.58473 1.04802 -0.408699)
(-0.0585463 0.0459776 0.0774673)
(-0.123553 0.0712143 0.0767808)
(-0.144738 0.143167 0.0797842)
(-0.214205 0.208665 0.0686475)
(-0.146946 0.450299 0.0531074)
(-0.0367324 0.0497123 0.0723069)
(-0.0731595 0.0717871 0.0773704)
(-0.0726222 0.122238 0.0769486)
(-0.0937992 0.168221 0.0833907)
(-0.0626296 0.284764 0.0771846)
(-0.0351313 0.0335783 0.0728988)
(-0.0510266 0.0351818 0.0720139)
(-0.0479743 0.0570541 0.0774133)
(-0.0514012 0.0613342 0.074207)
(-0.0254086 0.102149 0.0800627)
(-0.0835256 0.0125364 0.171132)
(-0.215134 0.0484274 0.196049)
(-0.315689 0.107816 0.355619)
(-1.10412 0.186875 0.526427)
(-0.25669 0.0574492 -7.58793)
(-0.0455709 0.038317 0.14984)
(-0.131896 0.0672718 0.17298)
(-0.14269 0.160288 0.253539)
(-0.461412 0.336668 0.42257)
(-0.864363 1.25824 0.718355)
(-0.0510483 0.0371703 0.139601)
(-0.0956157 0.0526271 0.156579)
(-0.114357 0.111931 0.206416)
(-0.162995 0.140261 0.252888)
(-0.113611 0.312592 0.355668)
(-0.0284247 0.0396826 0.124761)
(-0.057589 0.0557337 0.135654)
(-0.0542698 0.0939853 0.156783)
(-0.0696405 0.129733 0.17301)
(-0.0496513 0.214249 0.196316)
(-0.0334731 0.031563 0.117498)
(-0.0413111 0.0265181 0.12456)
(-0.0398637 0.0493681 0.13959)
(-0.0402282 0.0425948 0.149315)
(-0.0160351 0.0823195 0.171297)
(-0.0814712 0.0018208 0.159354)
(-0.0938517 0.0394591 0.198173)
(-0.208899 0.0396233 0.378671)
(-0.395205 -0.010115 0.318363)
(0.268428 -0.304708 -7.92268)
(-0.0413629 0.0182858 0.134424)
(-0.0671246 0.0533378 0.17053)
(-0.0573244 0.0552719 0.267922)
(-0.0509998 0.0493732 0.347468)
(0.111037 -0.0920707 0.282255)
(-0.0423624 0.0209041 0.120631)
(-0.0569213 0.0340761 0.148943)
(-0.0495147 0.047401 0.212401)
(-0.0558031 0.05531 0.268351)
(-0.0431345 0.206738 0.379894)
(-0.0260855 0.0276587 0.101606)
(-0.0412175 0.0398465 0.121435)
(-0.0354532 0.0555966 0.148976)
(-0.0543358 0.065479 0.17077)
(-0.040307 0.0917856 0.198507)
(-0.0283437 0.0265795 0.0890291)
(-0.0289828 0.0243227 0.101797)
(-0.0232348 0.0406489 0.120985)
(-0.019644 0.0386365 0.134978)
(-0.004565 0.0794 0.160301)
(-0.045722 -0.0123619 0.177406)
(0.00975094 0.0220858 0.229064)
(-0.0974667 -0.0170465 0.262675)
(0.289599 -0.0344157 -0.331982)
(0.100603 -0.126517 -6.11469)
(-0.00895198 -0.000651539 0.165018)
(-0.00254107 0.0199077 0.197517)
(0.010919 -0.016067 0.233919)
(0.0234506 -0.0264386 0.193734)
(0.169781 -0.237993 -0.608775)
(-0.022311 0.00417354 0.156223)
(-0.00420511 0.00373841 0.181131)
(0.00116088 -0.00321864 0.214698)
(0.0147514 -0.0137081 0.234475)
(0.0134104 0.0959293 0.262412)
(-0.00795487 0.00801484 0.142607)
(-0.0101907 0.00855872 0.160545)
(-0.00512655 0.00293196 0.180973)
(-0.0219514 0.000562814 0.197597)
(-0.0238462 -0.0109873 0.228727)
(-0.020354 0.0186311 0.130847)
(-0.0092837 0.00623312 0.142931)
(-0.00649983 0.0209599 0.15611)
(-0.000654623 0.00626415 0.165867)
(0.00977855 0.0451298 0.177143)
(-0.0278621 -0.0105829 0.110626)
(0.0074633 0.00802526 0.201106)
(-0.0318812 -0.0108727 0.25447)
(-0.182768 0.0680682 -0.194784)
(-1.40982 0.460108 -6.16488)
(-0.0069058 -0.00290863 0.102345)
(0.00107261 0.00614301 0.157489)
(0.0144364 -0.0101191 0.218685)
(-0.151392 -0.0074811 0.355538)
(-0.449595 0.242175 -0.236559)
(-0.0160887 -0.00147215 0.087395)
(0.00171176 -0.00306546 0.127883)
(0.00345152 -0.00510297 0.160406)
(0.00910542 -0.0155628 0.219703)
(0.0074552 0.031394 0.256079)
(-0.00711407 0.00234823 0.0782189)
(-0.00290545 0.00169901 0.103649)
(0.00177132 -0.00314817 0.127701)
(-0.00736867 -0.00240009 0.157719)
(-0.00871299 -0.0093741 0.201318)
(-0.0154781 0.014043 0.0625586)
(-0.00378599 0.00567852 0.0788558)
(-0.000339751 0.0144244 0.0879352)
(0.00139683 0.00494522 0.103912)
(0.00840598 0.0259186 0.111803)
(0.0490447 -0.0200064 0.170949)
(0.16965 -0.0210724 0.227488)
(0.266032 -0.0762242 0.311664)
(0.383432 -0.027271 0.0704957)
(0.554247 -0.197749 -7.80203)
(0.0489746 -0.0232036 0.159841)
(0.109597 -0.0518115 0.199452)
(0.179694 -0.126525 0.267638)
(0.295959 -0.297432 0.312117)
(0.275804 -0.528752 0.180332)
(0.0204234 -0.0195824 0.146392)
(0.0673306 -0.0494167 0.177714)
(0.0895146 -0.0907143 0.21329)
(0.126779 -0.180275 0.269151)
(0.0748375 -0.265121 0.31056)
(0.0189546 -0.0165447 0.136135)
(0.0386889 -0.0398696 0.156597)
(0.0482573 -0.0680565 0.177315)
(0.0501398 -0.110942 0.199913)
(0.0203459 -0.171243 0.227324)
(-0.00300448 0.00193021 0.122468)
(0.0158187 -0.0200309 0.136712)
(0.0181799 -0.0210272 0.146642)
(0.0225456 -0.0502827 0.161279)
(0.0184237 -0.0485814 0.170885)
(0.0365315 -0.0214031 0.023922)
(0.163508 -0.0205327 0.0364418)
(0.233886 -0.0781475 0.0152346)
(0.588944 -0.294184 -0.433497)
(1.36544 -0.749701 -4.77104)
(0.0375879 -0.0277523 0.027007)
(0.108035 -0.0444896 0.0346952)
(0.161049 -0.124409 0.0412482)
(0.29379 -0.296968 0.028384)
(0.290333 -0.58778 -0.431853)
(0.0188464 -0.0254644 0.0196704)
(0.0689334 -0.0463961 0.0329329)
(0.094286 -0.0948589 0.0324198)
(0.122198 -0.162271 0.0422748)
(0.0768146 -0.232749 0.0143443)
(0.0156539 -0.0217863 0.0199834)
(0.0385801 -0.0396085 0.0275692)
(0.0455642 -0.0701189 0.0328258)
(0.0434767 -0.109433 0.0352597)
(0.0197208 -0.164315 0.0372481)
(0.000316924 -0.00116552 0.0105914)
(0.0205963 -0.0165037 0.0206731)
(0.0245168 -0.0198627 0.0200883)
(0.0259199 -0.0385665 0.0286052)
(0.0203475 -0.0384013 0.0245243)
(0.0681035 -0.0163802 0.105996)
(0.168656 -0.0227476 0.121107)
(0.231864 -0.0623059 0.0840797)
(0.448009 -0.235811 -0.359306)
(0.646089 -0.646703 -2.9437)
(0.0611288 -0.0271491 0.110507)
(0.122512 -0.0550074 0.122039)
(0.171355 -0.117 0.114175)
(0.254455 -0.255851 0.0745125)
(0.233298 -0.447659 -0.354978)
(0.0367011 -0.0263109 0.10555)
(0.0796074 -0.0562797 0.11746)
(0.097564 -0.0978601 0.111733)
(0.116683 -0.171899 0.115064)
(0.0615924 -0.232278 0.0857897)
(0.0285355 -0.0253747 0.107728)
(0.0512928 -0.0518885 0.116537)
(0.0556883 -0.0799209 0.117284)
(0.0542323 -0.123303 0.122322)
(0.0220212 -0.169179 0.12099)
(0.00827768 -0.00864772 0.0996657)
(0.0250677 -0.0289065 0.108256)
(0.0258182 -0.0367738 0.106168)
(0.0266853 -0.0613827 0.111766)
(0.0157294 -0.0678594 0.107652)
(0.0581996 -0.0167856 -0.0518513)
(0.153846 -0.0195859 -0.0704168)
(0.208771 -0.0580794 -0.101571)
(0.388791 -0.205865 -0.374333)
(0.518878 -0.515988 -1.95187)
(0.0534447 -0.0283348 -0.0463986)