/*--------------------------------*- C++ -*----------------------------------*\
| =========                 |                                                 |
| \\      /  F ield         | OpenFOAM: The Open Source CFD Toolbox           |
|  \\    /   O peration     | Version:  5.x                                   |
|   \\  /    A nd           | Web:      www.OpenFOAM.org                      |
|    \\/     M anipulation  |                                                 |
\*---------------------------------------------------------------------------*/
FoamFile
{
    version     2.0;
    format      ascii;
    class       volVectorField;
    location    "0.03";
    object      U;
}
// * * * * * * * * * * * * * * * * * * * * * * * * * * * * * * * * * * * * * //

dimensions      [0 1 -1 0 0 0 0];

internalField   nonuniform List<vector> 
1553
(
(-3.07097e-06 1.05774e-07 -0.000392363)
(-3.17012e-06 8.34309e-08 -0.000394188)
(-1.96246e-06 6.75169e-08 -0.000393471)
(-1.88852e-06 6.86719e-08 -0.000394411)
(-9.09884e-08 5.83762e-08 -0.000394109)
(-3.07927e-06 1.83087e-06 -0.000392693)
(-3.18136e-06 1.84683e-06 -0.000394506)
(-1.96859e-06 1.8442e-06 -0.000393793)
(-1.89526e-06 1.86123e-06 -0.000394723)
(-9.63752e-08 1.85878e-06 -0.000394422)
(-3.05445e-06 1.88181e-06 -0.000391885)
(-3.15674e-06 1.90625e-06 -0.000393661)
(-1.94807e-06 1.90493e-06 -0.000392941)
(-1.87394e-06 1.92593e-06 -0.000393848)
(-8.51518e-08 1.92555e-06 -0.00039354)
(-3.05408e-06 3.07939e-06 -0.000392618)
(-3.1582e-06 3.11629e-06 -0.000394389)
(-1.9489e-06 3.11806e-06 -0.000393673)
(-1.87465e-06 3.1448e-06 -0.000394577)
(-8.59656e-08 3.14638e-06 -0.000394271)
(-3.01666e-06 2.97019e-06 -0.000390927)
(-3.11805e-06 3.0076e-06 -0.000392664)
(-1.91955e-06 3.01123e-06 -0.000391943)
(-1.84561e-06 3.03763e-06 -0.000392827)
(-7.32117e-08 3.04093e-06 -0.000392517)
(-1.62962e-06 1.70717e-08 4.28633e-05)
(-2.17898e-06 1.04962e-07 4.24667e-05)
(-1.63765e-06 1.40661e-07 4.2206e-05)
(-1.37696e-06 1.9162e-07 4.192e-05)
(-3.40004e-07 2.1853e-07 4.17843e-05)
(-1.61076e-06 1.14974e-06 4.29921e-05)
(-2.14985e-06 1.19757e-06 4.2597e-05)
(-1.61406e-06 1.21667e-06 4.23381e-05)
(-1.35337e-06 1.2496e-06 4.2052e-05)
(-3.22651e-07 1.26758e-06 4.19192e-05)
(-1.58065e-06 1.45513e-06 4.3314e-05)
(-2.112e-06 1.49235e-06 4.29156e-05)
(-1.58562e-06 1.50554e-06 4.26571e-05)
(-1.32605e-06 1.5316e-06 4.23671e-05)
(-3.06773e-07 1.54388e-06 4.22338e-05)
(-1.57269e-06 2.01768e-06 4.35723e-05)
(-2.0994e-06 2.04772e-06 4.31743e-05)
(-1.5748e-06 2.05669e-06 4.29172e-05)
(-1.31503e-06 2.07855e-06 4.26271e-05)
(-2.98597e-07 2.08722e-06 4.24951e-05)
(-1.54992e-06 1.52813e-06 4.39994e-05)
(-2.07296e-06 1.5509e-06 4.36e-05)
(-1.55479e-06 1.55516e-06 4.33426e-05)
(-1.29552e-06 1.57137e-06 4.30509e-05)
(-2.91424e-07 1.5751e-06 4.2918e-05)
(-3.5099e-06 2.48305e-07 -0.000257678)
(-3.87048e-06 2.30813e-07 -0.00025991)
(-2.54144e-06 2.23952e-07 -0.000259942)
(-2.33718e-06 2.19349e-07 -0.000261276)
(-2.19936e-07 2.12728e-07 -0.000261295)
(-3.51652e-06 2.30558e-06 -0.000257645)
(-3.8782e-06 2.32032e-06 -0.000259878)
(-2.54571e-06 2.32007e-06 -0.000259914)
(-2.34097e-06 2.33349e-06 -0.000261247)
(-2.23934e-07 2.33367e-06 -0.000261269)
(-3.49457e-06 2.49169e-06 -0.000256358)
(-3.85595e-06 2.51366e-06 -0.000258569)
(-2.52827e-06 2.51427e-06 -0.000258605)
(-2.32358e-06 2.53174e-06 -0.000259923)
(-2.17344e-07 2.53232e-06 -0.000259943)
(-3.49382e-06 3.80552e-06 -0.000256323)
(-3.85559e-06 3.8418e-06 -0.000258531)
(-2.52763e-06 3.84479e-06 -0.000258568)
(-2.32293e-06 3.87034e-06 -0.000259884)
(-2.17578e-07 3.87248e-06 -0.000259905)
(-3.45732e-06 3.43847e-06 -0.000254163)
(-3.81666e-06 3.47495e-06 -0.000256333)
(-2.49973e-06 3.47837e-06 -0.000256367)
(-2.29589e-06 3.50358e-06 -0.000257659)
(-2.09377e-07 3.50609e-06 -0.000257678)
(-3.90256e-06 8.16729e-08 -7.34026e-05)
(-4.44393e-06 1.52796e-07 -7.57905e-05)
(-3.00421e-06 1.7293e-07 -7.61516e-05)
(-2.72977e-06 2.22624e-07 -7.76379e-05)
(-3.60096e-07 2.40737e-07 -7.78298e-05)
(-3.8846e-06 2.46938e-06 -7.32277e-05)
(-4.41982e-06 2.53831e-06 -7.561e-05)
(-2.98413e-06 2.55442e-06 -7.59697e-05)
(-2.70813e-06 2.60292e-06 -7.7453e-05)
(-3.4688e-07 2.61956e-06 -7.76434e-05)
(-3.83203e-06 2.77688e-06 -7.17613e-05)
(-4.35886e-06 2.83945e-06 -7.41246e-05)
(-2.9396e-06 2.85217e-06 -7.44813e-05)
(-2.66463e-06 2.89568e-06 -7.59533e-05)
(-3.27216e-07 2.90786e-06 -7.61424e-05)
(-3.82055e-06 4.21397e-06 -7.14136e-05)
(-4.3445e-06 4.2841e-06 -7.37723e-05)
(-2.92791e-06 4.2954e-06 -7.41274e-05)
(-2.65244e-06 4.34256e-06 -7.55965e-05)
(-3.20206e-07 4.35271e-06 -7.57846e-05)
(-3.76023e-06 3.72813e-06 -6.90636e-05)
(-4.27741e-06 3.78845e-06 -7.13935e-05)
(-2.88115e-06 3.7968e-06 -7.17451e-05)
(-2.60731e-06 3.83632e-06 -7.31967e-05)
(-3.07709e-07 3.84295e-06 -7.33832e-05)
(-5.94521e-06 4.16613e-07 -0.000180292)
(-6.61984e-06 4.1206e-07 -0.000184331)
(-4.38885e-06 4.09546e-07 -0.000184777)
(-4.01542e-06 4.09961e-07 -0.000187256)
(-4.04543e-07 4.06134e-07 -0.000187483)
(-5.94602e-06 3.94683e-06 -0.000180049)
(-6.62056e-06 3.98626e-06 -0.000184088)
(-4.3887e-06 3.99039e-06 -0.000184537)
(-4.01467e-06 4.01817e-06 -0.000187017)
(-4.06879e-07 4.02113e-06 -0.000187246)
(-5.90453e-06 4.30574e-06 -0.000177614)
(-6.57625e-06 4.35139e-06 -0.000181614)
(-4.35694e-06 4.35657e-06 -0.000182059)
(-3.98467e-06 4.38821e-06 -0.000184516)
(-4.00669e-07 4.39107e-06 -0.000184745)
(-5.89897e-06 6.50353e-06 -0.000177172)
(-6.5697e-06 6.57321e-06 -0.000181164)
(-4.35188e-06 6.58129e-06 -0.000181609)
(-3.98017e-06 6.62728e-06 -0.000184062)
(-4.00131e-07 6.63198e-06 -0.000184292)
(-5.83294e-06 5.83476e-06 -0.000173236)
(-6.49848e-06 5.90079e-06 -0.000177156)
(-4.30288e-06 5.90788e-06 -0.000177593)
(-3.93399e-06 5.95116e-06 -0.000180002)
(-3.92531e-07 5.95532e-06 -0.000180227)
(-8.02004e-06 3.82944e-07 -0.000131452)
(-8.92927e-06 4.32004e-07 -0.000136953)
(-5.92931e-06 4.43512e-07 -0.000137691)
(-5.43596e-06 4.80744e-07 -0.000141102)
(-5.7745e-07 4.91609e-07 -0.000141491)
(-8.00213e-06 5.14721e-06 -0.000131092)
(-8.90782e-06 5.25519e-06 -0.000136583)
(-5.91263e-06 5.27233e-06 -0.000137319)
(-5.41808e-06 5.34277e-06 -0.000140724)
(-5.68804e-07 5.35733e-06 -0.000141112)
(-7.90942e-06 5.65436e-06 -0.000127773)
(-8.80411e-06 5.76334e-06 -0.00013321)
(-5.84173e-06 5.7793e-06 -0.000133936)
(-5.35096e-06 5.84998e-06 -0.000137305)
(-5.49758e-07 5.86205e-06 -0.000137689)
(-7.89034e-06 8.59327e-06 -0.000127073)
(-8.78285e-06 8.74311e-06 -0.000132495)
(-5.82598e-06 8.76223e-06 -0.000133217)
(-5.33532e-06 8.85785e-06 -0.000136575)
(-5.44572e-07 8.8713e-06 -0.000136957)
(-7.75559e-06 7.73976e-06 -0.000121714)
(-8.63515e-06 7.8745e-06 -0.000127053)
(-5.727e-06 7.89138e-06 -0.000127761)
(-5.2419e-06 7.97607e-06 -0.000131066)
(-5.28022e-07 7.9871e-06 -0.000131441)
(-1.15557e-05 7.7462e-07 -0.000150044)
(-1.28599e-05 7.83344e-07 -0.000158051)
(-8.53802e-06 7.84845e-07 -0.000159053)
(-7.81515e-06 7.92606e-07 -0.000163986)
(-7.87721e-07 7.91036e-07 -0.000164504)
(-1.15465e-05 7.62503e-06 -0.000149533)
(-1.28484e-05 7.72847e-06 -0.000157528)
(-8.52952e-06 7.74489e-06 -0.000158532)
(-7.80802e-06 7.81512e-06 -0.000163461)
(-7.88474e-07 7.82328e-06 -0.000163982)
(-1.14491e-05 8.32492e-06 -0.000144736)
(-1.274e-05 8.43922e-06 -0.00015263)
(-8.45138e-06 8.45882e-06 -0.00015362)
(-7.73675e-06 8.53688e-06 -0.000158498)
(-7.78533e-07 8.54667e-06 -0.000159015)
(-1.14288e-05 1.25638e-05 -0.000143771)
(-1.27144e-05 1.27311e-05 -0.00015164)
(-8.43185e-06 1.27574e-05 -0.000152627)
(-7.72018e-06 1.28663e-05 -0.000157492)
(-7.75693e-07 1.28805e-05 -0.000158008)
(-1.12773e-05 1.12991e-05 -0.000136041)
(-1.25465e-05 1.14506e-05 -0.000143739)
(-8.31617e-06 1.14716e-05 -0.000144701)
(-7.61368e-06 1.15696e-05 -0.00014946)
(-7.62476e-07 1.15812e-05 -0.000149963)
(-1.61891e-05 9.4709e-07 -0.000157844)
(-1.79395e-05 9.915e-07 -0.000169251)
(-1.18646e-05 9.98911e-07 -0.000170792)
(-1.08868e-05 1.02891e-06 -0.0001779)
(-1.08045e-06 1.03491e-06 -0.000178717)
(-1.61599e-05 1.04558e-05 -0.0001571)
(-1.79079e-05 1.06764e-05 -0.00016848)
(-1.18459e-05 1.07062e-05 -0.000170015)
(-1.08688e-05 1.08307e-05 -0.000177106)
(-1.07599e-06 1.0847e-05 -0.00017792)
(-1.59624e-05 1.14163e-05 -0.000150277)
(-1.7689e-05 1.16513e-05 -0.000161517)
(-1.17102e-05 1.16836e-05 -0.000163018)
(-1.0746e-05 1.18194e-05 -0.000169999)
(-1.05507e-06 1.18359e-05 -0.000170797)
(-1.59181e-05 1.72894e-05 -0.000148847)
(-1.76406e-05 1.76348e-05 -0.000160042)
(-1.16778e-05 1.76818e-05 -0.000161529)
(-1.07165e-05 1.78971e-05 -0.000168476)
(-1.05036e-06 1.79244e-05 -0.000169267)
(-1.56071e-05 1.56237e-05 -0.000137845)
(-1.72966e-05 1.59347e-05 -0.000148824)
(-1.1448e-05 1.59775e-05 -0.000150266)
(-1.05034e-05 1.61711e-05 -0.000157073)
(-1.02127e-06 1.61965e-05 -0.000157839)
(-2.31954e-05 1.52516e-06 -0.000148152)
(-2.58098e-05 1.56026e-06 -0.000164251)
(-1.71874e-05 1.56917e-06 -0.000166357)
(-1.57395e-05 1.593e-06 -0.00017626)
(-1.59704e-06 1.59456e-06 -0.00017737)
(-2.31592e-05 1.51928e-05 -0.00014713)
(-2.57651e-05 1.54621e-05 -0.000163183)
(-1.71557e-05 1.55193e-05 -0.000165281)
(-1.57136e-05 1.57168e-05 -0.000175166)
(-1.59531e-06 1.57434e-05 -0.000176269)
(-2.29184e-05 1.65774e-05 -0.000137595)
(-2.54833e-05 1.68772e-05 -0.000153381)
(-1.69327e-05 1.69441e-05 -0.000155441)
(-1.55153e-05 1.7167e-05 -0.000165241)
(-1.57041e-06 1.71998e-05 -0.000166324)
(-2.28506e-05 2.49976e-05 -0.000135642)
(-2.53983e-05 2.54259e-05 -0.000151343)
(-1.68659e-05 2.55112e-05 -0.000153387)
(-1.54579e-05 2.57934e-05 -0.000163147)
(-1.56065e-06 2.58397e-05 -0.000164223)
(-2.24774e-05 2.25229e-05 -0.000120295)
(-2.49697e-05 2.28961e-05 -0.000135598)
(-1.65653e-05 2.29642e-05 -0.000137557)
(-1.51869e-05 2.32054e-05 -0.000147049)
(-1.52365e-06 2.3243e-05 -0.000148076)
(-3.26264e-05 2.01012e-06 -0.000176336)
(-3.61466e-05 2.09168e-06 -0.000199484)
(-2.38739e-05 2.10423e-06 -0.00020289)
(-2.19004e-05 2.14626e-06 -0.000217579)
(-2.17174e-06 2.15647e-06 -0.000219455)
(-3.25493e-05 2.1013e-05 -0.000174764)
(-3.60615e-05 2.15461e-05 -0.000197813)
(-2.38291e-05 2.16214e-05 -0.000201178)
(-2.18564e-05 2.18503e-05 -0.000215777)
(-2.1615e-06 2.18932e-05 -0.000217621)
(-3.20781e-05 2.29052e-05 -0.000161041)
(-3.55381e-05 2.34906e-05 -0.000183751)
(-2.35698e-05 2.35784e-05 -0.000186942)
(-2.16285e-05 2.3838e-05 -0.000201159)
(-2.1225e-06 2.38816e-05 -0.000202913)
(-3.19467e-05 3.45914e-05 -0.000158077)
(-3.5388e-05 3.542e-05 -0.000180637)
(-2.34817e-05 3.55694e-05 -0.000183778)
(-2.15533e-05 3.60917e-05 -0.000197821)
(-2.11057e-06 3.61746e-05 -0.000199534)
(-3.12242e-05 3.12851e-05 -0.000136052)
(-3.45602e-05 3.20076e-05 -0.00015805)
(-2.28983e-05 3.21381e-05 -0.000161039)
(-2.10234e-05 3.26081e-05 -0.000174744)
(-2.03417e-06 3.26831e-05 -0.000176359)
(-4.68303e-05 3.1092e-06 -0.000160455)
(-5.23683e-05 3.24004e-06 -0.000193083)
(-3.52831e-05 3.29156e-06 -0.000198057)
(-3.23046e-05 3.40243e-06 -0.000218606)
(-3.46505e-06 3.43607e-06 -0.000221368)
(-4.66941e-05 3.04876e-05 -0.000158304)
(-5.2183e-05 3.11941e-05 -0.000190721)
(-3.5119e-05 3.14678e-05 -0.000195587)
(-3.21566e-05 3.21372e-05 -0.000215961)
(-3.4312e-06 3.22854e-05 -0.000218643)
(-4.61042e-05 3.32637e-05 -0.000139349)
(-5.13879e-05 3.4054e-05 -0.000170911)
(-3.434e-05 3.4344e-05 -0.000175547)
(-3.14871e-05 3.51226e-05 -0.000195536)
(-3.31933e-06 3.52868e-05 -0.000198042)
(-4.5881e-05 4.99896e-05 -0.000135268)
(-5.11026e-05 5.11315e-05 -0.000166527)
(-3.40504e-05 5.1417e-05 -0.000170934)
(-3.12138e-05 5.22124e-05 -0.000190694)
(-3.2671e-06 5.23984e-05 -0.000193092)
(-4.49295e-05 4.50037e-05 -0.000104838)
(-4.99605e-05 4.59552e-05 -0.00013521)
(-3.32593e-05 4.61786e-05 -0.000139314)
(-3.05059e-05 4.6769e-05 -0.000158217)
(-3.13424e-06 4.69062e-05 -0.000160404)
(-6.59599e-05 4.19489e-06 -0.000209051)
(-7.37545e-05 4.4814e-06 -0.000255429)
(-4.93968e-05 4.60163e-06 -0.000262821)
(-4.52121e-05 4.81274e-06 -0.0002904)
(-4.91037e-06 4.9034e-06 -0.000294342)
(-6.56668e-05 4.21189e-05 -0.000205506)
(-7.335e-05 4.37184e-05 -0.000251661)
(-4.90695e-05 4.41312e-05 -0.000258981)
(-4.49128e-05 4.49201e-05 -0.000286556)
(-4.81829e-06 4.52195e-05 -0.000290497)
(-6.43202e-05 4.59415e-05 -0.000178168)
(-7.17418e-05 4.76839e-05 -0.000223694)
(-4.81951e-05 4.82311e-05 -0.000230823)
(-4.41238e-05 4.91051e-05 -0.000258961)
(-4.60535e-06 4.94321e-05 -0.000262899)
(-6.38792e-05 6.91073e-05 -0.000171648)
(-7.106e-05 7.1126e-05 -0.000216693)
(-4.76482e-05 7.18076e-05 -0.000223755)
(-4.37117e-05 7.34163e-05 -0.000251701)
(-4.48476e-06 7.3819e-05 -0.00025557)
(-6.22353e-05 6.23552e-05 -0.000128109)
(-6.90415e-05 6.39991e-05 -0.000171615)
(-4.59053e-05 6.44398e-05 -0.000178196)
(-4.21128e-05 6.57873e-05 -0.000205512)
(-4.19625e-06 6.60789e-05 -0.000209157)
(-9.42233e-05 6.67399e-06 -0.000180981)
(-0.000106146 7.0229e-06 -0.000244994)
(-7.02533e-05 7.14423e-06 -0.000255616)
(-6.38257e-05 7.25538e-06 -0.000297925)
(-7.39847e-06 7.29189e-06 -0.000303998)
(-9.38572e-05 6.13712e-05 -0.000176071)
(-0.000105667 6.29296e-05 -0.000239746)
(-7.00139e-05 6.34655e-05 -0.000250245)
(-6.36721e-05 6.35759e-05 -0.000292052)
(-7.3614e-06 6.37285e-05 -0.000298031)
(-9.26138e-05 6.71214e-05 -0.000138867)
(-0.000104051 6.9021e-05 -0.000201346)
(-6.9607e-05 6.957e-05 -0.000211369)
(-6.35627e-05 6.99772e-05 -0.000250174)
(-7.25068e-06 7.02137e-05 -0.000255648)
(-9.18976e-05 0.000100056 -0.000130012)
(-0.000103217 0.000103218 -0.000192)
(-6.90577e-05 0.000104052 -0.000201405)
(-6.30285e-05 0.000105669 -0.000239734)
(-7.12713e-06 0.000106148 -0.000245083)
(-8.93664e-05 8.94748e-05 -7.01374e-05)
(-0.000100055 9.2006e-05 -0.00012993)
(-6.71562e-05 9.27228e-05 -0.000138845)
(-6.14672e-05 9.39676e-05 -0.000175976)
(-6.77337e-06 9.43351e-05 -0.000180985)
(-0.000131445 9.13986e-06 -0.000274694)
(-0.000148402 9.76369e-06 -0.000368548)
(-0.000102327 1.00103e-05 -0.000385894)
(-9.35946e-05 1.07207e-05 -0.000446748)
(-1.0948e-05 1.09106e-05 -0.000456912)
(-0.000130798 8.4233e-05 -0.000267339)
(-0.000147536 8.73667e-05 -0.00036013)
(-0.000101376 8.83784e-05 -0.000377039)
(-9.26988e-05 9.26707e-05 -0.000437147)
(-1.07562e-05 9.35697e-05 -0.000446979)
(-0.000128199 9.19999e-05 -0.00021568)
(-0.000144255 9.54289e-05 -0.000304759)
(-9.7023e-05 9.70702e-05 -0.000320621)
(-8.84032e-05 0.000101424 -0.000377017)
(-1.00377e-05 0.00010238 -0.0003861)
(-0.000127244 0.000137848 -0.000201424)
(-0.000142465 0.000142554 -0.000289484)
(-9.53817e-05 0.000144343 -0.000304894)
(-8.73892e-05 0.000147627 -0.000360242)
(-9.79149e-06 0.000148495 -0.000368884)
(-0.000123325 0.000123529 -0.000116824)
(-0.00013776 0.000127448 -0.000201387)
(-9.19504e-05 0.000128402 -0.000215779)
(-8.42523e-05 0.000131005 -0.000267417)
(-9.16008e-06 0.000131651 -0.000274986)
(-0.000190232 1.40597e-05 -0.000213419)
(-0.000217365 1.5466e-05 -0.000355861)
(-0.000148454 1.60295e-05 -0.000384389)
(-0.000134844 1.68769e-05 -0.000472232)
(-1.75464e-05 1.72522e-05 -0.000488658)
(-0.000188776 0.000120385 -0.000202449)
(-0.000215385 0.000126718 -0.000342324)
(-0.000147031 0.000128738 -0.000370062)
(-0.000133612 0.000133307 -0.000456561)
(-1.71706e-05 0.000134541 -0.000472472)
(-0.000183732 0.000133037 -0.000131027)
(-0.00020901 0.000139667 -0.000261751)
(-0.000141865 0.000141715 -0.000286737)
(-0.000129042 0.000146882 -0.00036995)
(-1.63178e-05 0.000148308 -0.00038452)
(-0.000181958 0.000198929 -0.00011224)
(-0.000206705 0.000206607 -0.000237741)
(-0.000139816 0.000208912 -0.000261895)
(-0.000127019 0.000215288 -0.000342354)
(-1.5752e-05 0.000217282 -0.000356136)
(-0.000175813 0.00017596 5.05741e-06)
(-0.000199027 0.000182105 -0.000112119)
(-0.000133185 0.000183879 -0.000131045)
(-0.000120674 0.000188924 -0.000202349)
(-1.43362e-05 0.00019039 -0.000213563)
(-0.000277095 2.01682e-05 -0.000408895)
(-0.000319399 2.33579e-05 -0.000602899)
(-0.000218697 2.43931e-05 -0.000649799)
(-0.000197864 2.64513e-05 -0.000773033)
(-2.73076e-05 2.7161e-05 -0.000801775)
(-0.000273824 0.000166625 -0.00038988)
(-0.000315177 0.000181477 -0.000580746)
(-0.000215612 0.00018603 -0.000625533)
(-0.000195109 0.000194952 -0.000746324)
(-2.6597e-05 0.000197707 -0.000773488)
(-0.000261881 0.000182208 -0.000288836)
(-0.000299991 0.000200012 -0.000469928)
(-0.000205221 0.000205237 -0.000511165)
(-0.000186187 0.000215629 -0.000625515)
(-2.45266e-05 0.000218715 -0.000650241)
(-0.000255602 0.000273955 -0.000255682)
(-0.000292144 0.000292209 -0.000432219)
(-0.000199994 0.00030006 -0.000470207)
(-0.00018163 0.000315255 -0.000581002)
(-2.34867e-05 0.00031948 -0.000603616)
(-0.000243132 0.00024346 -8.95371e-05)
(-0.000273885 0.00025593 -0.000255657)
(-0.00018218 0.000262214 -0.000289091)
(-0.00016677 0.000274163 -0.00039011)
(-2.02741e-05 0.000277435 -0.000409595)
(-0.000388843 3.31351e-05 -0.000289957)
(-0.000458311 3.76502e-05 -0.000573391)
(-0.000318587 4.03308e-05 -0.000646988)
(-0.000286822 4.35982e-05 -0.000828643)
(-4.6275e-05 4.55646e-05 -0.000874395)
(-0.000384164 0.000240445 -0.000263255)
(-0.000451079 0.00025969 -0.000539324)
(-0.000312609 0.000267373 -0.000609613)
(-0.000281568 0.000280825 -0.000785754)
(-4.4306e-05 0.000286076 -0.000829104)
(-0.000369091 0.000267234 -0.000120724)
(-0.000431379 0.000288193 -0.000381254)
(-0.000297452 0.00029704 -0.000443752)
(-0.000268119 0.000312204 -0.000609464)
(-4.10265e-05 0.00031818 -0.000647313)
(-0.000362624 0.000398262 -7.4964e-05)
(-0.000421267 0.000420916 -0.000323873)
(-0.000288599 0.000431026 -0.000381544)
(-0.000260428 0.000450736 -0.000539448)
(-3.83385e-05 0.00045797 -0.000573993)
(-0.000345729 0.000345904 0.000140713)
(-0.000398615 0.000362799 -7.48091e-05)
(-0.000267638 0.000369264 -0.000120871)
(-0.000241179 0.00038434 -0.00026322)
(-3.38037e-05 0.00038902 -0.000290411)
(-0.000567255 4.69294e-05 -0.000670354)
(-0.000676489 5.74902e-05 -0.00106836)
(-0.000473944 6.18284e-05 -0.00120201)
(-0.000425271 6.94169e-05 -0.0014623)
(-7.29478e-05 7.25265e-05 -0.00155029)
(-0.000556456 0.000335856 -0.00062069)
(-0.000661593 0.000373613 -0.0010075)
(-0.000462038 0.000389265 -0.00113152)
(-0.000414601 0.000414132 -0.00138292)
(-6.98295e-05 0.00042479 -0.00146311)
(-0.000528558 0.000370495 -0.00042458)
(-0.000623072 0.000415458 -0.000786146)
(-0.000433427 0.000433301 -0.000897803)
(-0.000389746 0.000461931 -0.00113158)
(-6.22204e-05 0.000473822 -0.00120291)
(-0.000510365 0.000535439 -0.000342007)
(-0.000598775 0.000598706 -0.00068791)
(-0.000415565 0.000622995 -0.000786672)
(-0.000374078 0.000661557 -0.00100806)
(-5.78671e-05 0.000676441 -0.00106976)
(-0.000463782 0.00046427 -2.51564e-05)
(-0.000535516 0.000510854 -0.000342045)
(-0.000370586 0.000529039 -0.000425167)
(-0.000336309 0.00055696 -0.000621297)
(-4.72605e-05 0.000567748 -0.000671829)
(-0.000796631 8.28505e-05 -0.000422445)
(-0.000990069 9.84995e-05 -0.00100422)
(-0.000712531 0.00011082 -0.00121345)
(-0.000635101 0.000122933 -0.00160277)
(-0.000134292 0.000132706 -0.00174687)
(-0.00078047 0.000486223 -0.000355957)
(-0.000962007 0.000541908 -0.000910795)
(-0.000688025 0.000571588 -0.0011051)
(-0.000613165 0.00061155 -0.00147179)
(-0.000124502 0.000633456 -0.00160348)
(-0.000739473 0.000545916 -8.40716e-05)
(-0.00090469 0.000607781 -0.000599238)
(-0.000642891 0.000641891 -0.000764912)
(-0.000573233 0.000687059 -0.00110501)
(-0.000112361 0.000711532 -0.00121414)
(-0.000716919 0.000797755 2.43199e-05)
(-0.000866013 0.000865099 -0.000453574)
(-0.000608746 0.00090375 -0.000599744)
(-0.000543524 0.00096112 -0.000911152)
(-0.000100015 0.000989152 -0.00100538)
(-0.000670106 0.000670246 0.000431126)
(-0.000798694 0.000717059 2.44663e-05)
(-0.000546889 0.000739588 -8.4493e-05)
(-0.000487845 0.000780603 -0.000356189)
(-8.43242e-05 0.000796739 -0.000423545)
(-0.00116331 0.000113377 -0.0011529)
(-0.00146763 0.000150895 -0.00197356)
(-0.00107248 0.000170134 -0.00237221)
(-0.000958702 0.000200417 -0.00293756)
(-0.000216932 0.000215908 -0.00323196)
(-0.00112499 0.000674223 -0.00101914)
(-0.00141086 0.00077859 -0.001801)
(-0.00102301 0.000837802 -0.00215596)
(-0.000912986 0.000911893 -0.00268607)
(-0.000201408 0.000957529 -0.00293874)
(-0.00105635 0.000750755 -0.000645144)
(-0.00130402 0.00087266 -0.00136198)
(-0.00093918 0.000938631 -0.00167368)
(-0.000838975 0.00102255 -0.00215636)
(-0.000171104 0.00107191 -0.00237393)
(-0.000999997 0.00105074 -0.000435096)
(-0.00122294 0.00122252 -0.00110328)
(-0.000873125 0.00130352 -0.00136285)
(-0.000779707 0.00141051 -0.00180216)
(-0.00015182 0.00146717 -0.00197606)
(-0.000880436 0.00088108 0.000146816)
(-0.00105123 0.00100064 -0.000435372)
(-0.000751225 0.00105692 -0.000646374)
(-0.000675355 0.00112563 -0.00102059)
(-0.000114221 0.00116387 -0.00115581)
(-0.00163861 0.000216572 -0.000654266)
(-0.00220961 0.000270843 -0.00187123)
(-0.00167653 0.000326872 -0.00251183)
(-0.00149486 0.000374073 -0.00339835)
(-0.000428993 0.000425603 -0.00391412)
(-0.00158259 0.000994004 -0.000482186)
(-0.00209905 0.0011535 -0.00159741)
(-0.00157309 0.00127014 -0.00216784)
(-0.00139596 0.00139277 -0.00295321)
(-0.000377388 0.0014915 -0.00339907)
(-0.00147468 0.00112996 4.26106e-05)
(-0.00193343 0.00130549 -0.000984456)
(-0.00143727 0.001435 -0.00144692)
(-0.0012735 0.00157096 -0.00216825)
(-0.000330099 0.00167421 -0.00251319)
(-0.00140218 0.00158985 0.000299154)
(-0.00179395 0.00179189 -0.000603024)
(-0.00130762 0.00193126 -0.000985188)
(-0.00115675 0.00209711 -0.00159833)
(-0.000273974 0.0022075 -0.00187323)
(-0.00126667 0.00126654 0.00105966)
(-0.00159202 0.00140205 0.000299044)
(-0.00113211 0.00147443 4.15878e-05)
(-0.000997302 0.00158244 -0.000483315)
(-0.000219585 0.00163831 -0.000656711)
(-0.00241156 0.000285022 -0.00195296)
(-0.00332553 0.000424385 -0.00364407)
(-0.00259954 0.000513657 -0.00487008)
(-0.00236102 0.000645324 -0.00617174)
(-0.000732725 0.000730545 -0.00725754)
(-0.0022692 0.00137107 -0.00159474)
(-0.00309681 0.00166537 -0.0031491)
(-0.00237876 0.00190273 -0.0041763)
(-0.00214424 0.00214202 -0.00532635)
(-0.00064743 0.00235849 -0.00617269)
(-0.00210951 0.00153203 -0.00089767)
(-0.00279379 0.00186698 -0.00229069)
(-0.00212291 0.00212121 -0.00316304)
(-0.00190526 0.00237737 -0.00417772)
(-0.000515821 0.0025977 -0.00487301)
(-0.00192534 0.00206801 -0.00038072)
(-0.00250751 0.00250624 -0.0016215)
(-0.00186837 0.00279226 -0.00229191)
(-0.00166774 0.00309574 -0.00315138)
(-0.000426437 0.00332399 -0.00364797)
(-0.00166002 0.00166056 0.000633942)
(-0.00206953 0.00192589 -0.000381518)
(-0.00153352 0.0021098 -0.000899996)
(-0.00137362 0.00226965 -0.00159779)
(-0.000286977 0.00241167 -0.00195808)
(-0.00337686 0.000574403 -0.00101301)
(-0.00512726 0.000764892 -0.00358801)
(-0.00420424 0.00101969 -0.00565055)
(-0.00388245 0.00121805 -0.00787795)
(-0.00151624 0.00150895 -0.00997162)
(-0.00318024 0.00204939 -0.000556501)
(-0.0046811 0.0025069 -0.00274686)
(-0.00375032 0.00297724 -0.00447301)
(-0.00339243 0.00338686 -0.00620971)
(-0.001225 0.00387615 -0.0078781)
(-0.00290592 0.00234399 0.000449961)
(-0.00419925 0.00283305 -0.0015687)
(-0.0033243 0.00331939 -0.00288516)
(-0.00298353 0.00374592 -0.00447504)
(-0.0010262 0.00419898 -0.00565307)
(-0.00267671 0.00312168 0.00103382)
(-0.0037055 0.00370142 -0.000570597)
(-0.00283746 0.00419476 -0.0015695)
(-0.00251282 0.00467753 -0.00274912)
(-0.00077104 0.00512297 -0.00359115)
(-0.00230864 0.00230772 0.0024274)
(-0.00312617 0.00267578 0.0010328)
(-0.00234839 0.00290458 0.000447708)
(-0.00205548 0.00317931 -0.000560059)
(-0.000580099 0.00337534 -0.0010181)
(-0.00505595 0.000739932 -0.0029732)
(-0.00796395 0.00126439 -0.00643648)
(-0.00688936 0.00168972 -0.0102341)
(-0.0066821 0.00231304 -0.0135918)
(-0.00282694 0.00282338 -0.0180936)
(-0.00452023 0.00283389 -0.00205599)
(-0.007014 0.00368466 -0.0050375)
(-0.00584146 0.0046681 -0.00794406)
(-0.00554929 0.00554487 -0.0105844)
(-0.00231695 0.00667705 -0.0135891)
(-0.00418144 0.00312217 -0.000794955)
(-0.00612948 0.00404311 -0.00340142)
(-0.00502906 0.00502452 -0.00574928)
(-0.00467314 0.00583781 -0.00794824)
(-0.00169413 0.00688453 -0.0102383)
(-0.00357332 0.00404595 0.000326301)
(-0.0051113 0.00510821 -0.00177973)
(-0.00404677 0.00612571 -0.00340264)
(-0.00368937 0.00701141 -0.00504173)
(-0.00126869 0.00795983 -0.0064412)
(-0.00308939 0.00308893 0.00198025)
(-0.00404973 0.00357286 0.000324557)
(-0.00312621 0.0041803 -0.000798591)
(-0.00283928 0.0045194 -0.00206163)
(-0.000744282 0.00505412 -0.00298098)
(-0.00694345 0.00149037 -0.00123431)
(-0.0123895 0.00216092 -0.0066099)
(-0.0113606 0.00330635 -0.0133251)
(-0.0117427 0.00422076 -0.0198479)
(-0.0060254 0.0060079 -0.0293791)
(-0.0062516 0.00422786 -1.36722e-05)
(-0.0105703 0.00554199 -0.00401723)
(-0.00929767 0.00746235 -0.00913937)
(-0.00903782 0.00903072 -0.0130671)
(-0.00423642 0.0117323 -0.0198483)
(-0.0055892 0.00472628 0.00176816)
(-0.0091545 0.00609076 -0.00191115)
(-0.00787135 0.00786104 -0.0055419)
(-0.00747281 0.00928903 -0.00914503)
(-0.00331959 0.0113479 -0.0133293)
(-0.00484459 0.00589712 0.00309104)
(-0.00743499 0.00742794 0.000550815)
(-0.00609939 0.00914637 -0.00191173)
(-0.00555141 0.0105653 -0.00402237)
(-0.00217275 0.0123816 -0.00661512)
(-0.00401019 0.00400751 0.00530248)
(-0.00590525 0.00484192 0.0030877)
(-0.00473458 0.00558544 0.00176343)
(-0.0042381 0.00624927 -2.26598e-05)
(-0.0015003 0.00693885 -0.00124379)
(-0.0105858 0.00195649 -0.00316622)
(-0.0200555 0.00385475 -0.00998346)
(-0.0201282 0.00587329 -0.0214104)
(-0.0227333 0.00909738 -0.031712)
(-0.0123681 0.0123675 -0.0531815)
(-0.00864502 0.00583615 -0.000992158)
(-0.0161404 0.0083831 -0.00627447)
(-0.0148915 0.0124504 -0.0138928)
(-0.0162567 0.0162462 -0.0204822)
(-0.00910278 0.022724 -0.0316918)
(-0.00796357 0.00622677 0.000969742)
(-0.0134404 0.00861091 -0.00333101)
(-0.0122625 0.0122517 -0.00904321)
(-0.0124597 0.0148827 -0.0139043)
(-0.00588132 0.0201185 -0.0214135)
(-0.00618833 0.0075813 0.00313119)
(-0.010115 0.010108 8.9245e-05)
(-0.00861971 0.0134319 -0.00333096)
(-0.00839246 0.0161345 -0.00628203)
(-0.00386325 0.0200461 -0.00998545)
(-0.00536149 0.0053577 0.0053472)
(-0.00758981 0.00618454 0.00312801)
(-0.00623645 0.00795828 0.000964505)
(-0.00584629 0.00864036 -0.00100175)
(-0.00196561 0.0105797 -0.00317655)
(-0.0139828 0.00366098 0.000800452)
(-0.030637 0.0058627 -0.00949059)
(-0.0330973 0.010816 -0.030001)
(-0.0435119 0.0154522 -0.0536369)
(-0.0275728 0.0275203 -0.101633)
(-0.0117094 0.00836328 0.00358202)
(-0.0234733 0.0121947 -0.00232121)
(-0.0235101 0.0198294 -0.0157793)
(-0.0268322 0.0268338 -0.0244019)
(-0.0154952 0.0434983 -0.0536444)
(-0.0100279 0.00884928 0.00627583)
(-0.0191689 0.0124549 0.00075762)
(-0.0184469 0.0184251 -0.00776513)
(-0.0198429 0.0234938 -0.0157926)
(-0.0108445 0.0330625 -0.030006)
(-0.0079854 0.0102745 0.00858034)
(-0.0138976 0.0138874 0.00562996)
(-0.0124711 0.0191555 0.00075755)
(-0.0122061 0.0234703 -0.00233206)
(-0.00588571 0.0306218 -0.0095019)
(-0.00629719 0.00629133 0.0111106)
(-0.0102879 0.00797954 0.00857267)
(-0.00886399 0.0100188 0.00626728)
(-0.00837861 0.011705 0.003563)
(-0.00367779 0.0139698 0.000786092)
(-0.0212047 0.00473226 0.00194239)
(-0.0508483 0.0110224 -0.00884444)
(-0.0642799 0.0201113 -0.0386408)
(-0.0942672 0.0384305 -0.0770299)
(-0.0608318 0.0608646 -0.195245)
(-0.0147576 0.0113123 0.00574646)
(-0.0354982 0.0186282 -0.00113336)
(-0.0369708 0.0346715 -0.0172728)
(-0.0540939 0.0540623 -0.0346559)
(-0.0384282 0.0942526 -0.0769596)
(-0.013653 0.0112257 0.00824921)
(-0.0274816 0.0165628 0.00307991)
(-0.0288124 0.0287882 -0.00724749)
(-0.0346859 0.0369511 -0.0172962)
(-0.0201262 0.0642664 -0.0386259)
(-0.00924332 0.0124173 0.0110247)
(-0.0179392 0.0179244 0.00818906)
(-0.0165824 0.0274646 0.00308422)
(-0.0186488 0.0354866 -0.00114576)
(-0.0110401 0.0508296 -0.00883709)
(-0.00797263 0.00796113 0.0129285)
(-0.0124343 0.00923182 0.0110177)
(-0.0112468 0.0136392 0.00824167)
(-0.0113283 0.0147448 0.00572972)
(-0.00474962 0.0211956 0.0019334)
(-0.0251816 0.00745853 0.0145291)
(-0.0712067 0.0135715 0.00344)
(-0.101056 0.0322415 -0.0442189)
(-0.201615 0.058942 -0.151612)
(-0.156676 0.156478 -0.417976)
(-0.0188673 0.0146683 0.0184456)
(-0.0464925 0.0241112 0.0147019)
(-0.0570545 0.051198 -0.00709514)
(-0.0864132 0.0864612 -0.0211839)
(-0.059099 0.20161 -0.151627)
(-0.0153905 0.0141287 0.0198071)
(-0.0346658 0.0217808 0.0165258)
(-0.038833 0.0387921 0.00555777)
(-0.0511968 0.0570257 -0.00714033)
(-0.0323045 0.10096 -0.0442137)
(-0.0109386 0.0149552 0.0214048)
(-0.0218392 0.0218263 0.0208513)
(-0.0218094 0.0346448 0.0165293)
(-0.0241196 0.046496 0.01468)
(-0.0136126 0.0711677 0.00341291)
(-0.00827656 0.00826364 0.0215277)
(-0.0149761 0.0109257 0.0213915)
(-0.0141531 0.0153696 0.0197929)
(-0.0146851 0.0188586 0.0184086)
(-0.00748589 0.0251522 0.0145035)
(-0.0328078 0.0086501 0.0265383)
(-0.109285 0.0223316 0.030337)
(-0.174924 0.0578901 0.00784348)
(-0.395711 0.100437 -0.0615079)
(-0.826702 0.318553 -0.709482)
(-0.0187215 0.0165862 0.0268524)
(-0.0610237 0.0316814 0.0297114)
(-0.072201 0.0843186 0.0179936)
(-0.187397 0.187375 -0.0217264)
(-0.225314 0.424075 -0.205372)
(-0.0170942 0.0141845 0.027433)
(-0.0417241 0.0227104 0.0285022)
(-0.05248 0.0524139 0.0260278)
(-0.0843278 0.0721622 0.0180007)
(-0.0579467 0.175031 0.00796194)
(-0.00985912 0.0141361 0.0269901)
(-0.0228106 0.0227861 0.0290587)
(-0.0227519 0.0416928 0.0285115)
(-0.0317327 0.0610205 0.0296936)
(-0.022386 0.109238 0.0303297)
(-0.00813522 0.00811038 0.0259623)
(-0.0141674 0.00983428 0.0269758)
(-0.0142291 0.0170626 0.0274211)
(-0.0166135 0.0186936 0.0268276)
(-0.00868931 0.0328004 0.0265381)
(-0.0215378 0.00778771 0.0660068)
(-0.0863814 0.0129471 0.090056)
(-0.109951 0.042869 0.19785)
(-0.528057 0.127619 0.212615)
(-2.29428 0.409754 -1.41224)
(-0.016151 0.0155774 0.0562619)
(-0.0548037 0.0222011 0.067609)
(-0.0691283 0.0672823 0.123229)
(-0.254544 0.167483 0.188636)
(-0.443229 0.637015 0.343869)
(-0.0143775 0.014274 0.0475853)
(-0.0360251 0.0211166 0.0608387)
(-0.0487366 0.0487133 0.0889746)
(-0.0671639 0.0691778 0.123126)
(-0.0429783 0.110171 0.197705)
(-0.00887321 0.0134851 0.0416544)
(-0.0203126 0.0202947 0.0473906)
(-0.0211631 0.0359925 0.0608594)