/*--------------------------------*- C++ -*----------------------------------*\
| =========                 |                                                 |
| \\      /  F ield         | OpenFOAM: The Open Source CFD Toolbox           |
|  \\    /   O peration     | Version:  5.x                                   |
|   \\  /    A nd           | Web:      www.OpenFOAM.org                      |
|    \\/     M anipulation  |                                                 |
\*---------------------------------------------------------------------------*/
FoamFile
{
    version     2.0;
    format      ascii;
    class       volScalarField;
    location    "0.069";
    object      phiIB;
}
// * * * * * * * * * * * * * * * * * * * * * * * * * * * * * * * * * * * * * //

dimensions      [0 2 -1 0 0 0 0];

internalField   nonuniform List<scalar> 
1567
(
-0.000212959
-0.000212926
-0.000212934
-0.000212913
-0.000212919
-0.000212925
-0.00021286
-0.000212858
-0.000212833
-0.000212836
-0.000212934
-0.000212857
-0.000212849
-0.000212823
-0.000212825
-0.000212913
-0.000212832
-0.000212822
-0.000212794
-0.000212796
-0.000212918
-0.000212835
-0.000212825
-0.000212796
-0.000212797
-0.000429215
-0.00042918
-0.000429161
-0.000429141
-0.000429132
-0.00042918
-0.000429152
-0.000429133
-0.000429117
-0.000429109
-0.00042916
-0.000429132
-0.000429111
-0.000429095
-0.000429088
-0.000429141
-0.000429116
-0.000429094
-0.000429079
-0.000429073
-0.00042913
-0.000429108
-0.000429087
-0.000429072
-0.000429065
-0.000994301
-0.000994201
-0.00099416
-0.000994117
-0.000994106
-0.000994201
-0.000994098
-0.000994055
-0.00099401
-0.000993998
-0.000994159
-0.000994055
-0.000994012
-0.000993965
-0.000993954
-0.000994115
-0.000994008
-0.000993965
-0.000993917
-0.000993905
-0.000994103
-0.000993996
-0.000993952
-0.000993904
-0.000993893
-0.00129968
-0.00129958
-0.00129952
-0.00129946
-0.00129945
-0.00129958
-0.00129947
-0.00129942
-0.00129936
-0.00129935
-0.00129952
-0.00129942
-0.00129936
-0.00129931
-0.00129929
-0.00129946
-0.00129936
-0.00129931
-0.00129925
-0.00129924
-0.00129944
-0.00129934
-0.00129929
-0.00129924
-0.00129922
-0.00182062
-0.00182046
-0.00182038
-0.0018203
-0.00182028
-0.00182046
-0.0018203
-0.00182022
-0.00182014
-0.00182011
-0.00182038
-0.00182021
-0.00182013
-0.00182005
-0.00182003
-0.0018203
-0.00182013
-0.00182005
-0.00181997
-0.00181995
-0.00182028
-0.00182011
-0.00182003
-0.00181995
-0.00181992
-0.00216866
-0.00216846
-0.00216835
-0.00216825
-0.00216822
-0.00216846
-0.00216825
-0.00216814
-0.00216804
-0.00216801
-0.00216835
-0.00216814
-0.00216803
-0.00216793
-0.0021679
-0.00216825
-0.00216804
-0.00216793
-0.00216783
-0.00216779
-0.00216821
-0.002168
-0.00216789
-0.00216779
-0.00216776
-0.00265455
-0.00265426
-0.00265411
-0.00265398
-0.00265393
-0.00265426
-0.00265396
-0.00265381
-0.00265367
-0.00265363
-0.00265411
-0.00265381
-0.00265366
-0.00265351
-0.00265347
-0.00265397
-0.00265367
-0.00265351
-0.00265337
-0.00265332
-0.00265393
-0.00265362
-0.00265346
-0.00265332
-0.00265328
-0.00302983
-0.00302944
-0.00302924
-0.00302906
-0.003029
-0.00302944
-0.00302904
-0.00302883
-0.00302865
-0.00302859
-0.00302923
-0.00302883
-0.00302862
-0.00302843
-0.00302837
-0.00302905
-0.00302864
-0.00302843
-0.00302824
-0.00302818
-0.00302899
-0.00302858
-0.00302837
-0.00302817
-0.00302811
-0.00349186
-0.00349132
-0.00349105
-0.0034908
-0.00349073
-0.00349132
-0.00349076
-0.00349047
-0.00349021
-0.00349014
-0.00349104
-0.00349047
-0.00349018
-0.00348992
-0.00348985
-0.00349079
-0.00349021
-0.00348992
-0.00348965
-0.00348957
-0.00349071
-0.00349012
-0.00348983
-0.00348956
-0.00348949
-0.00388381
-0.00388306
-0.00388269
-0.00388235
-0.00388226
-0.00388306
-0.00388229
-0.0038819
-0.00388155
-0.00388145
-0.00388268
-0.00388189
-0.0038815
-0.00388114
-0.00388104
-0.00388234
-0.00388154
-0.00388114
-0.00388077
-0.00388067
-0.00388223
-0.00388143
-0.00388102
-0.00388066
-0.00388055
-0.00432844
-0.00432741
-0.00432691
-0.00432646
-0.00432634
-0.0043274
-0.00432632
-0.0043258
-0.00432533
-0.0043252
-0.0043269
-0.00432579
-0.00432527
-0.00432478
-0.00432465
-0.00432644
-0.00432531
-0.00432477
-0.00432427
-0.00432414
-0.00432631
-0.00432517
-0.00432463
-0.00432412
-0.00432399
-0.0047293
-0.00472787
-0.00472718
-0.00472657
-0.00472641
-0.00472786
-0.00472637
-0.00472565
-0.00472501
-0.00472483
-0.00472716
-0.00472564
-0.0047249
-0.00472425
-0.00472407
-0.00472654
-0.00472499
-0.00472424
-0.00472357
-0.00472338
-0.00472636
-0.00472479
-0.00472404
-0.00472337
-0.00472317
-0.00515867
-0.00515675
-0.00515591
-0.00515516
-0.005155
-0.00515675
-0.0051547
-0.0051538
-0.00515298
-0.00515279
-0.00515589
-0.00515379
-0.00515288
-0.00515204
-0.00515186
-0.00515512
-0.00515295
-0.00515202
-0.00515115
-0.00515096
-0.00515494
-0.00515273
-0.00515181
-0.00515093
-0.00515074
-0.00556069
-0.00555803
-0.00555694
-0.00555596
-0.00555576
-0.00555802
-0.00555524
-0.00555408
-0.00555305
-0.00555282
-0.00555692
-0.00555406
-0.00555288
-0.00555183
-0.00555159
-0.0055559
-0.005553
-0.0055518
-0.00555077
-0.00555056
-0.00555568
-0.00555274
-0.00555153
-0.00555053
-0.00555031
-0.00597165
-0.00596844
-0.00596743
-0.00596651
-0.00596651
-0.00596843
-0.00596489
-0.00596383
-0.00596278
-0.00596273
-0.00596739
-0.00596381
-0.00596284
-0.00596186
-0.00596186
-0.00596644
-0.00596272
-0.00596183
-0.00596078
-0.00596088
-0.00596639
-0.00596262
-0.00596177
-0.00596084
-0.00596124
-0.00636113
-0.00635684
-0.00635603
-0.00635501
-0.00635513
-0.00635683
-0.00635246
-0.00635174
-0.00635092
-0.00635118
-0.00635598
-0.0063517
-0.00635141
-0.00635109
-0.0063518
-0.00635491
-0.00635084
-0.00635104
-0.00635122
-0.00635207
-0.00635497
-0.00635103
-0.00635168
-0.00635201
-0.00635341
-0.00673709
-0.0067326
-0.00673284
-0.00673241
-0.00673308
-0.00673258
-0.00672798
-0.00672879
-0.00672888
-0.00673034
-0.00673277
-0.00672874
-0.00673006
-0.00673121
-0.00673397
-0.00673227
-0.00672876
-0.00673114
-0.00673694
-0.00674251
-0.00673285
-0.00673013
-0.00673381
-0.00674242
-0.00674862
-0.00707901
-0.00707051
-0.00707018
-0.00706924
-0.00707076
-0.00707048
-0.00706387
-0.00706485
-0.00706577
-0.00706874
-0.00707009
-0.00706478
-0.00706654
-0.00707019
-0.00707334
-0.00706905
-0.00706561
-0.00707009
-0.00707235
-0.00707404
-0.00707044
-0.00706845
-0.00707311
-0.00707391
-0.00707506
-0.00737973
-0.00736255
-0.00735791
-0.00735453
-0.00735392
-0.00736251
-0.00735007
-0.00734904
-0.0073472
-0.00734642
-0.00735778
-0.00734894
-0.00734931
-0.00734532
-0.00734426
-0.00735427
-0.00734697
-0.00734518
-0.00734031
-0.00733918
-0.00735348
-0.00734601
-0.00734394
-0.00733899
-0.00733784
-0.00761295
-0.00758979
-0.00757522
-0.00756225
-0.00755804
-0.00758975
-0.0075635
-0.00755185
-0.00754163
-0.00753606
-0.00757505
-0.00755172
-0.00753892
-0.0075255
-0.00751794
-0.00756188
-0.0075413
-0.00752531
-0.00751087
-0.00750159
-0.00755743
-0.00753548
-0.00751748
-0.00750131
-0.00748927
-0.00777352
-0.00774684
-0.00773077
-0.00771522
-0.0077116
-0.00774677
-0.0077142
-0.0076948
-0.00767712
-0.00766973
-0.00773053
-0.00769462
-0.00767113
-0.00765025
-0.00763951
-0.00771471
-0.00767667
-0.00764998
-0.00762651
-0.00761132
-0.00771076
-0.00766894
-0.00763886
-0.00761092
-0.00759338
-0.00786228
-0.00782708
-0.00780871
-0.00779515
-0.00778713
-0.00782699
-0.00778598
-0.00775442
-0.00773178
-0.00771621
-0.00780838
-0.00775418
-0.00771113
-0.00768031
-0.00765074
-0.00779445
-0.00773117
-0.00767994
-0.00764738
-0.00760892
-0.00778597
-0.00771511
-0.00764984
-0.00760837
-0.00755609
-0.00791611
-0.00787782
-0.00786658
-0.00785689
-0.00785359
-0.0078777
-0.00783216
-0.00780877
-0.00779226
-0.0077789
-0.00786613
-0.00780844
-0.00777526
-0.00774948
-0.0077317
-0.00785596
-0.00779144
-0.00774897
-0.00772538
-0.007692
-0.00785202
-0.00777741
-0.00773049
-0.00769124
-0.00765768
-0.00791868
-0.00786863
-0.00784967
-0.00784056
-0.007837
-0.00786847
-0.0078131
-0.00778049
-0.00776319
-0.00773998
-0.00784905
-0.00778005
-0.00772106
-0.00769025
-0.00764303
-0.00783927
-0.00776206
-0.00768956
-0.00766576
-0.00761317
-0.00783483
-0.00773795
-0.00764139
-0.00761218
-0.0074747
-0.00794116
-0.00789396
-0.0078858
-0.00787973
-0.00787986
-0.00789375
-0.00784082
-0.00781347
-0.00781818
-0.00778899
-0.00788498
-0.00781286
-0.00778321
-0.00777104
-0.00772952
-0.00787797
-0.00781664
-0.0077701
-0.00781126
-0.00768162
-0.00787687
-0.00778619
-0.00772733
-0.00768046
-0.00748605
-0.00790886
-0.0078435
-0.00781611
-0.00779897
-0.0077932
-0.00784323
-0.00776618
-0.00771158
-0.00770774
-0.00768716
-0.00781505
-0.0077108
-0.00764636
-0.00763459
-0.00755294
-0.00779661
-0.00770564
-0.00763323
-0.00763609
-0.00762632
-0.00778911
-0.00768326
-0.00754961
-0.0076249
-0.00749979
-0.0078901
-0.00782538
-0.00780465
-0.00779289
-0.00778956
-0.0078251
-0.00776509
-0.00769696
-0.0077245
-0.00760395
-0.00780345
-0.00769604
-0.00759417
-0.00755711
-0.00743826
-0.00779013
-0.00772193
-0.00755524
-0.00779684
-0.00721335
-0.00778464
-0.00759884
-0.00743295
-0.00720952
-0.00743323
-0.00782098
-0.00774666
-0.00772657
-0.0076852
-0.00770859
-0.00774638
-0.00767501
-0.0075895
-0.00760516
-0.00756337
-0.00772539
-0.00758871
-0.00750962
-0.00739569
-0.00736696
-0.0076825
-0.00760289
-0.00739418
-0.00719741
-0.00717488
-0.00770374
-0.00755916
-0.00736154
-0.00717459
-0.00703744
-0.00772757
-0.00768816
-0.00768554
-0.00770296
-0.0077455
-0.00768798
-0.00766175
-0.00766203
-0.00767064
-0.00772647
-0.00768466
-0.00766139
-0.00765105
-0.00770811
-0.007818
-0.00770091
-0.00766912
-0.00770772
-0.00744089
-0.00756615
-0.00774194
-0.00772383
-0.00781739
-0.00757006
-0.0080729
-0.00764204
-0.00760034
-0.00760037
-0.00759319
-0.00765848
-0.00760023
-0.00756456
-0.00752794
-0.00753582
-0.00751325
-0.0075997
-0.00752749
-0.00749432
-0.00737309
-0.00738479
-0.00759162
-0.00753472
-0.00737294
-0.00746444
-0.00723159
-0.00765564
-0.00751147
-0.00738511
-0.00723554
-0.0072038
-0.00738887
-0.00736956
-0.00736843
-0.00739497
-0.00744116
-0.00736955
-0.00735189
-0.00733675
-0.00735001
-0.0073345
-0.00736802
-0.00733644
-0.00731522
-0.00728423
-0.00734073
-0.00739394
-0.00734937
-0.00728425
-0.00725838
-0.00711966
-0.0074393
-0.00733356
-0.00734143
-0.00712181
-0.00656001
-0.00731516
-0.00731469
-0.00734289
-0.00736711
-0.0074406
-0.00731471
-0.00733548
-0.00736044
-0.00740356
-0.00745669
-0.0073427
-0.00736027
-0.00744636
-0.00750696
-0.00776017
-0.00736655
-0.00740319
-0.00750697
-0.00730519
-0.00738754
-0.00743954
-0.00745615
-0.00776057
-0.00738837
-0.00771503
-0.00687395
-0.00689269
-0.00691087
-0.00695172
-0.00700241
-0.00689275
-0.00690944
-0.00693866
-0.00697647
-0.00704119
-0.00691083
-0.00693858
-0.00698612
-0.00705285
-0.00727394
-0.00695146
-0.00697626
-0.00705281
-0.00698797
-0.00733116
-0.00700185
-0.00704082
-0.00727401
-0.00733139
-0.00807305
-0.00682958
-0.00684463
-0.00684345
-0.0068642
-0.0068652
-0.0068447
-0.00686057
-0.0068589
-0.00686836
-0.00689193
-0.00684348
-0.00685887
-0.00680319
-0.00678248
-0.00694951
-0.0068641
-0.00686825
-0.00678244
-0.00645715
-0.00544405
-0.00686491
-0.00689169
-0.00694944
-0.00544403
-0.00960496
-0.0060761
-0.0060895
-0.00610408
-0.00614283
-0.00617626
-0.00608957
-0.00611374
-0.006135
-0.00618584
-0.00627118
-0.00610415
-0.00613501
-0.00612739
-0.00614174
-0.00632642
-0.00614283
-0.00618581
-0.00614172
-0.00587527
-0.00571638
-0.00617615
-0.00627106
-0.00632636
-0.00571635
-0.0061721
-0.00572232
-0.00572424
-0.00570508
-0.00570566
-0.00569876
-0.0057243
-0.00572545
-0.0056967
-0.00568736
-0.00569645
-0.00570516
-0.00569672
-0.00559431
-0.00552511
-0.00548827
-0.00570572
-0.00568736
-0.00552511
-0.00523745
-0.00497918
-0.00569876
-0.00569643
-0.00548825
-0.00497916
-0.00462706
-0.00432785
-0.00431027
-0.00427123
-0.0042497
-0.00422614
-0.00431033
-0.0042915
-0.0042461
-0.00423033
-0.00421844
-0.00427132
-0.00424612
-0.00418087
-0.00413452
-0.00408939
-0.00424977
-0.00423034
-0.00413451
-0.00401434
-0.00394788
-0.00422616
-0.00421841
-0.00408936
-0.00394786
-0.00397906
-0.00348086
-0.0034825
-0.00347355
-0.0034726
-0.00346903
-0.00348254
-0.00349025
-0.00348324
-0.00349111
-0.00349372
-0.00347361
-0.00348326
-0.00347088
-0.00350003
-0.00352745
-0.00347266
-0.00349113
-0.00350003
-0.00354919
-0.00360172
-0.00346906
-0.00349371
-0.00352744
-0.00360171
-0.00370694
-0.00148134
-0.00147888
-0.00147632
-0.00147864
-0.00148208
-0.00147891
-0.00147775
-0.0014779
-0.00148527
-0.00150565
-0.00147637
-0.00147792
-0.00149914
-0.00154779
-0.00158092
-0.00147868
-0.00148529
-0.00154779
-0.00159212
-0.00159283
-0.00148211
-0.00150564
-0.0015809
-0.00159282
-0.00158706
-0.000788017
-0.00079165
-0.000792933
-0.000798487
-0.000801472
-0.000791665
-0.000805319
-0.000810778
-0.000826098
-0.000835466
-0.000792958
-0.000810787
-0.00082421
-0.000854249
-0.00088027
-0.000798507
-0.000826102
-0.000854245
-0.000931614
-0.00100008
-0.00080149
-0.000835463
-0.000880255
-0.00100007
-0.00108978
-0.00707258
-0.00707777
-0.00644356
-0.00707099
-0.00519991
-0.00520274
-0.00536299
-0.00630633
-0.00630858
-0.00749013
-0.0084237
-0.0107208
-0.0107218
-0.0116137
-0.0103449
-0.0103454
-0.0130344
-0.00475144
-0.0101569
-0.010157
-0.0131682
-0.00750543
-0.00752182
-0.00761216
-0.00719504
-0.00654428
-0.00655052
-0.00610567
-0.00722729
-0.00730371
-0.00751536
-0.00741999
-0.00735458
-0.00738056
-0.00711567
-0.00730808
-0.00723545
-0.00752811
-0.00742299
-0.00738387
-0.00736083
-0.00712419
-0.00799659
-0.00804477
-0.00831565
-0.00683486
-0.00718395
-0.00693885
-0.0072677
-0.00804508
-0.00799691
-0.00831616
-0.00683496
-0.00693897
-0.00718415
-0.00726796
-0.0105351
-0.0105559
-0.00842964
-0.00666554
-0.00795088
-0.00797186
-0.0083164
-0.0066489
-0.00766478
-0.00767356
-0.00799186
-0.00745865
-0.00740274
-0.00740896
-0.00769069
-0.00738894
-0.00751584
-0.0070551
-0.00769005
-0.00666753
-0.00789821
-0.00769644
-0.00739851
-0.00753046
-0.00706815
-0.00769672
-0.00667579
-0.00790947
-0.011312
-0.0122043
-0.0122045
-0.015438
-0.0112353
-0.0135234
-0.0135236
-0.0112984
-0.00962116
-0.0114593
-0.00965308
-0.0106744
-0.0083227
-0.0134155
-0.0112986
-0.00962153
-0.0114598
-0.00965339
-0.0106747
-0.00832292
-0.0134158
-0.00804807
-0.00805929
-0.00773068
-0.00850294
-0.00839798
-0.00846976
-0.00848367
-0.00771073
-0.00786967
-0.008266
-0.0073772
-0.00765309
-0.00786817
-0.0082416
-0.00787243
-0.00771857
-0.0082849
-0.00738109
-0.00787319
-0.00766173
-0.00826241
-0.0102255
-0.00889573
-0.00889585
-0.00690303
-0.0103223
-0.00824159
-0.00824164
-0.00769455
-0.00832182
-0.00810566
-0.0084784
-0.00843612
-0.00836553
-0.00861089
-0.00770575
-0.00834012
-0.00811308
-0.00848676
-0.00846076
-0.00837796
-0.00863265
-0.0079226
-0.00792584
-0.0094266
-0.0092164
-0.00775781
-0.00818109
-0.00818479
-0.0104216
-0.0104097
-0.0113582
-0.0113586
-0.0111206
-0.0104007
-0.0104012
-0.00761325
-0.00770329
-0.0082249
-0.0077334
-0.00783134
-0.00812888
-0.00983736
-0.0077039
-0.0076148
-0.00822728
-0.0077339
-0.00812915
-0.00783228
-0.00983835
-0.0104618
-0.0113353
-0.0102195
-0.0109194
-0.0109377
-0.0104959
-0.0104908
-0.0104623
-0.0113368
-0.0102201
-0.0109202
-0.0109385
-0.0104962
-0.0104919
-0.00586483
-0.00585404
0.000266875
-0.00741914
-0.00809194
-0.00810671
-0.00736073
-0.00903429
-0.00884576
-0.00885894
-0.00863758
-0.00927298
-0.00884081
-0.00885585
-0.00911044
-0.00972752
-0.00963795
-0.00936411
-0.00994056
-0.00925498
-0.00914224
-0.0091188
-0.00973857
-0.0096585
-0.0093897
-0.00994924
-0.00926723
-0.0091658
-0.00814157
-0.00747567
-0.00731137
-0.00798182
-0.00803235
-0.00769726
-0.00775424
-0.00815482
-0.00749312
-0.00732358
-0.00800522
-0.00804614
-0.00770924
-0.00777274
-0.0110028
-0.00863535
-0.00906324
-0.00906348
-0.00926937
-0.00926971
-0.010717
-0.00990581
-0.00880248
-0.00880618
-0.00792636
-0.0107974
-0.00849575
-0.00850043
-0.00941848
-0.00771817
-0.00771907
-0.00912156
-0.00777702
-0.00925793
-0.00925864
-0.00762818
-0.00762875
-0.00781856
-0.00736836
-0.00764549
-0.00764627
-0.00750966
-0.00986848
-0.00688948
-0.00864839
-0.00937826
-0.00813179
-0.00887829
-0.00959637
-0.00986917
-0.00689087
-0.00865016
-0.00937999
-0.00813252
-0.00887934
-0.00959777
-0.0088981
-0.00761791
-0.00894247
-0.00871383
-0.00746787
-0.00834022
-0.0085412
-0.0088995
-0.00894316
-0.00761898
-0.00871481
-0.00746873
-0.00834123
-0.00854251
-0.00804995
-0.00806027
-0.00879107
-0.00669041
-0.00490979
-0.00593644
-0.00594249
-0.0070517
-0.00682029
-0.00607488
-0.00725862
-0.00770694
-0.00778471
-0.00878199
-0.00681799
-0.00704532
-0.00606517
-0.00725862
-0.00778607
-0.00770705
-0.00879425
-0.00823294
-0.00827407
-0.0080332
-0.00773396
-0.00796427
-0.00771236
-0.00785417
-0.00824462
-0.00829781
-0.00804657
-0.00774516
-0.00797891
-0.00772151
-0.00787255
-0.00782604
-0.00932144
-0.0102896
-0.00797696
-0.00612583
-0.00713681
-0.00838751
-0.00783249
-0.00933833
-0.0102966
-0.00797925
-0.0061362
-0.00714071
-0.0083991
-0.0100771
-0.00814156
-0.00814217
-0.00794184
-0.00663209
-0.00887165
-0.00887207
-0.00857981
-0.00858137
-0.00959833
-0.00689596
-0.00739076
-0.00805846
-0.0080607
-0.00747742
-0.00747747
-0.00756211
-0.00746139
-0.00760162
-0.00760164
-0.00789883
-0.00820103
-0.00772801
-0.00860979
-0.00848226
-0.0078929
-0.00820106
-0.00792539
-0.00820138
-0.00772841
-0.00861022
-0.00848284
-0.00789343
-0.00820169
-0.00792584
-0.00571284
-0.00341548
-0.00542318
-0.00542432
-0.00560924
-0.00487868
-0.00488016
-0.00813429
-0.00770544
-0.00811605
-0.00776963
-0.00759643
-0.00789462
-0.00752947
-0.00813974
-0.00770843
-0.00812203
-0.00777553
-0.00759946
-0.00789935
-0.00753326
-0.00735135
-0.00724033
-0.00686066
-0.0073662
-0.00671954
-0.0070825
-0.00612575
-0.00724245
-0.00735553
-0.0068656
-0.00736763
-0.00708381
-0.00672228
-0.00612885
-0.00417576
-0.00634406
-0.00644239
-0.00518593
-0.00671365
-0.00531033
-0.0031102
-0.00417688
-0.00634742
-0.00644418
-0.00518795
-0.00671585
-0.00531136
-0.00311275
-0.00756604
-0.00783072
-0.00848602
-0.00769418
-0.00855948
-0.00785688
-0.00796234
-0.00783245
-0.00756832
-0.00848793
-0.00769595
-0.00856085
-0.00785826
-0.00796414
-0.00625946
-0.00625512
-0.00339717
-0.00708762
-0.006872
-0.00686523
-0.000570031
-0.00403487
-0.00203429
-0.00202883
-0.00045789
-0.00211182
-0.00177244
-0.00177146
-0.00559864
-0.00630388
-0.0027048
-0.00644703
-0.00369422
-0.00710213
-0.00499319
-0.00559708
-0.00629882
-0.00269614
-0.00644329
-0.00369083
-0.0071008
-0.0049921
-0.00872684
-0.00728514
-0.00724166
-0.00841419
-0.00798848
-0.00735329
-0.00724672
-0.00873347
-0.00729296
-0.00724622
-0.00841977
-0.0079902
-0.00735445
-0.00724934
-0.00511949
-0.00759497
-0.00691666
-0.00691731
-0.00670925
-0.00670997
-0.00531637
-0.00584648
-0.00649157
-0.0064902
-0.00703676
-0.00537707
-0.0069148
-0.00691419
-0.00769596
-0.0075024
-0.0079847
-0.00773967
-0.00816943
-0.00789222
-0.00767224
-0.00769677
-0.00750344
-0.00798517
-0.00774078
-0.00817023
-0.00789306
-0.00767283
-0.00736465
-0.00736315
-0.00678087
-0.00722396
-0.00775368
-0.00775329
-0.00748728
-0.00530987
-0.00692439
-0.00692651
-0.0044779
-0.00749
-0.0048902
-0.00489211
-0.00795167
-0.00734947
-0.00767912
-0.00749196
-0.00733024
-0.00768488
-0.00742869
-0.00795505
-0.00735102
-0.00768156
-0.00749212
-0.00733171
-0.00768607
-0.00742943
-0.00473652
-0.00758751
-0.00682445
-0.00654669
-0.00714701
-0.00685303
-0.00430966
-0.00473813
-0.00759116
-0.00682887
-0.00655105
-0.00714962
-0.00685606
-0.00431304
-0.00615195
-0.00759542
-0.00617581
-0.00611896
-0.00784719
-0.00748433
-0.00749308
-0.0061558
-0.00617827
-0.00759845
-0.006122
-0.00784958
-0.00748737
-0.00749685
-0.00114906
-0.00114452
-0.00198295
-0.00634487
-0.00682355
-0.00716611
-0.00716236
)
;

boundaryField
{
    inlet
    {
        type            fixedValue;
        value           uniform 0;
    }
    wall
    {
        type            zeroGradient;
    }
    outlet
    {
        type            fixedValue;
        value           uniform 0;
    }
    procBoundary0to1
    {
        type            processor;
        value           nonuniform List<scalar> 
320
(
-0.000212916
-0.000212832
-0.000212821
-0.000212792
-0.000212793
-0.000429127
-0.000429105
-0.000429084
-0.000429069
-0.000429062
-0.0009941
-0.000993992
-0.000993947
-0.000993898
-0.000993886
-0.00129944
-0.00129934
-0.00129928
-0.00129923
-0.00129921
-0.00182027
-0.0018201
-0.00182002
-0.00181994
-0.00181991
-0.00216821
-0.002168
-0.00216789
-0.00216778
-0.00216775
-0.00265393
-0.00265362
-0.00265346
-0.00265331
-0.00265326
-0.003029
-0.00302858
-0.00302836
-0.00302816
-0.0030281
-0.00349072
-0.00349013
-0.00348983
-0.00348956
-0.00348947
-0.00388225
-0.00388144
-0.00388103
-0.00388065
-0.00388053
-0.00432634
-0.00432519
-0.00432464
-0.00432412
-0.00432397
-0.00472641
-0.00472483
-0.00472406
-0.00472337
-0.00472315
-0.00515502
-0.00515279
-0.00515185
-0.00515094
-0.00515072
-0.00555579
-0.00555283
-0.00555159
-0.00555054
-0.00555029
-0.00596655
-0.00596275
-0.00596187
-0.00596088
-0.00596124
-0.00635519
-0.0063512
-0.0063518
-0.00635207
-0.00635344
-0.00673316
-0.00673039
-0.00673404
-0.00674259
-0.00674869
-0.0070708
-0.00706875
-0.00707334
-0.00707397
-0.00707497
-0.00735389
-0.00734625
-0.00734403
-0.00733887
-0.0073375
-0.00755807
-0.00753589
-0.00751764
-0.00750107
-0.0074886
-0.00771173
-0.00766961
-0.00763919
-0.00761067
-0.00759261
-0.0077875
-0.00771605
-0.00765022
-0.00760791
-0.00755483
-0.00785422
-0.00777886
-0.00773141
-0.00769098
-0.00765633
-0.00783779
-0.00773991
-0.00764247
-0.00761114
-0.00747144
-0.00788119
-0.00778902
-0.0077288
-0.00767893
-0.00748291
-0.00779513
-0.00768708
-0.00755162
-0.00761963
-0.00747487
-0.00779272
-0.00760515
-0.00743788
-0.00720265
-0.00626562
-0.00771351
-0.00756603
-0.00737078
-0.00705278
-0.00585711
-0.00775207
-0.00773164
-0.00782514
-0.00771056
-0.0105334
-0.00766731
-0.00752119
-0.00739552
-0.00723266
-0.00750509
-0.0074532
-0.00734587
-0.00735895
-0.00736145
-0.00708841
-0.00745281
-0.00747161
-0.0077921
-0.00764532
-0.00633593
-0.00701564
-0.00705683
-0.00730996
-0.00807122
-0.0104262
-0.0068781
-0.00691519
-0.00701003
-0.00547941
-0.00986558
-0.00618646
-0.00628229
-0.00634009
-0.0057042
-0.00602326
-0.00570369
-0.00570146
-0.00549628
-0.00498743
-0.00464055
-0.00423234
-0.0042237
-0.00409464
-0.00395234
-0.00398595
-0.00347449
-0.00349852
-0.00352765
-0.00360448
-0.00371032
-0.00148698
-0.00150986
-0.00157971
-0.00159247
-0.00158894
-0.000804669
-0.000840872
-0.000890744
-0.00100211
-0.00108865
-0.00646442
-0.00536811
-0.00521454
-0.00750904
-0.0116839
-0.0107786
-0.0131274
-0.0133734
-0.0103656
-0.00762157
-0.00614754
-0.00658136
-0.00752303
-0.0071294
-0.00736671
-0.00849291
-0.00764939
-0.00730849
-0.0084286
-0.00831989
-0.00795208
-0.00797973
-0.00739226
-0.00766785
-0.00751885
-0.00789157
-0.00704694
-0.01557
-0.0136254
-0.0122916
-0.0115311
-0.0133012
-0.00952311
-0.00805082
-0.00846951
-0.0084013
-0.00826609
-0.00824472
-0.0076559
-0.00843515
-0.00861275
-0.00832538
-0.011423
-0.0104497
-0.0104601
-0.00824157
-0.00990747
-0.00788545
-0.0113741
-0.010537
-0.0109721
0.000359414
-0.00735107
-0.00809024
-0.00864033
-0.00884054
-0.00884322
-0.00963508
-0.00914142
-0.00936119
-0.00747951
-0.0077548
-0.00798311
-0.00915613
-0.00929226
-0.00772751
-0.00867506
-0.00963661
-0.00941439
-0.00768398
-0.00858057
-0.00894212
-0.00804425
-0.00592495
-0.00487771
-0.00607526
-0.00878087
-0.00770002
-0.00827387
-0.00785545
-0.00796453
-0.00612609
-0.00838965
-0.00931928
-0.00537463
-0.00485714
-0.00343224
-0.00688156
-0.00613835
-0.00673495
-0.00632397
-0.00304968
-0.00515528
-0.00851932
-0.00799069
-0.00758649
-0.00345439
-0.000580638
-0.00688072
-0.000379571
-0.00175578
-0.00200605
-0.00269317
-0.00499477
-0.00644639
-0.00728508
-0.00724317
-0.00840913
-0.00447108
-0.00477951
-0.00693535
-0.00679747
-0.00429231
-0.00652203
-0.00761157
-0.00750209
-0.00614657
-0.00113819
-0.00717164
-0.0068119
)
;
    }
    procBoundary0to2
    {
        type            processor;
        value           nonuniform List<scalar> 
320
(
-0.000212915
-0.000212831
-0.000212821
-0.000212792
-0.000212793
-0.000429125
-0.000429103
-0.000429083
-0.000429068
-0.000429062
-0.000994097
-0.000993988
-0.000993944
-0.000993896
-0.000993885
-0.00129943
-0.00129933
-0.00129928
-0.00129923
-0.00129921
-0.00182027
-0.0018201
-0.00182002
-0.00181994
-0.00181991
-0.0021682
-0.00216799
-0.00216788
-0.00216778
-0.00216775
-0.00265392
-0.00265361
-0.00265345
-0.0026533
-0.00265326
-0.00302898
-0.00302856
-0.00302835
-0.00302815
-0.00302809
-0.0034907
-0.00349011
-0.00348982
-0.00348954
-0.00348946
-0.00388222
-0.00388141
-0.003881
-0.00388063
-0.00388052
-0.0043263
-0.00432515
-0.00432461
-0.0043241
-0.00432396
-0.00472635
-0.00472477
-0.00472401
-0.00472333
-0.00472314
-0.00515493
-0.00515271
-0.00515179
-0.00515089
-0.0051507
-0.00555567
-0.00555272
-0.0055515
-0.00555048
-0.00555026
-0.00596639
-0.0059626
-0.00596174
-0.00596078
-0.00596119
-0.00635496
-0.00635098
-0.00635162
-0.00635193
-0.00635336
-0.00673284
-0.00673009
-0.00673378
-0.0067424
-0.00674859
-0.00707035
-0.00706832
-0.00707297
-0.0070737
-0.00707483
-0.00735326
-0.00734565
-0.0073435
-0.00733846
-0.00733727
-0.00755719
-0.00753504
-0.00751688
-0.00750048
-0.00748826
-0.00771052
-0.00766841
-0.00763811
-0.00760979
-0.00759208
-0.00778583
-0.00771439
-0.00764869
-0.00760661
-0.00755398
-0.00785193
-0.00777658
-0.00772929
-0.00768907
-0.00765489
-0.00783463
-0.00773677
-0.00763955
-0.00760839
-0.00746884
-0.0078768
-0.00778463
-0.00772481
-0.0076753
-0.00747811
-0.00778911
-0.0076808
-0.0075457
-0.00761537
-0.00746704
-0.00778531
-0.00759646
-0.00742687
-0.00719505
-0.00625415
-0.00770668
-0.00755859
-0.00735685
-0.00703562
-0.00582997
-0.00774721
-0.00772818
-0.00782177
-0.00772025
-0.0105681
-0.00766323
-0.00751834
-0.00739586
-0.00724608
-0.00753253
-0.00745042
-0.00734433
-0.00736046
-0.00736818
-0.00709659
-0.00745109
-0.00747067
-0.00779284
-0.00764784
-0.00633902
-0.00701461
-0.00705615
-0.00731002
-0.00807184
-0.010427
-0.00687745
-0.00691467
-0.00700981
-0.00547937
-0.00986555
-0.00618608
-0.00628192
-0.00633986
-0.00570406
-0.00602319
-0.0057035
-0.00570128
-0.00549617
-0.00498732
-0.00464049
-0.00423226
-0.00422361
-0.00409458
-0.00395227
-0.0039859
-0.00347447
-0.00349845
-0.00352759
-0.00360443
-0.0037103
-0.00148699
-0.00150982
-0.00157963
-0.00159244
-0.00158893
-0.000804691
-0.000840872
-0.000890726
-0.00100212
-0.00108865
-0.00521851
-0.00536925
-0.00646773
-0.01078
-0.0116843
-0.00750994
-0.0103658
-0.0133736
-0.0131278
-0.00659654
-0.00615711
-0.00763339
-0.00737754
-0.00714602
-0.00754967
-0.00730879
-0.00764979
-0.00849383
-0.00798763
-0.00833531
-0.00844624
-0.00768882
-0.00740798
-0.00798898
-0.0070691
-0.00791204
-0.00754537
-0.0122922
-0.0136258
-0.0155702
-0.0095237
-0.0133017
-0.0115319
-0.00842023
-0.00850444
-0.00807836
-0.00766865
-0.00827877
-0.00829788
-0.00835979
-0.00865647
-0.00847943
-0.0104607
-0.0104508
-0.0114239
-0.00788689
-0.00990886
-0.0082447
-0.0109733
-0.0105387
-0.011376
-0.00811296
-0.00736367
0.000367831
-0.00887638
-0.00887991
-0.00866112
-0.00941087
-0.00919132
-0.00967386
-0.00802202
-0.00778356
-0.00750683
-0.00772932
-0.00929369
-0.00915684
-0.0094168
-0.00963873
-0.00867775
-0.00894401
-0.00858234
-0.0076854
-0.00488349
-0.00594022
-0.00807007
-0.00769564
-0.00879891
-0.00604855
-0.00798827
-0.00788589
-0.00831615
-0.00935446
-0.00841956
-0.00614363
-0.00343377
-0.00486009
-0.00537692
-0.00673933
-0.00614258
-0.00689029
-0.00515846
-0.00305365
-0.00632872
-0.00758954
-0.00799308
-0.00852184
-0.00686456
-0.000573533
-0.00344636
-0.00199005
-0.00175093
-0.000375774
-0.0064308
-0.00498912
-0.00267092
-0.00841566
-0.00724553
-0.00729721
-0.0069407
-0.00478333
-0.0044731
-0.00652836
-0.00429761
-0.00680495
-0.00615192
-0.00750731
-0.00761573
-0.00680604
-0.00716204
-0.00112666
)
;
    }
}


// ************************************************************************* //
