/*--------------------------------*- C++ -*----------------------------------*\
| =========                 |                                                 |
| \\      /  F ield         | OpenFOAM: The Open Source CFD Toolbox           |
|  \\    /   O peration     | Version:  5.x                                   |
|   \\  /    A nd           | Web:      www.OpenFOAM.org                      |
|    \\/     M anipulation  |                                                 |
\*---------------------------------------------------------------------------*/
FoamFile
{
    version     2.0;
    format      ascii;
    class       volScalarField;
    location    "0.087";
    object      interFace;
}
// * * * * * * * * * * * * * * * * * * * * * * * * * * * * * * * * * * * * * //

dimensions      [0 0 0 0 0 0 0];

internalField   nonuniform List<scalar> 
1574
(
0
0
0
0
0
0
0
0
0
0
0
0
0
0
0
0
0
0
0
0
0
0
0
0
0
0
0
0
0
0
0
0
0
0
0
0
0
0
0
0
0
0
0
0
0
0
0
0
0
0
0
0
0
0
0
0
0
0
0
0
0
0
0
0
0
0
0
0
0
0
0
0
0
0
0
0
0
0
0
0
0
0
0
0
0
0
0
0
0
0
0
0
0
0
0
0
0
0
0
0
0
0
0
0
0
0
0
0
0
0
0
0
0
0
0
0
0
0
0
0
0
0
0
0
0
0
0
0
0
0
0
0
0
0
0
0
0
0
0
0
0
0
0
0
0
0
0
0
0
0
0
0
0
0
0
0
0
0
0
0
0
0
0
0
0
0
0
0
0
0
0
0
0
0
0
0
0
0
0
0
0
0
0
0
0
0
0
0
0
0
0
0
0
0
0
0
0
0
0
0
0
0
0
0
0
0
0
0
0
0
0
0
0
0
0
0
0
0
0
0
0
0
0
0
0
0
0
0
0
0
0
0
0
0
0
0
0
0
0
0
0
0
0
0
0
0
0
0
0
0
0
0
0
0
0
0
0
0
0
0
0
0
0
0
0
0
0
0
0
0
0
0
0
0
0
0
0
0
0
0
0
0
0
0
0
0
0
0
0
0
0
0
0
0
0
0
0
0
0
0
0
0
0
0
0
0
0
0
0
0
0
0
0
0
0
0
0
0
0
0
0
0
0
0
0
0
0
0
0
0
0
0
0
0
0
0
0
0
0
0
0
0
0
0
0
0
0
0
0
0
0
0
0
0
0
0
0
0
0
0
0
0
0
0
0
0
0
0
0
0
0
0
0
0
0
0
0
0
0
0
0
0
0
0
0
0
0
0
0
0
0
0
0
0
0
0
0
0
0
0
0
0
0
0
0
0
0
0
0
0
0
0
0
0
0
0
0
0
0
0
0
0
0
0
0
0
0
0
0
0
0
0
0
0
0
0
0
0
0
0
0
0
0
0
0
0
0
0
0
0
0
0
0
0
0
0
0
0
0
0
0
0
0
0
0
0
0
0
0
0
0
0
0
0
0
0
0
0
0
0
0
0
0
0
0
0
0
0
0
0
0
0
0
0
0
0
0
0
0
0
0
0
0
0
0
0
0
0
0
0
0
0
0
0
0
0
0
0
0
0
0
0
0
0
0
0
0
0
0
0
0
0
0
0
0
0
0
0
0
0
0
0
0
0
0
0
0
0
0
0
0
0
0
0
0
0
0
0
0
0
0
0
0
0
0
0
0
0
0
0
0
0
0
0
0
0
0
0
0
0
0
0
0
0
0
0
0
0
0
0
0
0
0
0
0
0
0
0
0
0
0
0
0
0
0
0
0
0
0
0
0
0
0
0
0
0
0
0
0
0
0
0
0
0
0
0.693261
0
0
0
0
0
0
0
0
0
0
0
0
0
0
0
0
0
0
0
0
0
0
0
0
0.0628179
0.511324
0
0
0
0.511321
0
0
0
0
0
0
0
0
0
0
0
0
0
0
0
0
0
0
0
0.149503
0.598009
0
0
0
0.598006
0
0
0
0
0
0
0
0
0
0
0
0
0
0
0
0
0
0
0
0.953882
0
0
0
0
0
0
0
0
0
0
0
0
0
0
0
0
0
0
0
0
0
0
0
0
0.195675
0.64404
0
0
0
0.644055
0
0
0
0
0
0
0
0
0
0
0
0
0
0
0
0
0
0
0
0.0399266
0.488292
0
0
0
0.488306
0
0
0
0
0
0
0
0
0
0
0
0
0
0
0
0
0
0
0
0.755559
0
0
0
0
0
0
0
0
0
0
0
0
0
0
0
0
0
0
0
0
0
0
0
0
0
0
0
0
0
0
0
0
0
0
0
0
0
0
0
0
0
0
0
0
0
0
0
0
0
0
0
0
0
0
0
0
0
0
0
0
0
0
0
0
0
0
0
0
0
0
0
0
0
0
0
0
0
0
0
0
0
0
0
0
0
0
0
0
0
0
0
0
0
0
0
0
0
0
0
0
0
0
0
0
0
0
0
0
0
0
0
0
0
0
0
0
0
0
0
0
0
0
0
0
0
0
0
0
0
0
0
0
0
0
0
0
0
0
0
0
0
0
0
0
0
0
0
0
0
0
0
0
0
0
0
0
0
0
0
0
0
0
0
0
0
0
0
0
0
0
0
0
0
0
0
0
0
0
0
0
0
0
0
0
0
0
0
0
0
0
0
0
0
0
0
0
0
0
0
0
0
0
0
0
0
0
0
0
0
0
0
0
0
0
0
0
0
0
0
0
0
0
0
0
0.30897
0.30898
0.578023
0.393731
0.662774
0.662784
0.931827
0.934921
0.934928
0
0
0
0
0
0.464718
0.464729
0.733772
0.011633
0.280676
0.280687
0.54973
0
0
0
0.346664
0.615707
0.615718
0.831354
0.418652
0.41865
0.687799
0.685132
0.954281
0.954279
0.960402
0.730028
0.730027
0.774923
0.55156
0.461769
0.506664
0.506664
0
0.962031
0
0
0
0
0
0.962029
0
0
0
0
0
0
0.819744
0.999176
0.86464
0.641276
0.730918
0.775813
0.596381
0.819743
0.999175
0.864639
0.641275
0.730915
0.775811
0.596379
0.3207
0.230975
0.438591
0.438595
0.483455
0.275836
0.275839
0
0.757345
0
0.878414
0
0
0
0.757349
0
0
0.878428
0
0
0
0.410381
0.500018
0.528272
0.707638
0.544882
0.573136
0.365517
0.410384
0.500029
0.528279
0.707645
0.54489
0.57314
0.365524
0.331967
0.331965
0.601114
0.0606008
0.32975
0.329748
0.598897
0.373016
0.194399
0.194398
0.283226
0.239294
0.328121
0.328121
0.462733
0.284115
0.463547
0.552374
0.32901
0.59727
0.417838
0.462732
0.284114
0.463546
0.552372
0.329009
0.597268
0.417836
0.500065
0.769072
0.797322
0.797326
0.634567
0.634571
0.662821
0.552448
0.553263
0.553262
0.821521
0.418726
0.686985
0.686984
0.202765
0.084787
0.0847906
0.113041
0.129651
0.157901
0.157905
0.292446
0.174468
0.353834
0.382084
0.219332
0.426948
0.247582
0.29245
0.174475
0.353841
0.382094
0.219336
0.426955
0.247589
0.105497
0.105496
0.150392
0.10631
0.0165193
0.0614151
0.0614144
0
0.780471
0
0.509107
0
0.778254
0
0.78047
0
0
0.509104
0.778253
0
0
0.642904
0.731732
0.776627
0
0.822187
0.867082
0.95591
0.642902
0.731729
0.776625
0
0.822184
0.867079
0.955906
0.195213
0.374645
0.240108
0.196026
0.285668
0.330563
0.151131
0.195212
0.374643
0.240107
0.196026
0.285666
0.330562
0.15113
0.382131
0.443518
0.443522
0.651137
0.309017
0.516632
0.516636
0.46436
0.46436
0.329824
0.285742
0.554815
0.420279
0.420278
0.0564934
0.056497
0.101357
0.117884
0.0281599
0.0730204
0.073024
0
0.888021
0
0.459998
0
0.729052
0
0.888028
0
0
0.460012
0.729055
0
0
0.712434
0.533156
0.561406
0.757298
0.60627
0.830412
0.785548
0.533166
0.712452
0.56142
0.757313
0.606281
0.830427
0.785566
0.146174
0.32554
0.191038
0.207565
0.297203
0.342067
0.162701
0.146182
0.325547
0.191042
0.207569
0.297214
0.342074
0.162709
0.788361
0.78836
0.967792
0.153198
0.422347
0.422345
0.691494
0.107049
0.107714
0.107713
0.0172583
0.152609
0.0621541
0.0621534
0.415225
0.415228
0.280723
0.29725
0.566257
0.431751
0.431755
0.196765
0.19743
0.376862
0.286407
0.242325
0.331302
0.15187
0.196765
0.197429
0.37686
0.286405
0.242324
0.331301
0.151869
0.554002
0.733285
0.77818
0.465026
0.509921
0.734099
0.689204
0.554
0.733282
0.778177
0.465023
0.509919
0.734096
0.6892
0
0
0
0
0
0
0
0.286481
0.466577
0.466577
0.555554
0.332041
0.421018
0.421017
0.62284
0.981488
0.830459
0.846983
0.695954
0.920097
0
0.622847
0.981495
0.830463
0.846994
0.695962
0.920108
0
0.179232
0.240536
0.240539
0.0895074
0.2854
0.134368
0.134371
0.268913
0.330217
0.509582
0.35855
0.375081
0.403414
0.224049
0.268916
0.330224
0.50959
0.358561
0.375084
0.403422
0.224056
0.684141
0.504862
0.729005
0.476525
0.521389
0.745532
0.700667
0.504873
0.684159
0.729019
0.476539
0.5214
0.745546
0.700686
0.198094
0.198093
0.242989
0.378189
0.288399
0.333294
0.333294
0
0
0
0.787033
0
0.966465
0
0
0
0
0.787031
0.966463
0
0
0.556219
0.465765
0.51066
0.734838
0.735502
0.780397
0.689943
0.556217
0.465762
0.510658
0.734835
0.735499
0.780394
0.689939
0.358597
0.599267
0.599271
0.627604
0.464765
0.493099
0.493103
0.28781
0.467242
0.332705
0.467906
0.557548
0.602443
0.423011
0.287809
0.467241
0.332704
0.467905
0.557545
0.602441
0.423009
0.556958
0.556957
0.422421
0.557621
0.826694
0.692158
0.692157
0
0
0
0
0
0
0
0.594547
0.953194
0.818689
0.745579
0.611074
0.835216
0.969721
0.594554
0.953201
0.8187
0.745582
0.611081
0.835227
0.969728
0
0
0
0
0
0
0
0.643718
0
0.867896
0.734172
0.599636
0.823814
0.95835
0.643716
0
0.867894
0.734172
0.599635
0.823812
0.958349
0.391524
0.391528
0.436388
0.632198
0.542473
0.587334
0.587337
0
0
0
0
0
0
0
0
0
0
0
0
0
0
0.688904
0.537872
0.582736
0.868183
0.913047
0.806879
0.762015
0.688915
0.537887
0.582747
0.868201
0.913061
0.806893
0.762033
0.481205
0.660571
0.526069
0.721879
0.811516
0.85638
0.677014
0.481213
0.660578
0.526073
0.721882
0.811527
0.856387
0.677022
0.645935
0.734911
0.600375
0.824553
0
0.870113
0.959089
0.645933
0.734911
0.600374
0.824551
0
0.870111
0.959088
0
0
0
0
0
0
0
0.558211
0.738157
0.738156
0.46842
0.783052
0.513315
0.513315
)
;

boundaryField
{
    inlet
    {
        type            calculated;
        value           uniform 0;
    }
    wall
    {
        type            calculated;
        value           uniform 0;
    }
    outlet
    {
        type            calculated;
        value           uniform 0;
    }
    procBoundary3to1
    {
        type            processor;
        value           uniform 0;
    }
    procBoundary3to2
    {
        type            processor;
        value           uniform 0;
    }
}


// ************************************************************************* //
