/*--------------------------------*- C++ -*----------------------------------*\
| =========                 |                                                 |
| \\      /  F ield         | OpenFOAM: The Open Source CFD Toolbox           |
|  \\    /   O peration     | Version:  5.x                                   |
|   \\  /    A nd           | Web:      www.OpenFOAM.org                      |
|    \\/     M anipulation  |                                                 |
\*---------------------------------------------------------------------------*/
FoamFile
{
    version     2.0;
    format      ascii;
    class       volScalarField;
    location    "0.051";
    object      interFace;
}
// * * * * * * * * * * * * * * * * * * * * * * * * * * * * * * * * * * * * * //

dimensions      [0 0 0 0 0 0 0];

internalField   nonuniform List<scalar> 
1553
(
0
0
0
0
0
0
0
0
0
0
0
0
0
0
0
0
0
0
0
0
0
0
0
0
0
0
0
0
0
0
0
0
0
0
0
0
0
0
0
0
0
0
0
0
0
0
0
0
0
0
0
0
0
0
0
0
0
0
0
0
0
0
0
0
0
0
0
0
0
0
0
0
0
0
0
0
0
0
0
0
0
0
0
0
0
0
0
0
0
0
0
0
0
0
0
0
0
0
0
0
0
0
0
0
0
0
0
0
0
0
0
0
0
0
0
0
0
0
0
0
0
0
0
0
0
0
0
0
0
0
0
0
0
0
0
0
0
0
0
0
0
0
0
0
0
0
0
0
0
0
0
0
0
0
0
0
0
0
0
0
0
0
0
0
0
0
0
0
0
0
0
0
0
0
0
0
0
0
0
0
0
0
0
0
0
0
0
0
0
0
0
0
0
0
0
0
0
0
0
0
0
0
0
0
0
0
0
0
0
0
0
0
0
0
0
0
0
0
0
0
0
0
0
0
0
0
0
0
0
0
0
0
0
0
0
0
0
0
0
0
0
0
0
0
0
0
0
0
0
0
0
0
0
0
0
0
0
0
0
0
0
0
0
0
0
0
0
0
0
0
0
0
0
0
0
0
0
0
0
0
0
0
0
0
0
0
0
0
0
0
0
0
0
0
0
0
0
0
0
0
0
0
0
0
0
0
0
0
0
0
0
0
0
0
0
0
0
0
0
0
0
0
0
0
0
0
0
0
0
0
0
0
0
0
0
0
0
0
0
0
0
0
0
0
0
0
0
0
0
0
0
0
0
0
0
0
0
0
0
0
0
0
0
0
0
0
0
0
0
0
0
0
0
0
0
0
0
0
0
0
0
0
0
0
0
0
0
0
0
0
0
0
0
0
0
0
0
0
0
0
0
0
0
0
0
0
0
0
0
0
0
0
0
0
0
0
0
0
0
0
0
0
0
0
0
0
0
0
0
0
0
0
0
0
0
0
0
0
0
0
0
0
0
0
0
0
0
0
0
0
0
0
0
0
0
0
0
0
0
0
0
0
0
0
0
0
0
0
0
0
0
0
0
0
0
0
0
0
0
0
0
0
0
0
0
0
0
0
0
0
0
0
0
0
0
0
0
0
0
0
0
0
0
0
0
0
0
0
0
0
0
0
0
0
0
0
0
0
0
0
0
0
0
0
0
0
0
0
0
0
0
0
0
0
0
0
0
0
0
0
0
0
0
0
0
0
0
0
0
0
0
0
0
0
0
0
0
0
0
0
0
0
0
0
0
0
0
0
0
0
0
0
0
0
0
0
0
0
0
0
0
0
0
0
0
0
0
0
0
0
0
0
0
0
0
0
0
0
0
0
0
0
0
0
0
0
0
0
0
0
0
0
0
0
0
0
0
0
0
0
0
0
0
0
0
0
0
0
0
0
0
0
0
0
0
0
0
0
0
0
0
0
0
0
0
0
0
0
0
0
0
0
0
0
0
0
0
0
0
0
0
0
0
0
0
0
0
0
0
0
0
0
0
0
0
0
0
0
0
0
0
0
0
0
0
0
0
0
0
0
0
0
0
0
0
0
0
0
0
0
0
0
0
0
0
0
0
0
0
0
0
0
0
0
0
0
0
0
0
0
0
0
0
0
0.848238
0
0
0
0
0
0
0
0
0
0
0
0
0
0
0
0
0
0
0
0
0
0
0
0
0.56937
0
0
0
0
0
0
0
0
0
0
0
0
0
0
0
0
0
0
0
0
0
0
0
0
0.756522
0
0
0
0
0
0
0
0
0
0
0
0
0
0
0
0
0
0
0
0
0
0
0
0
0
0
0
0
0
0
0
0
0
0
0
0
0
0
0
0
0
0
0
0
0
0
0
0
0
0.691988
0
0
0
0
0
0
0
0
0
0
0
0
0
0
0
0
0
0
0
0
0
0
0
0
0.59753
0
0
0
0
0
0
0
0
0
0
0
0
0
0
0
0
0
0
0
0
0
0
0
0
0
0
0
0
0
0
0
0
0
0
0
0
0
0
0
0
0
0
0
0
0
0
0
0
0
0
0
0
0
0
0
0
0
0
0
0
0
0
0
0
0
0
0
0
0
0
0
0
0
0
0
0
0
0
0
0
0
0
0
0
0
0
0
0
0
0
0
0
0
0
0
0
0
0
0
0
0
0
0
0
0
0
0
0
0
0
0
0
0
0
0
0
0
0
0
0
0
0
0
0
0
0
0
0
0
0
0
0
0
0
0
0
0
0
0
0
0
0
0
0
0
0
0
0
0
0
0
0
0.863976
0
0
0
0
0
0
0.863981
0
0
0
0
0.487669
0.487673
0.218819
0
0.912781
0.912783
0.733548
0
0
0.858788
0.827654
0.558796
0.558798
0.28994
0.423131
0.423132
0.154274
0.553914
0.285056
0.285057
0.0161997
0
0.849021
0.507932
0
0
0
0.936297
0.849022
0
0.507934
0
0
0
0.936299
0.328672
0.328674
0.059816
0.997302
0.728444
0.728446
0.459588
0
0
0.844337
0
0
0
0
0.460726
0.550367
0.773243
0.594005
0.595165
0.638804
0.415927
0.460726
0.550368
0.773244
0.594006
0.595166
0.638804
0.415928
0.371107
0.28151
0.504386
0.504387
0.549185
0.326308
0.326309
0.300516
0.30052
0.0316671
0.642503
0.37365
0.373654
0.104801
0.467252
0.263615
0.263617
0.377659
0.308412
0.422455
0.422456
0.556868
0.532466
0.353232
0.646508
0.398029
0.691305
0.512071
0.55687
0.532469
0.353234
0.646512
0.39803
0.691308
0.512074
0.550345
0.819224
0.862862
0.862863
0.684784
0.684785
0.728423
0.646486
0.622084
0.622085
0.915361
0.487647
0.780923
0.780924
0.23785
0.104614
0.104615
0.148253
0.149413
0.193051
0.193051
0.327469
0.373471
0.194233
0.417109
0.239032
0.461908
0.28267
0.327469
0.373472
0.194234
0.41711
0.239032
0.461909
0.282671
0.149596
0.149598
0.194394
0.125195
0.0356021
0.080398
0.0803994
0
0.748627
0.479774
0
0
0.82176
0.552907
0.748628
0
0.479779
0
0.821762
0
0.552913
0.418447
0.239213
0.28401
0.214812
0.304451
0.349249
0.170014
0.41845
0.239215
0.284011
0.214813
0.304455
0.349251
0.170017
0.417088
0.46309
0.463091
0.685967
0.328651
0.551527
0.551527
0.508065
0.508066
0.373628
0.304429
0.573305
0.438866
0.438868
0.107001
0.017404
0.060998
0.0609984
0.105797
0.0622022
0.0622026
0
0.853838
0.60239
0
0
0.733174
0.464316
0.853839
0
0.602392
0
0.733174
0
0.464318
0.19662
0.28626
0.329855
0.150617
0.331059
0.195415
0.151821
0.19662
0.286262
0.329856
0.150618
0.33106
0.195416
0.151822
0.865248
0.732013
0.552731
0.596369
0.776811
0.641168
0.82045
0.86525
0.552732
0.732015
0.596371
0.776813
0.641169
0.820452
0.830493
0.830497
0.561643
0.634633
0.36578
0.365784
0.0969303
0.100817
0.0764629
0.0764643
0.0112243
0.12126
0.0560202
0.0560215
0.190434
0.345314
0.166079
0.280074
0.210877
0.324871
0.145637
0.190435
0.345316
0.166082
0.280078
0.210878
0.324873
0.145639
0.776985
0.597704
0.821782
0.483709
0.528506
0.752584
0.707787
0.597708
0.776992
0.821788
0.483714
0.52851
0.752589
0.707794
0.286239
0.555118
0.419474
0.419474
0.420678
0.420679
0.285035
0.280052
0.434931
0.434933
0.548927
0.300494
0.414489
0.41449
0.153026
0.199072
0.199073
0.0634288
0.243871
0.108227
0.108227
0
0
0
0
0
0
0
0
0.687322
0.9114
0.752562
0.618124
0.842202
0.97664
0
0.687325
0.911404
0.752563
0.618126
0.842206
0.976643
0.46552
0.688396
0.509115
0.510319
0.733195
0.734399
0.689601
0.465522
0.509116
0.688398
0.51032
0.733197
0.734401
0.689603
0.242645
0.467929
0.288691
0.332285
0.33349
0.377084
0.197846
0.242645
0.46793
0.288692
0.332286
0.33349
0.377085
0.197847
0.141726
0.141728
0.186523
0.296607
0.207014
0.25181
0.251811
0
0
0
0
0
0.896944
0.545037
0
0
0
0
0.896947
0
0.545042
0.524571
0.459331
0.504128
0.728206
0.703852
0.748649
0.683409
0.524575
0.459336
0.504132
0.728212
0.703858
0.748654
0.683416
0.332264
0.557548
0.557549
0.601143
0.423109
0.466703
0.466703
0.410577
0.231343
0.27614
0.386224
0.475863
0.520661
0.341426
0.410579
0.231345
0.276141
0.386225
0.475867
0.520663
0.341429
0.500195
0.500196
0.365758
0.475841
0.744717
0.610278
0.61028
0
0
0
0
0
0
0
0.734378
0.957254
0.598734
0.599938
0.822814
0.824019
0.958458
0.734378
0.957255
0.598735
0.599939
0.822816
0.82402
0.958459
0.560023
0.470426
0.334738
0.334739
0.379537
0.515225
0.515225
0.614189
0.728184
0.593746
0.817824
0.972705
0.838267
0.952262
0.614191
0.728186
0.593749
0.817828
0.972708
0.838271
0.952265
0
0
0
0
0
0
0.945931
0
0
0
0
0
0
0.945933
0.649642
0.739283
0.603595
0.424357
0.784081
0.469156
0.604843
0.649643
0.739284
0.603596
0.424358
0.784082
0.469156
0.604844
0.826471
0.647189
0.511545
0.87127
0.556344
0.780424
0.735625
0.64719
0.826473
0.511547
0.871271
0.556345
0.780426
0.735628
0
0
0
0
0
0
0.978861
0.451512
0.606439
0.606441
0.361918
0.651236
0.406714
0.406716
0.541128
0.87529
0.696056
0.630768
0.740853
0.675565
0.496331
0.541129
0.875292
0.696058
0.630772
0.740854
0.675568
0.496333
0.589834
0.769115
0.813912
0.655121
0.699918
0.923996
0.879199
0.589838
0.769122
0.813918
0.655126
0.699922
0.924001
0.879206
0.739261
0
0.693214
0.693215
0.873701
0.873701
0.558775
)
;

boundaryField
{
    inlet
    {
        type            calculated;
        value           uniform 0;
    }
    wall
    {
        type            calculated;
        value           uniform 0;
    }
    outlet
    {
        type            calculated;
        value           uniform 0;
    }
    procBoundary0to1
    {
        type            processor;
        value           uniform 0;
    }
    procBoundary0to2
    {
        type            processor;
        value           uniform 0;
    }
}


// ************************************************************************* //
