/*--------------------------------*- C++ -*----------------------------------*\
| =========                 |                                                 |
| \\      /  F ield         | OpenFOAM: The Open Source CFD Toolbox           |
|  \\    /   O peration     | Version:  5.x                                   |
|   \\  /    A nd           | Web:      www.OpenFOAM.org                      |
|    \\/     M anipulation  |                                                 |
\*---------------------------------------------------------------------------*/
FoamFile
{
    version     2.0;
    format      ascii;
    class       surfaceScalarField;
    location    "0.051";
    object      phi;
}
// * * * * * * * * * * * * * * * * * * * * * * * * * * * * * * * * * * * * * //

dimensions      [0 3 -1 0 0 0 0];

internalField   nonuniform List<scalar> 
4297
(
-8.97225e-08
-9.00213e-08
5.19129e-09
-6.72816e-08
-9.87948e-08
-1.1736e-08
-6.002e-08
-9.99197e-08
2.68749e-09
-3.06905e-08
-1.04531e-07
-1.85493e-08
-1.0519e-07
-1.50316e-08
-9.85057e-08
-6.75769e-08
-1.17915e-08
-7.63803e-08
-7.66784e-08
-4.42409e-08
-6.44541e-08
-7.87001e-08
-3.31447e-08
-3.35934e-08
-8.24512e-08
-5.29394e-08
-8.32821e-08
-4.92802e-08
-9.96276e-08
-6.03452e-08
2.66087e-09
-7.84026e-08
-6.47789e-08
-3.31235e-08
-6.57334e-08
-6.60573e-08
-2.53108e-08
-3.45749e-08
-6.83701e-08
-4.52381e-08
-6.90402e-08
-4.187e-08
-1.04238e-07
-3.10158e-08
-1.86063e-08
-8.21526e-08
-3.39177e-08
-5.29457e-08
-6.8046e-08
-3.48969e-08
-4.52655e-08
-3.59883e-08
-3.631e-08
-6.41153e-08
-3.6891e-08
-6.05171e-08
-1.04893e-07
-1.50655e-08
-8.2982e-08
-4.92621e-08
-6.87157e-08
-4.1877e-08
-3.65713e-08
-6.04967e-08
-5.69248e-08
-7.60131e-08
-7.61421e-08
3.58173e-08
-7.43077e-08
-5.93944e-08
-7.25898e-10
-5.68101e-08
-5.58633e-08
-3.31062e-09
-3.79746e-08
-5.06184e-08
-2.68086e-08
-4.94272e-08
-2.83567e-08
-5.92665e-08
-7.44996e-08
-7.61915e-10
-6.1848e-08
-6.20364e-08
-3.90163e-08
-5.05473e-08
-5.83818e-08
-4.19257e-08
-3.39479e-08
-5.40039e-08
-6.61516e-08
-5.26639e-08
-6.78713e-08
-5.57314e-08
-5.70321e-08
-3.35133e-09
-5.81905e-08
-5.07684e-08
-4.19312e-08
-4.83168e-08
-4.85395e-08
-4.5025e-08
-3.24296e-08
-4.57472e-08
-6.93792e-08
-4.4742e-08
-7.11931e-08
-5.04879e-08
-3.82207e-08
-2.68846e-08
-5.38151e-08
-3.41929e-08
-6.61922e-08
-4.55264e-08
-3.26768e-08
-6.94139e-08
-3.0472e-08
-3.07181e-08
-9.41923e-08
-2.98902e-08
-9.61133e-08
-4.92968e-08
-2.84403e-08
-5.24734e-08
-6.79202e-08
-4.4519e-08
-7.12365e-08
-2.96407e-08
-9.61222e-08
-9.81109e-08
-1.01002e-07
-1.01271e-07
5.46595e-08
-8.57339e-08
-1.0677e-07
-5.63618e-09
-7.09e-08
-1.07692e-07
-7.51067e-09
-3.83809e-08
-1.10614e-07
-4.8173e-08
-1.1115e-07
-4.98648e-08
-1.06501e-07
-8.60285e-08
-5.69749e-09
-9.02503e-08
-9.05451e-08
-7.14915e-08
-7.41358e-08
-9.14675e-08
-7.42641e-08
-4.04946e-08
-9.40021e-08
-1.16404e-07
-9.45802e-08
-1.18328e-07
-1.07423e-07
-7.12219e-08
-7.57502e-09
-9.11727e-08
-7.44578e-08
-7.42684e-08
-7.48611e-08
-7.5183e-08
-7.76207e-08
-4.10393e-08
-7.71475e-08
-1.20055e-07
-7.76655e-08
-1.22151e-07
-1.10346e-07
-3.87103e-08
-4.82923e-08
-9.37073e-08
-4.08243e-08
-1.16463e-07
-7.68255e-08
-4.1369e-08
-1.20109e-07
-4.23629e-08
-4.26927e-08
-1.63107e-07
-4.31359e-08
-1.65306e-07
-1.10882e-07
-4.99919e-08
-9.42853e-08
-1.18395e-07
-7.73436e-08
-1.22213e-07
-4.28063e-08
-1.65315e-07
-1.67601e-07
-1.22267e-07
-1.22476e-07
8.42594e-08
-1.08856e-07
-1.18237e-07
-4.83067e-09
-8.87402e-08
-1.17431e-07
-1.3641e-08
-5.30232e-08
-1.154e-07
-7.02298e-08
-1.1491e-07
-7.52888e-08
-1.18028e-07
-1.09106e-07
-4.89514e-09
-1.05423e-07
-1.05673e-07
-9.66607e-08
-8.6436e-08
-1.04829e-07
-1.05854e-07
-5.11111e-08
-1.03053e-07
-1.64076e-07
-1.02521e-07
-1.69386e-07
-1.17222e-07
-8.90185e-08
-1.37224e-08
-1.04578e-07
-8.67139e-08
-1.05871e-07
-8.58069e-08
-8.60856e-08
-1.15135e-07
-5.05971e-08
-8.47102e-08
-1.73607e-07
-8.42604e-08
-1.78976e-07
-1.15191e-07
-5.33202e-08
-7.03749e-08
-1.02804e-07
-5.14077e-08
-1.64157e-07
-8.44322e-08
-5.08946e-08
-1.73671e-07
-4.93815e-08
-4.96781e-08
-2.33189e-07
-4.92815e-08
-2.38747e-07
-1.147e-07
-7.54586e-08
-1.02271e-07
-1.69492e-07
-8.39815e-08
-1.79065e-07
-4.89836e-08
-2.38772e-07
-2.44388e-07
-1.65706e-07
-1.66009e-07
1.17537e-07
-1.42475e-07
-1.70383e-07
-1.07854e-08
-1.15703e-07
-1.70981e-07
-2.30556e-08
-6.29439e-08
-1.73793e-07
-1.0519e-07
-1.74263e-07
-1.12236e-07
-1.70081e-07
-1.42813e-07
-1.08717e-08
-1.46323e-07
-1.46661e-07
-1.44142e-07
-1.18796e-07
-1.47242e-07
-1.57119e-07
-6.48713e-08
-1.49748e-07
-2.42047e-07
-1.50231e-07
-2.49485e-07
-1.70678e-07
-1.16072e-07
-2.3163e-08
-1.46904e-07
-1.19166e-07
-1.57141e-07
-1.19308e-07
-1.19677e-07
-1.70297e-07
-6.5259e-08
-1.21754e-07
-2.5565e-07
-1.2221e-07
-2.63192e-07
-1.7349e-07
-6.33246e-08
-1.0538e-07
-1.4941e-07
-6.52524e-08
-2.42152e-07
-1.21385e-07
-6.56404e-08
-2.55733e-07
-6.65905e-08
-6.69719e-08
-3.42765e-07
-6.73635e-08
-3.50565e-07
-1.7396e-07
-1.12458e-07
-1.49893e-07
-2.49621e-07
-1.21841e-07
-2.63307e-07
-6.69817e-08
-3.50596e-07
-3.58473e-07
-2.26515e-07
-2.26815e-07
1.66856e-07
-1.96902e-07
-2.28901e-07
-1.55018e-08
-1.60054e-07
-2.29086e-07
-3.50756e-08
-8.94817e-08
-2.30361e-07
-1.50776e-07
-2.30425e-07
-1.61877e-07
-2.28601e-07
-1.97244e-07
-1.56025e-08
-1.98726e-07
-1.99068e-07
-2.03852e-07
-1.61431e-07
-1.99193e-07
-2.24309e-07
-8.98023e-08
-2.00263e-07
-3.43776e-07
-2.003e-07
-3.5544e-07
-2.28785e-07
-1.60429e-07
-3.52074e-08
-1.9885e-07
-1.61806e-07
-2.2434e-07
-1.61537e-07
-1.61912e-07
-2.44894e-07
-8.9799e-08
-1.62701e-07
-3.64951e-07
-1.62733e-07
-3.76702e-07
-2.30061e-07
-8.98732e-08
-1.51006e-07
-1.99921e-07
-9.01938e-08
-3.43906e-07
-1.62326e-07
-9.01911e-08
-3.6505e-07
-8.99141e-08
-9.03057e-08
-4.87574e-07
-9.02854e-08
-4.99739e-07
-2.30125e-07
-1.62153e-07
-1.99957e-07
-3.55614e-07
-1.62358e-07
-3.76846e-07
-8.9893e-08
-4.99784e-07
-5.12039e-07
-3.06253e-07
-3.06639e-07
2.29116e-07
-2.6381e-07
-3.14392e-07
-2.58139e-08
-2.12826e-07
-3.15376e-07
-5.38989e-08
-1.14755e-07
-3.20438e-07
-2.15968e-07
-3.2116e-07
-2.31801e-07
-3.14006e-07
-2.64242e-07
-2.59404e-08
-2.70718e-07
-2.7115e-07
-2.90385e-07
-2.18365e-07
-2.72087e-07
-3.19955e-07
-1.17928e-07
-2.76613e-07
-4.88041e-07
-2.77323e-07
-5.04769e-07
-3.14989e-07
-2.13296e-07
-5.4065e-08
-2.71655e-07
-2.18835e-07
-3.19994e-07
-2.19178e-07
-2.19649e-07
-3.49812e-07
-1.18485e-07
-2.23338e-07
-5.18923e-07
-2.23979e-07
-5.3583e-07
-3.20052e-07
-1.15239e-07
-2.16256e-07
-2.76182e-07
-1.18412e-07
-4.88202e-07
-2.22868e-07
-1.1897e-07
-5.19046e-07
-1.20647e-07
-1.21132e-07
-6.92003e-07
-1.21653e-07
-7.0949e-07
-3.20774e-07
-2.32145e-07
-2.76891e-07
-5.04986e-07
-2.23509e-07
-5.36009e-07
-1.21166e-07
-7.09546e-07
-7.27176e-07
-4.35595e-07
-4.36018e-07
3.2319e-07
-3.7671e-07
-4.463e-07
-3.63607e-08
-3.04136e-07
-4.47675e-07
-7.81577e-08
-1.64639e-07
-4.54189e-07
-3.06219e-07
-4.55098e-07
-3.29679e-07
-4.45877e-07
-3.77185e-07
-3.65117e-08
-3.85858e-07
-3.86333e-07
-4.10376e-07
-3.11313e-07
-3.87545e-07
-4.54634e-07
-1.68332e-07
-3.93291e-07
-6.91925e-07
-3.94135e-07
-7.16961e-07
-4.47252e-07
-3.04652e-07
-7.83602e-08
-3.8707e-07
-3.11829e-07
-4.54685e-07
-3.12325e-07
-3.12841e-07
-4.99266e-07
-1.6891e-07
-3.17485e-07
-7.3815e-07
-3.18261e-07
-7.6344e-07
-4.53767e-07
-1.65173e-07
-3.06565e-07
-3.92817e-07
-1.68865e-07
-6.9212e-07
-3.16969e-07
-1.69444e-07
-7.38295e-07
-1.71317e-07
-1.71851e-07
-9.83295e-07
-1.72351e-07
-1.00976e-06
-4.54675e-07
-3.301e-07
-3.9366e-07
-7.17229e-07
-3.17745e-07
-7.63659e-07
-1.71816e-07
-1.00983e-06
-1.03658e-06
-5.85706e-07
-5.86233e-07
4.43308e-07
-5.05199e-07
-6.04563e-07
-5.44787e-08
-4.05979e-07
-6.07187e-07
-1.14817e-07
-2.1686e-07
-6.19111e-07
-4.31028e-07
-6.20817e-07
-4.65e-07
-6.04036e-07
-5.05788e-07
-5.46657e-08
-5.21711e-07
-5.223e-07
-5.74971e-07
-4.18996e-07
-5.24921e-07
-6.39623e-07
-2.24107e-07
-5.35854e-07
-9.70079e-07
-5.37577e-07
-1.00662e-06
-6.0666e-07
-4.06615e-07
-1.1507e-07
-5.24331e-07
-4.19632e-07
-6.39688e-07
-4.21333e-07
-4.21972e-07
-7.0522e-07
-2.25579e-07
-4.30743e-07
-1.03902e-06
-4.32259e-07
-1.07628e-06
-6.18586e-07
-2.17512e-07
-4.31456e-07
-5.35266e-07
-2.2476e-07
-9.70319e-07
-4.30107e-07
-2.26234e-07
-1.0392e-06
-2.30501e-07
-2.31156e-07
-1.3825e-06
-2.32238e-07
-1.42151e-06
-6.2029e-07
-4.65522e-07
-5.36988e-07
-1.00695e-06
-4.3162e-07
-1.07655e-06
-2.31582e-07
-1.4216e-06
-1.46112e-06
-8.48387e-07
-8.48983e-07
6.28424e-07
-7.33749e-07
-8.77017e-07
-7.29495e-08
-5.89138e-07
-8.81038e-07
-1.63445e-07
-3.14096e-07
-8.99106e-07
-6.07554e-07
-9.02026e-07
-6.58208e-07
-8.76421e-07
-7.34416e-07
-7.31742e-08
-7.59085e-07
-7.59751e-07
-8.09582e-07
-6.09397e-07
-7.63144e-07
-9.07214e-07
-3.25192e-07
-7.79171e-07
-1.37423e-06
-7.8179e-07
-1.42971e-06
-8.80441e-07
-5.89858e-07
-1.63755e-07
-7.62477e-07
-6.10116e-07
-9.07296e-07
-6.11939e-07
-6.12659e-07
-1.00625e-06
-3.26671e-07
-6.25744e-07
-1.47772e-06
-6.28023e-07
-1.53413e-06
-8.98511e-07
-3.14835e-07
-6.08069e-07
-7.78506e-07
-3.25932e-07
-1.37452e-06
-6.25026e-07
-3.27413e-07
-1.47793e-06
-3.34041e-07
-3.34782e-07
-1.96445e-06
-3.36291e-07
-2.02443e-06
-9.01429e-07
-6.58844e-07
-7.81123e-07
-1.43012e-06
-6.27302e-07
-1.53446e-06
-3.35548e-07
-2.02454e-06
-2.08567e-06
-1.12858e-06
-1.12933e-06
8.61099e-07
-9.75232e-07
-1.17462e-06
-1.04175e-07
-7.81446e-07
-1.18229e-06
-2.34746e-07
-4.14801e-07
-1.21147e-06
-8.47241e-07
-1.21607e-06
-9.21517e-07
-1.17388e-06
-9.76067e-07
-1.04455e-07
-1.01656e-06
-1.01739e-06
-1.12415e-06
-8.13095e-07
-1.02504e-06
-1.26794e-06
-4.32353e-07
-1.05301e-06
-1.91344e-06
-1.05784e-06
-1.99514e-06
-1.18154e-06
-7.82341e-07
-2.35137e-07
-1.0242e-06
-8.13991e-07
-1.26804e-06
-8.20343e-07
-8.21243e-07
-1.41391e-06
-4.36821e-07
-8.44147e-07
-2.07012e-06
-8.486e-07
-2.15445e-06
-1.21073e-06
-4.15711e-07
-8.47882e-07
-1.05218e-06
-4.33265e-07
-1.9138e-06
-8.43251e-07
-4.37738e-07
-2.07038e-06
-4.49324e-07
-4.50238e-07
-2.7523e-06
-4.52899e-07
-2.84248e-06
-1.21532e-06
-9.22314e-07
-1.057e-06
-1.99565e-06
-8.47698e-07
-2.15486e-06
-4.51979e-07
-2.84263e-06
-2.93398e-06
-1.66206e-06
-1.66291e-06
1.23257e-06
-1.44143e-06
-1.73321e-06
-1.30513e-07
-1.14961e-06
-1.74264e-06
-3.34679e-07
-6.08683e-07
-1.7864e-06
-1.19296e-06
-1.79357e-06
-1.3066e-06
-1.73236e-06
-1.44238e-06
-1.30851e-07
-1.50528e-06
-1.50623e-06
-1.57821e-06
-1.20069e-06
-1.51171e-06
-1.80347e-06
-6.37356e-07
-1.54807e-06
-2.71513e-06
-1.55188e-06
-2.84385e-06
-1.74178e-06
-1.15063e-06
-3.35163e-07
-1.51076e-06
-1.20171e-06
-1.80361e-06
-1.20087e-06
-1.20189e-06
-2.03363e-06
-6.35988e-07
-1.22565e-06
-2.95743e-06
-1.22434e-06
-3.0873e-06
-1.78555e-06
-6.09722e-07
-1.19374e-06
-1.54712e-06
-6.38395e-07
-2.71556e-06
-1.22464e-06
-6.37027e-07
-2.95774e-06
-6.48564e-07
-6.49598e-07
-3.90444e-06
-6.48643e-07
-4.03534e-06
-1.79271e-06
-1.30757e-06
-1.55092e-06
-2.84448e-06
-1.22332e-06
-3.08779e-06
-6.47605e-07
-4.03552e-06
-4.165e-06
-2.18862e-06
-2.18972e-06
1.711e-06
-1.90436e-06
-2.30249e-06
-1.59997e-07
-1.52066e-06
-2.32563e-06
-4.64156e-07
-8.04629e-07
-2.39803e-06
-1.64035e-06
-2.41116e-06
-1.80785e-06
-2.30139e-06
-1.90558e-06
-1.6043e-07
-2.00823e-06
-2.00945e-06
-2.16442e-06
-1.59594e-06
-2.02706e-06
-2.51436e-06
-8.45389e-07
-2.09049e-06
-3.77323e-06
-2.09925e-06
-3.96537e-06
-2.32452e-06
-1.52196e-06
-4.64787e-07
-2.02583e-06
-1.59723e-06
-2.51454e-06
-1.60951e-06
-1.61081e-06
-2.8662e-06
-8.5522e-07
-1.66458e-06
-4.13766e-06
-1.67415e-06
-4.33103e-06
-2.39693e-06
-8.05933e-07
-1.64134e-06
-2.08928e-06
-8.4669e-07
-3.77376e-06
-1.66329e-06
-8.56527e-07
-4.13802e-06
-8.87171e-07
-8.88477e-07
-5.45667e-06
-8.94937e-07
-5.66305e-06
-2.41004e-06
-1.8091e-06
-2.09802e-06
-3.96614e-06
-1.67284e-06
-4.33164e-06
-8.93606e-07
-5.66327e-06
-5.8718e-06
-3.33064e-06
-3.33191e-06
2.59979e-06
-2.95502e-06
-3.51076e-06
-6.4359e-08
-2.3913e-06
-3.54613e-06
-5.54484e-07
-1.28237e-06
-3.67252e-06
-2.25171e-06
-3.70877e-06
-2.54225e-06
-3.50949e-06
-2.95646e-06
-6.48976e-08
-3.1272e-06
-3.12863e-06
-2.92885e-06
-2.53264e-06
-3.15967e-06
-3.4954e-06
-1.36684e-06
-3.33156e-06
-5.28e-06
-3.39005e-06
-5.6075e-06
-3.54485e-06
-2.39285e-06
-5.55291e-07
-3.15823e-06
-2.53417e-06
-3.49563e-06
-2.5653e-06
-2.56686e-06
-4.05195e-06
-1.38877e-06
-2.7354e-06
-5.91037e-06
-2.78777e-06
-6.27665e-06
-3.67124e-06
-1.28394e-06
-2.25295e-06
-3.33012e-06
-1.36842e-06
-5.28065e-06
-2.73379e-06
-1.39039e-06
-5.91084e-06
-1.49527e-06
-1.49694e-06
-7.93366e-06
-1.52979e-06
-8.3668e-06
-3.70748e-06
-2.54385e-06
-3.38859e-06
-5.60848e-06
-2.78613e-06
-6.27747e-06
-1.52809e-06
-8.36712e-06
-8.82461e-06
-4.43361e-06
-4.43536e-06
3.98286e-06
-4.09165e-06
-4.73509e-06
3.45713e-07
-3.42101e-06
-4.8404e-06
-4.5011e-07
-1.87037e-06
-5.18834e-06
-2.82193e-06
-5.31857e-06
-3.28838e-06
-4.73338e-06
-4.09366e-06
3.45039e-07
-4.3907e-06
-4.39262e-06
-3.61401e-06
-3.62376e-06
-4.57335e-06
-4.52941e-06
-1.98651e-06
-5.01211e-06
-7.0935e-06
-5.18441e-06
-7.67061e-06
-4.83865e-06
-3.42318e-06
-4.51162e-07
-4.5713e-06
-3.62589e-06
-4.52974e-06
-3.81854e-06
-3.82078e-06
-5.5573e-06
-2.13045e-06
-4.25991e-06
-8.35066e-06
-4.44868e-06
-9.08105e-06
-5.18665e-06
-1.87254e-06
-2.82351e-06
-5.01009e-06
-1.9887e-06
-7.09442e-06
-4.25768e-06
-2.13277e-06
-8.35127e-06
-2.40271e-06
-2.40507e-06
-1.16435e-05
-2.53172e-06
-1.26172e-05
-5.31687e-06
-3.29043e-06
-5.18241e-06
-7.67201e-06
-4.44639e-06
-9.0823e-06
-2.5293e-06
-1.26178e-05
-1.3736e-05
-6.85206e-06
-6.85406e-06
6.42552e-06
-6.51206e-06
-7.38261e-06
1.39567e-06
-5.5587e-06
-7.60333e-06
1.03217e-07
-3.06751e-06
-8.34595e-06
-3.23885e-06
-8.62384e-06
-4.01493e-06
-7.38065e-06
-6.51438e-06
1.39482e-06
-7.12479e-06
-7.12707e-06
-4.12543e-06
-5.91462e-06
-7.57826e-06
-5.76465e-06
-3.35096e-06
-8.42625e-06
-9.57687e-06
-8.87353e-06
-1.07036e-05
-7.6014e-06
-5.5612e-06
1.01923e-07
-7.57582e-06
-5.9173e-06
-5.7651e-06
-6.53742e-06
-6.54028e-06
-7.63368e-06
-3.78269e-06
-7.64183e-06
-1.18898e-05
-7.99589e-06
-1.36665e-05
-8.34404e-06
-3.0701e-06
-3.24076e-06
-8.42394e-06
-3.35374e-06
-9.57809e-06
-7.63905e-06
-3.78577e-06
-1.18907e-05
-4.19063e-06
-4.19354e-06
-1.85402e-05
-4.33409e-06
-2.03911e-05
-8.62199e-06
-4.01755e-06
-8.8714e-06
-1.07055e-05
-7.99298e-06
-1.36689e-05
-4.33117e-06
-2.03919e-05
-2.22363e-05
-8.60753e-06
-8.61015e-06
9.32162e-06
-8.20236e-06
-9.52925e-06
2.78684e-06
-6.99653e-06
-1.01349e-05
1.07301e-06
-3.88835e-06
-1.13698e-05
-3.39335e-06
-1.20067e-05
-4.44364e-06
-9.52668e-06
-8.20534e-06
2.78574e-06
-9.30666e-06
-9.30952e-06
-4.5652e-06
-8.2128e-06
-1.0034e-05
-6.95939e-06
-4.55805e-06
-1.09509e-05
-1.36505e-05
-1.11708e-05
-1.60234e-05
-1.01324e-05
-6.99959e-06
1.07128e-06
-1.0031e-05
-8.21606e-06
-6.95993e-06
-8.8992e-06
-8.90245e-06
-9.89708e-06
-4.71346e-06
-8.65111e-06
-1.83754e-05
-8.65092e-06
-2.08252e-05
-1.13674e-05
-3.89129e-06
-3.39582e-06
-1.09478e-05
-4.56105e-06
-1.36527e-05
-8.64794e-06
-4.71637e-06
-1.83767e-05
-4.76975e-06
-4.77271e-06
-2.62968e-05
-4.82772e-06
-2.89027e-05
-1.20044e-05
-4.44704e-06
-1.11674e-05
-1.60266e-05
-8.64771e-06
-2.08276e-05
-4.82465e-06
-2.89036e-05
-3.1716e-05
-1.24035e-05
-1.24066e-05
1.26783e-05
-1.20949e-05
-1.41617e-05
5.06038e-06
-1.00989e-05
-1.53685e-05
2.35487e-06
-5.66166e-06
-1.65038e-05
-3.9247e-06
-1.6996e-05
-5.92601e-06
-1.41587e-05
-1.20984e-05
5.05895e-06
-1.38585e-05
-1.38619e-05
-5.16509e-06
-1.13115e-05
-1.47909e-05
-1.00841e-05
-6.10397e-06
-1.50983e-05
-2.02635e-05
-1.5468e-05
-2.35784e-05
-1.53655e-05
-1.01024e-05
2.35258e-06
-1.47874e-05
-1.13148e-05
-1.00853e-05
-1.14057e-05
-1.14092e-05
-1.66604e-05
-6.3534e-06
-1.17656e-05
-2.67604e-05
-1.2066e-05
-3.05013e-05
-1.65006e-05
-5.66524e-06
-3.92791e-06
-1.50949e-05
-6.10736e-06
-2.02658e-05
-1.17622e-05
-6.35676e-06
-2.67618e-05
-6.6268e-06
-6.63007e-06
-3.65677e-05
-6.84823e-06
-4.06624e-05
-1.69923e-05
-5.93129e-06
-1.54643e-05
-2.3582e-05
-1.20624e-05
-3.05039e-05
-6.84484e-06
-4.06633e-05
-4.52301e-05
-1.55447e-05
-1.55486e-05
1.66002e-05
-1.49302e-05
-1.78648e-05
7.45943e-06
-1.23588e-05
-1.94377e-05
3.56736e-06
-7.35191e-06
-2.03873e-05
-4.96112e-06
-2.06933e-05
-9.39048e-06
-1.78611e-05
-1.49347e-05
7.45783e-06
-1.73116e-05
-1.73157e-05
-6.26369e-06
-1.35922e-05
-1.81201e-05
-1.51212e-05
-7.7648e-06
-1.91648e-05
-2.73133e-05
-1.98e-05
-3.21469e-05
-1.94335e-05
-1.23636e-05
3.56435e-06
-1.81158e-05
-1.35964e-05
-1.51223e-05
-1.43378e-05
-1.43421e-05
-2.42164e-05
-8.19584e-06
-1.52092e-05
-3.68579e-05
-1.5834e-05
-4.25711e-05
-2.03829e-05
-7.35648e-06
-4.96568e-06
-1.91605e-05
-7.7688e-06
-2.73157e-05
-1.52051e-05
-8.19986e-06
-3.68595e-05
-8.77732e-06
-8.78118e-06
-4.94236e-05
-9.20978e-06
-5.59607e-05
-2.0688e-05
-9.39889e-06
-1.97953e-05
-3.21505e-05
-1.58296e-05
-4.25739e-05
-9.20572e-06
-5.59617e-05
-6.34276e-05
-2.4397e-05
-2.44016e-05
2.39434e-05
-2.27012e-05
-2.67462e-05
1.02831e-05
-1.90975e-05
-2.89641e-05
5.26816e-06
-1.07734e-05
-3.00024e-05
-7.92229e-06
-3.12658e-05
-1.4466e-05
-2.67418e-05
-2.27064e-05
1.02813e-05
-2.56178e-05
-2.56227e-05
-8.51123e-06
-2.07193e-05
-2.79451e-05
-2.10386e-05
-1.20397e-05
-2.97356e-05
-3.62598e-05
-3.14067e-05
-4.39468e-05
-2.89592e-05
-1.91032e-05
5.2646e-06
-2.794e-05
-2.07244e-05
-2.10399e-05
-2.25929e-05
-2.25981e-05
-3.49105e-05
-1.32919e-05
-2.42152e-05
-5.16793e-05
-2.58248e-05
-6.13439e-05
-2.99972e-05
-1.07778e-05
-7.92953e-06
-2.97306e-05
-1.20443e-05
-3.62624e-05
-2.42103e-05
-1.32968e-05
-5.1681e-05
-1.44196e-05
-1.44243e-05
-6.90053e-05
-1.56268e-05
-8.0467e-05
-3.12606e-05
-1.4476e-05
-3.14013e-05
-4.39511e-05
-2.58195e-05
-6.13474e-05
-1.56219e-05
-8.04682e-05
-9.44411e-05
-3.03454e-05
-3.03515e-05
3.36961e-05
-2.91902e-05
-3.40033e-05
1.50777e-05
-2.38879e-05
-3.73777e-05
6.84963e-06
-1.39154e-05
-4.00866e-05
-1.01702e-05
-4.26426e-05
-1.9845e-05
-3.39975e-05
-2.91965e-05
1.50752e-05
-3.39213e-05
-3.39274e-05
-8.66335e-06
-2.77221e-05
-3.77676e-05
-2.6848e-05
-1.65767e-05
-4.12778e-05
-4.6214e-05
-4.45395e-05
-5.851e-05
-3.73715e-05
-2.38944e-05
6.8452e-06
-3.7761e-05
-2.77281e-05
-2.68495e-05
-3.12573e-05
-3.12637e-05
-4.79181e-05
-1.89588e-05
-3.45651e-05
-7.06904e-05
-3.80242e-05
-8.66992e-05
-4.00807e-05
-1.39212e-05
-1.01792e-05
-4.12718e-05
-1.65823e-05
-4.62172e-05
-3.45592e-05
-1.89648e-05
-7.06925e-05
-2.15019e-05
-2.15075e-05
-9.51203e-05
-2.41928e-05
-0.000115663
-4.26359e-05
-1.98573e-05
-4.45328e-05
-5.85153e-05
-3.80178e-05
-8.67035e-05
-2.41867e-05
-0.000115664
-0.000142528
-4.71115e-05
-4.71197e-05
5.1183e-05
-4.6432e-05
-5.24451e-05
2.49077e-05
-3.80262e-05
-5.88923e-05
1.09992e-05
-2.26881e-05
-6.37293e-05
-1.09314e-05
-6.94872e-05
-2.56633e-05
-5.24374e-05
-4.64408e-05
2.49041e-05
-5.38281e-05
-5.38361e-05
-5.8816e-06
-4.49019e-05
-6.23335e-05
-3.2333e-05
-2.76916e-05
-6.92428e-05
-5.79108e-05
-7.75313e-05
-7.80258e-05
-5.88834e-05
-3.80347e-05
1.09927e-05
-6.23246e-05
-4.49097e-05
-3.23347e-05
-5.35215e-05
-5.35302e-05
-6.55245e-05
-3.43015e-05
-6.03457e-05
-9.88076e-05
-6.9155e-05
-0.000129242
-6.37213e-05
-2.26959e-05
-1.09425e-05
-6.9235e-05
-2.76989e-05
-5.79144e-05
-6.03379e-05
-3.43094e-05
-9.88104e-05
-3.9764e-05
-3.97713e-05
-0.000136269
-4.69844e-05
-0.000177442
-6.94779e-05
-2.56792e-05
-7.75226e-05
-7.80318e-05
-6.91463e-05
-0.000129248
-4.69766e-05
-0.000177444
-0.000236164
-5.8086e-05
-5.8096e-05
7.53156e-05
-5.99695e-05
-6.73051e-05
4.25699e-05
-5.02348e-05
-7.86352e-05
2.07135e-05
-3.10396e-05
-8.70323e-05
-6.65156e-06
-9.83654e-05
-2.87016e-05
-6.72958e-05
-5.998e-05
4.25651e-05
-7.2456e-05
-7.24655e-05
4.43906e-06
-6.21768e-05
-8.80091e-05
-3.32383e-05
-4.04768e-05
-0.000100722
-6.59211e-05
-0.000117616
-9.90975e-05
-7.86244e-05
-5.02447e-05
2.07045e-05
-8.79983e-05
-6.21861e-05
-3.32402e-05
-7.84814e-05
-7.84919e-05
-8.45587e-05
-5.31826e-05
-9.15225e-05
-0.000133306
-0.000110464
-0.00018942
-8.70231e-05
-3.10483e-05
-6.66481e-06
-0.000100713
-4.04853e-05
-6.59253e-05
-9.15131e-05
-5.31922e-05
-0.00013331
-6.49464e-05
-6.49552e-05
-0.000189403
-8.09485e-05
-0.000271724
-9.83544e-05
-2.87208e-05
-0.000117605
-9.91051e-05
-0.000110454
-0.000189429
-8.09386e-05
-0.000271727
-0.000397689
-8.79399e-05
-8.79545e-05
0.000116263
-9.39016e-05
-0.000104251
7.69341e-05
-8.08679e-05
-0.000126451
4.47072e-05
-5.09276e-05
-0.000141172
7.9381e-06
-0.000164597
-2.43428e-05
-0.000104238
-9.39169e-05
7.69278e-05
-0.000115601
-0.000115614
2.71667e-05
-0.000101399
-0.000146614
-2.72773e-05
-6.82343e-05
-0.000170118
-7.01402e-05
-0.000205523
-0.000126227
-0.000126435
-8.08808e-05
4.46934e-05
-0.000146598
-0.000101412
-2.72792e-05
-0.000134854
-0.000134869
-0.000108048
-9.55691e-05
-0.000160591
-0.000182118
-0.000203485
-0.000286849
-0.00014116
-5.09409e-05
7.92479e-06
-0.000170105
-6.82454e-05
-7.0146e-05
-0.000160578
-9.55824e-05
-0.000182124
-0.000118718
-0.000118729
-0.000273124
-0.000158331
-0.000435372
-0.000164579
-2.43687e-05
-0.000205508
-0.000126235
-0.00020347
-0.000286862
-0.000158319
-0.000435374
-0.000713885
-0.000105684
-0.000105701
0.000171059
-0.000118024
-0.00012915
0.000129817
-0.000106004
-0.000170203
9.08243e-05
-7.18668e-05
-0.000194182
4.67549e-05
-0.000241229
-2.10294e-06
-0.000129135
-0.000118042
0.000129809
-0.000154743
-0.000154757
7.83823e-05
-0.000140149
-0.000209747
-2.32689e-06
-0.000103112
-0.000252429
-4.89311e-05
-0.000331831
-0.000138545
-0.000170184
-0.00010602
9.08063e-05
-0.000209728
-0.000140164
-2.32855e-06
-0.00020574
-0.000205758
-0.000116025
-0.000159607
-0.000258669
-0.000222011
-0.000366866
-0.000411248
-0.000194167
-7.18769e-05
4.67336e-05
-0.000252414
-0.000103124
-4.89381e-05
-0.000258654
-0.000159624
-0.000222018
-0.000217628
-0.000217643
-0.000355177
-0.000324903
-0.000694785
-0.000241211
-2.12891e-06
-0.000331814
-0.000138555
-0.000366849
-0.000411267
-0.000324885
-0.000694793
-0.00136349
-0.00014807
-0.000148097
0.000251111
-0.000168331
-0.000184141
0.000210312
-0.000155599
-0.000251285
0.000168504
-0.000106942
-0.000299684
0.000119345
-0.000388272
5.85814e-05
-0.000184119
-0.000168358
0.000210302
-0.00022597
-0.00022599
0.000162083
-0.000220793
-0.000328916
7.0127e-05
-0.000162261
-0.000407305
1.56879e-07
-0.000559977
-0.000128837
-0.000251253
-0.000155626
0.000168482
-0.000328888
-0.000220812
7.01282e-05
-0.000340908
-0.000340935
-9.19863e-05
-0.000275255
-0.000450928
-0.000244039
-0.00068105
-0.00056518
-0.00029966
-0.000106972
0.000119326
-0.000407283
-0.000162277
1.50479e-07
-0.000450912
-0.000275278
-0.000244047
-0.000392665
-0.000392678
-0.000471674
-0.000636205
-0.00113185
-0.000388229
5.85317e-05
-0.000559948
-0.000128838
-0.000681025
-0.000565209
-0.000636187
-0.00113185
-0.00263472
-0.000165475
-0.000165502
0.000350088
-0.000199946
-0.000212427
0.000325265
-0.000193311
-0.000323737
0.000295409
-0.000145621
-0.000396534
0.000259075
-0.000586045
0.000201599
-0.000212405
-0.000199974
0.000325254
-0.000280529
-0.00028055
0.000298328
-0.000291641
-0.000466089
0.000223592
-0.000258018
-0.000603732
0.000173731
-0.000967498
-5.13942e-06
-0.000323704
-0.000193339
0.000295384
-0.00046606
-0.000291661
0.000223596
-0.000534734
-0.000534763
4.53621e-05
-0.000487768
-0.000772715
-0.000122022
-0.00146038
-0.0005599
-0.000396511
-0.000145645
0.000259053
-0.000603711
-0.000258036
0.000173725
-0.000772689
-0.0004878
-0.000122031
-0.000806052
-0.000806084
-0.000404943
-0.0016142
-0.00178411
-0.000586008
0.000201539
-0.000967476
-5.13212e-06
-0.00146036
-0.000559948
-0.00161416
-0.00178414
-0.00128364
-0.00141189
-0.00141175
-0.00175826
-0.000202559
-0.000202605
0.000466021
-0.000244417
-0.000267496
0.000468895
-0.000245352
-0.000420327
0.000469272
-0.000187172
-0.000535283
0.00045646
-0.000820632
0.000429808
-0.000267465
-0.000244461
0.000468882
-0.000359087
-0.000359113
0.000481568
-0.000389039
-0.000616609
0.000449825
-0.000333588
-0.000873516
0.000456513
-0.00150895
0.000350038
-0.000420267
-0.000245394
0.000469243
-0.000616565
-0.000389055
0.000449835
-0.000779945
-0.000779994
0.000372128
-0.000739093
-0.00129264
0.000256245
-0.00280695
-4.8373e-07
-0.000535247
-0.000187207
0.000456434
-0.00087349
-0.000333599
0.000456513
-0.00129262
-0.000739134
0.000256241
-0.00146893
-0.00146887
-5.23975e-05
-0.000710966
-0.000333096
-0.000393998
-0.000667231
-0.0010248
-0.000624501
-0.000991838
-0.00131254
-0.000820548
0.000429741
-0.00150891
0.000350097
-0.00280683
-6.4882e-07
-0.000710967
-0.000333117
-0.000667251
-0.000393841
-0.00102465
-0.000624485
-0.000991973
-0.00131256
-0.000493149
-0.000493109
-0.00171932
-0.000186352
-0.000186397
0.000586988
-0.000239565
-0.00025228
0.000631745
-0.000255909
-0.000449724
0.000697739
-0.000215504
-0.000598911
0.000747132
-0.00106466
0.000826549
-0.000252248
-0.000239609
0.000631731
-0.000359043
-0.000359069
0.000695152
-0.000428829
-0.000719833
0.000789721
-0.000421365
-0.0010267
0.000876839
-0.0021578
0.00102235
-0.000449666
-0.000255954
0.00069771
-0.00071979
-0.000428842
0.000789732
-0.00103718
-0.00103723
0.00100691
-0.00110506
-0.00193292
0.00123035
-0.00109193
0.0017622
-0.00125861
-0.00117287
-0.00150141
-0.000598871
-0.000215545
0.000747104
-0.00102666
-0.000421368
0.000876832
-0.00193284
-0.00110512
0.00123031
-0.000627019
-0.000627058
0.000414802
0.000592007
0.000592008
0.000758755
-0.000840742
-0.00051853
-0.00115182
-0.000840804
-0.000518368
-0.00115138
-0.000495878
-0.00151647
-3.96981e-05
-0.00106458
0.00082648
-0.0021577
0.0010224
-0.00109194
0.00176204
-0.00125862
-0.00117286
-0.00150136
-0.0015165
-0.000495918
-3.9696e-05
0.00197062
0.00197074
-0.00080951
-0.000323259
-0.000452796
-0.000452341
0.00181031
-0.000558845
-0.000419007
-0.000418119
-0.000461109
-0.00055868
-0.000418968
-0.00041808
-0.000460961
-0.000171655
-0.000171726
0.000667419
-0.000205917
-0.000224288
0.000758269
-0.0002206
-0.000389663
0.000867276
-0.000160445
-0.00051647
0.000972509
-0.000849325
0.00112355
-0.00022425
-0.000205984
0.000758258
-0.000307884
-0.000307907
0.000862405
-0.00034558
-0.000602412
0.00104017
-0.000328558
-0.000814095
0.00115744
-0.00153236
0.00137746
-0.000389562
-0.000220682
0.000867264
-0.000602358
-0.000345549
0.00104017
-0.000821371
-0.000821505
0.00144501
-0.00075345
-0.000436268
0.0018316
-0.000621426
-0.000210068
-0.000215504
-0.00102002
0.00270122
-0.00136391
-0.000356713
-0.00048321
-0.000516411
-0.000160541
0.000972495
-0.000814047
-0.000328514
0.00115743
-0.000436245
-0.000753619
0.00183153
-0.000621402
-0.000210033
-0.00021547
-0.00053412
-0.000533718
0.000610127
-0.00050329
0.00108679
0.000609072
-0.000517653
-0.000391367
-0.000435605
-0.000491268
-0.000376695
-0.000849233
0.00112357
-0.0015321
0.00137744
-0.0010199
0.00270118
-0.00136412
-0.000356615
-0.000483213
-0.00050347
0.00108636
0.000608536
-0.00051761
-0.000391027
-0.000435313
-0.000491043
-0.000376334
0.000669962
0.000669724
-0.000143298
-0.00078378
-0.0007841
0.000371492
-6.30241e-05
-6.30851e-05
0.000679215
-5.40074e-05
-7.37845e-05
0.000762728
-3.12304e-05
-8.33119e-05
0.000843135
4.46073e-06
-7.53876e-05
0.000912235
-3.78249e-05
0.000991603
-7.37451e-05
-5.4073e-05
0.000762726
-7.93807e-05
-7.94115e-05
0.000873668
-9.03144e-05
-2.74902e-05
0.000995278
-8.43445e-05
-2.42604e-05
0.00110034
5.25546e-05
0.00120355
-8.32225e-05
-3.13167e-05
0.000843146
-2.74102e-05
-9.03251e-05
0.000995272
9.7781e-05
9.76631e-05
0.00119467
0.000171805
0.000386524
0.00134679
0.000234374
0.00155709
0.000156507
0.000407721
0.000571354
-7.5355e-05
4.38834e-06
0.000912244
-2.42498e-05
-8.43279e-05
0.00110033
0.000386436
0.000171705
0.0013468
9.02116e-05
9.02217e-05
0.0012475
0.000478679
6.28532e-05
0.000677666
0.000478721
6.28395e-05
0.00067767
-0.000614816
-0.00067682
-0.000676815
-0.00112495
8.22197e-05
0.000762924
0.000433182
-0.00095374
-3.76993e-05
0.000991617
5.27904e-05
0.00120349
0.000234414
0.00155713
0.000156483
0.00040778
0.000571349
0.000762916
8.21063e-05
0.000432965
-0.000953351
-0.000307944
-0.000308007
-6.34013e-05
0.000424658
0.000424585
-0.000169891
-1.75608e-05
-1.7633e-05
0.000634213
1.61468e-05
-1.33977e-05
0.0007224
3.28739e-05
-7.52495e-08
0.000769636
6.16564e-05
1.46878e-05
0.00083035
4.1984e-05
0.000852882
-1.33505e-05
1.6069e-05
0.000722403
-3.85459e-06
-3.87825e-06
0.000854653
-3.08516e-05
9.60122e-05
0.000926187
-6.79431e-05
7.51714e-05
0.00107695
-2.72015e-05
0.00120645
2.68474e-08
3.2795e-05
0.000769639
9.61097e-05
-3.08736e-05
0.000926184
0.000192786
0.00019266
0.00100135
0.000275074
0.00021944
0.00112023
0.000339695
0.00105946
0.000390566
0.00011355
-9.94136e-05
1.47641e-05
6.15823e-05
0.000830343
7.52244e-05
-6.79606e-05
0.00107696
0.000219473
0.000274952
0.00112026
-8.94041e-06
-8.95008e-06
0.000271908
0.00033549
0.000335496
0.000273186
0.000191875
0.000207709
-0.000155465
0.000191879
0.000207705
-0.000155483
0.000212521
4.06338e-06
0.000597277
-0.000483107
4.21462e-05
0.000852862
-2.70573e-05
0.00120644
0.000339703
0.00105947
0.000390601
0.000113567
-9.94149e-05
0.00021266
0.000597226
4.00622e-06
-0.00048314
0.00380066
0.000984024
0.000984451
-0.00101873
-0.00101864
-0.00101521
-0.000877462
-0.000919543
-0.000919552
2.49749e-05
2.48994e-05
0.000592285
4.01759e-05
7.03752e-05
0.000687391
2.4468e-05
6.26636e-05
0.000760035
1.90424e-05
8.21939e-05
0.000857395
-7.73478e-07
0.000942789
7.04189e-05
4.00994e-05
0.000687399
8.59549e-05
8.5932e-05
0.00082356
7.61665e-05
3.2251e-05
0.000966388
2.13718e-05
8.49871e-05
0.00112895
-0.000132296
0.00136193
6.27588e-05
2.43782e-05
0.000760047
3.23365e-05
7.61602e-05
0.000966379
-6.95054e-05
-6.96472e-05
0.00120509
-0.000118652
-8.65454e-05
0.00162104
-0.00026911
7.37005e-05
-8.47198e-05
-0.000337469
0.00207527
-0.000594323
-7.69554e-05
-0.000253766
8.22631e-05
1.89608e-05
0.000857393
8.50713e-05
2.13614e-05
0.00112895
-8.65314e-05
-0.000118817
0.00162103
-0.000269074
7.37382e-05
-8.46639e-05
-0.000143076
-0.000143012
0.00038492
-0.000278723
-0.000858552
0.000220184
0.000208523
0.0003711
-6.93323e-07
0.000942825
-0.000132164
0.00136191
-0.000337577
0.00207534
-0.000594303
-7.69411e-05
-0.000253792
-0.000858445
-0.000278752
0.000220085
0.000208405
0.00037113
0.000561847
0.000354009
0.00035402
-0.000480976
-0.000480894
-0.000308007
0.000109583