/*--------------------------------*- C++ -*----------------------------------*\
| =========                 |                                                 |
| \\      /  F ield         | OpenFOAM: The Open Source CFD Toolbox           |
|  \\    /   O peration     | Version:  5.x                                   |
|   \\  /    A nd           | Web:      www.OpenFOAM.org                      |
|    \\/     M anipulation  |                                                 |
\*---------------------------------------------------------------------------*/
FoamFile
{
    version     2.0;
    format      ascii;
    class       volVectorField;
    location    "0.051";
    object      U;
}
// * * * * * * * * * * * * * * * * * * * * * * * * * * * * * * * * * * * * * //

dimensions      [0 1 -1 0 0 0 0];

internalField   nonuniform List<vector> 
1553
(
(-9.20376e-06 -9.2335e-06 0.00482712)
(-8.44935e-06 -1.08308e-05 0.00482475)
(-5.73669e-06 -1.10854e-05 0.0048288)
(-6.21525e-06 -1.1562e-05 0.00482505)
(-2.56483e-07 -1.16324e-05 0.00482631)
(-1.0801e-05 -8.48313e-06 0.00482474)
(-1.02433e-05 -1.02772e-05 0.00481829)
(-6.44614e-06 -1.06895e-05 0.00482151)
(-6.74641e-06 -1.12561e-05 0.00481787)
(-4.48008e-07 -1.13809e-05 0.00481913)
(-1.10559e-05 -5.7688e-06 0.00482879)
(-1.06557e-05 -6.47847e-06 0.00482152)
(-6.71637e-06 -6.74859e-06 0.00482396)
(-6.90703e-06 -7.04718e-06 0.00482024)
(-5.66871e-07 -7.14625e-06 0.0048214)
(-1.15325e-05 -6.25029e-06 0.00482504)
(-1.12223e-05 -6.7812e-06 0.00481787)
(-7.01485e-06 -6.94177e-06 0.00482023)
(-7.14407e-06 -7.17888e-06 0.00481668)
(-6.60232e-07 -7.25335e-06 0.00481789)
(-1.16027e-05 -2.91197e-07 0.0048263)
(-1.13468e-05 -4.83132e-07 0.00481914)
(-7.11404e-06 -6.01719e-07 0.0048214)
(-7.21861e-06 -6.95111e-07 0.0048179)
(-7.284e-07 -7.62811e-07 0.00481908)
(-7.36108e-06 -7.37128e-06 -0.000928933)
(-9.60511e-06 -5.64992e-06 -0.000930625)
(-6.69963e-06 -5.36538e-06 -0.000931876)
(-5.72742e-06 -4.83852e-06 -0.000932588)
(-2.48889e-06 -4.74245e-06 -0.000933167)
(-5.63973e-06 -9.62492e-06 -0.000930622)
(-7.67855e-06 -7.69794e-06 -0.00093137)
(-5.91987e-06 -7.2368e-06 -0.000932461)
(-5.12863e-06 -6.62277e-06 -0.000933002)
(-2.19718e-06 -6.45849e-06 -0.00093356)
(-5.35476e-06 -6.72196e-06 -0.000931875)
(-7.21699e-06 -5.94183e-06 -0.000932464)
(-5.62554e-06 -5.64776e-06 -0.000933431)
(-4.94988e-06 -5.31926e-06 -0.00093392)
(-2.05698e-06 -5.19755e-06 -0.000934442)
(-4.82794e-06 -5.75374e-06 -0.000932587)
(-6.60325e-06 -5.15505e-06 -0.000933003)
(-5.2973e-06 -4.97639e-06 -0.000933918)
(-4.67842e-06 -4.70475e-06 -0.00093438)
(-1.90255e-06 -4.61131e-06 -0.000934897)
(-4.73195e-06 -2.51527e-06 -0.000933168)
(-6.43888e-06 -2.22319e-06 -0.000933564)
(-5.17523e-06 -2.08345e-06 -0.000934444)
(-4.58479e-06 -1.92892e-06 -0.0009349)
(-1.82067e-06 -1.84767e-06 -0.000935402)
(-1.12334e-05 -1.12605e-05 0.00328427)
(-1.17142e-05 -1.18299e-05 0.00327864)
(-7.90341e-06 -1.19122e-05 0.00327921)
(-7.66932e-06 -1.22098e-05 0.00327517)
(-9.54181e-07 -1.22583e-05 0.00327538)
(-1.18028e-05 -1.17481e-05 0.00327863)
(-1.23468e-05 -1.23808e-05 0.00327177)
(-8.27272e-06 -1.24956e-05 0.00327213)
(-8.00604e-06 -1.28357e-05 0.00326779)
(-1.08459e-06 -1.29037e-05 0.00326795)
(-1.18851e-05 -7.93725e-06 0.0032792)
(-1.24617e-05 -8.30659e-06 0.00327213)
(-8.35858e-06 -8.39245e-06 0.00327235)
(-8.07758e-06 -8.61136e-06 0.00326794)
(-1.13247e-06 -8.66909e-06 0.00326805)
(-1.21827e-05 -7.70659e-06 0.00327516)
(-1.28018e-05 -8.04329e-06 0.00326778)
(-8.57749e-06 -8.11482e-06 0.00326793)
(-8.28268e-06 -8.31992e-06 0.00326341)
(-1.21938e-06 -8.37302e-06 0.00326351)
(-1.22311e-05 -9.91157e-07 0.00327537)
(-1.28697e-05 -1.12167e-06 0.00326794)
(-8.63522e-06 -1.16953e-06 0.00326804)
(-8.33578e-06 -1.25648e-06 0.00326351)
(-1.26164e-06 -1.29868e-06 0.00326357)
(-1.31485e-05 -1.31687e-05 0.00032382)
(-1.46722e-05 -1.27255e-05 0.000317032)
(-1.01658e-05 -1.26552e-05 0.000316038)
(-9.55239e-06 -1.2447e-05 0.000311773)
(-2.33529e-06 -1.2403e-05 0.000311212)
(-1.27053e-05 -1.47006e-05 0.000317028)
(-1.41802e-05 -1.42085e-05 0.000310346)
(-9.89909e-06 -1.40999e-05 0.00030937)
(-9.31089e-06 -1.38629e-05 0.000305111)
(-2.15243e-06 -1.37964e-05 0.000304551)
(-1.26349e-05 -1.01952e-05 0.000316033)
(-1.40715e-05 -9.92834e-06 0.000309368)
(-9.82061e-06 -9.84997e-06 0.000308415)
(-9.24926e-06 -9.69508e-06 0.000304162)
(-2.09997e-06 -9.64281e-06 0.000303612)
(-1.24267e-05 -9.58585e-06 0.000311765)
(-1.38346e-05 -9.34433e-06 0.000305106)
(-9.66582e-06 -9.28277e-06 0.000304159)
(-9.10374e-06 -9.13716e-06 0.00029989)
(-1.97715e-06 -9.08933e-06 0.00029934)
(-1.23827e-05 -2.36879e-06 0.0003112)
(-1.37681e-05 -2.18584e-06 0.000304543)
(-9.61344e-06 -2.13352e-06 0.000303606)
(-9.05583e-06 -2.01061e-06 0.000299337)
(-1.93744e-06 -1.97109e-06 0.000298792)
(-1.82608e-05 -1.82913e-05 0.00244147)
(-1.94979e-05 -1.8752e-05 0.00243024)
(-1.31621e-05 -1.88154e-05 0.00242934)
(-1.24962e-05 -1.91071e-05 0.00242214)
(-1.70688e-06 -1.91537e-05 0.00242165)
(-1.87215e-05 -1.9537e-05 0.00243023)
(-2.0008e-05 -2.00471e-05 0.00241835)
(-1.35077e-05 -2.01217e-05 0.00241736)
(-1.28258e-05 -2.04502e-05 0.00240982)
(-1.80363e-06 -2.05066e-05 0.00240928)
(-1.87849e-05 -1.32014e-05 0.00242933)
(-2.00826e-05 -1.35471e-05 0.00241735)
(-1.35652e-05 -1.36046e-05 0.00241632)
(-1.28811e-05 -1.38327e-05 0.00240873)
(-1.83281e-06 -1.3881e-05 0.00240817)
(-1.90766e-05 -1.25398e-05 0.00242212)
(-2.04112e-05 -1.28695e-05 0.00240981)
(-1.37933e-05 -1.29247e-05 0.00240872)
(-1.31021e-05 -1.31458e-05 0.00240094)
(-1.9065e-06 -1.31936e-05 0.00240035)
(-1.91232e-05 -1.75011e-06 0.00242163)
(-2.04675e-05 -1.84694e-06 0.00240927)
(-1.38416e-05 -1.87616e-06 0.00240816)
(-1.31499e-05 -1.94988e-06 0.00240034)
(-1.94147e-06 -1.98489e-06 0.00239973)
(-2.47393e-05 -2.47693e-05 0.000937714)
(-2.68055e-05 -2.49958e-05 0.00092282)
(-1.82637e-05 -2.50257e-05 0.000921144)
(-1.72385e-05 -2.51632e-05 0.000911699)
(-2.89503e-06 -2.51735e-05 0.000910754)
(-2.49657e-05 -2.68451e-05 0.000922812)
(-2.7056e-05 -2.70956e-05 0.000907564)
(-1.84274e-05 -2.71202e-05 0.000905839)
(-1.73836e-05 -2.72733e-05 0.00089616)
(-2.82473e-06 -2.72804e-05 0.000895187)
(-2.49956e-05 -1.83037e-05 0.000921133)
(-2.70806e-05 -1.84675e-05 0.000905836)
(-1.84414e-05 -1.84815e-05 0.000904107)
(-1.73987e-05 -1.85747e-05 0.000894393)
(-2.81241e-06 -1.85798e-05 0.000893416)
(-2.51331e-05 -1.72834e-05 0.000911679)
(-2.72337e-05 -1.74285e-05 0.000896149)
(-1.85347e-05 -1.74437e-05 0.000894385)
(-1.74819e-05 -1.75268e-05 0.00088452)
(-2.75945e-06 -1.75309e-05 0.000883524)
(-2.51434e-05 -2.93951e-06 0.000910731)
(-2.72409e-05 -2.86922e-06 0.000895172)
(-1.85397e-05 -2.85699e-06 0.000893404)
(-1.7486e-05 -2.804e-06 0.000883519)
(-2.752e-06 -2.79667e-06 0.000882519)
(-3.36721e-05 -3.37109e-05 0.00201354)
(-3.60736e-05 -3.4536e-05 0.00199139)
(-2.42838e-05 -3.46508e-05 0.00198893)
(-2.28863e-05 -3.51823e-05 0.0019749)
(-2.92273e-06 -3.52589e-05 0.00197357)
(-3.44972e-05 -3.61239e-05 0.00199137)
(-3.69877e-05 -3.70379e-05 0.00196838)
(-2.49116e-05 -3.71665e-05 0.00196579)
(-2.34777e-05 -3.77627e-05 0.00195123)
(-3.0362e-06 -3.78519e-05 0.00194982)
(-3.46119e-05 -2.43341e-05 0.00198891)
(-3.71163e-05 -2.4962e-05 0.00196579)
(-2.50085e-05 -2.50589e-05 0.00196318)
(-2.35716e-05 -2.54733e-05 0.00194854)
(-3.06988e-06 -2.55452e-05 0.00194712)
(-3.51435e-05 -2.29422e-05 0.00197487)
(-3.77126e-05 -2.35336e-05 0.00195122)
(-2.5423e-05 -2.36276e-05 0.00194853)
(-2.3964e-05 -2.40199e-05 0.00193356)
(-3.15917e-06 -2.40907e-05 0.00193207)
(-3.522e-05 -2.9776e-06 0.00197354)
(-3.78018e-05 -3.09123e-06 0.0019498)
(-2.54947e-05 -3.12502e-06 0.0019471)
(-2.40347e-05 -3.21437e-06 0.00193206)
(-3.20187e-06 -3.25718e-06 0.00193056)
(-4.76363e-05 -4.76789e-05 0.00125389)
(-5.14295e-05 -4.87717e-05 0.0012243)
(-3.47471e-05 -4.89373e-05 0.0012209)
(-3.25922e-05 -4.96208e-05 0.00120214)
(-4.40104e-06 -4.97197e-05 0.00120026)
(-4.87292e-05 -5.14847e-05 0.00122428)
(-5.265e-05 -5.27052e-05 0.0011936)
(-3.55701e-05 -5.28762e-05 0.00119003)
(-3.33517e-05 -5.36403e-05 0.00117058)
(-4.46316e-06 -5.37454e-05 0.00116861)
(-4.88946e-05 -3.48023e-05 0.00122088)
(-5.2821e-05 -3.56253e-05 0.00119003)
(-3.56818e-05 -3.57372e-05 0.00118641)
(-3.34612e-05 -3.62528e-05 0.00116682)
(-4.4764e-06 -3.6331e-05 0.00116481)
(-4.95782e-05 -3.26538e-05 0.00120211)
(-5.35852e-05 -3.34133e-05 0.00117057)
(-3.61976e-05 -3.35229e-05 0.00116681)
(-3.39455e-05 -3.40071e-05 0.00114678)
(-4.51922e-06 -3.40849e-05 0.0011447)
(-4.9677e-05 -4.46145e-06 0.00120022)
(-5.36903e-05 -4.52365e-06 0.00116858)
(-3.62756e-05 -4.53703e-06 0.00116479)
(-3.40232e-05 -4.57984e-06 0.00114469)
(-4.53976e-06 -4.60057e-06 0.00114259)
(-6.43074e-05 -6.43603e-05 0.00181393)
(-6.90773e-05 -6.63046e-05 0.00177037)
(-4.64417e-05 -6.66033e-05 0.00176498)
(-4.35275e-05 -6.78415e-05 0.00173747)
(-5.16716e-06 -6.80194e-05 0.00173456)
(-6.62518e-05 -6.9146e-05 0.00177036)
(-7.12542e-05 -7.13227e-05 0.00172499)
(-4.79324e-05 -7.16731e-05 0.00171929)
(-4.49024e-05 -7.30921e-05 0.0016906)
(-5.38779e-06 -7.33113e-05 0.00168748)
(-6.65502e-05 -4.65099e-05 0.00176496)
(-7.16044e-05 -4.80006e-05 0.00171928)
(-4.82105e-05 -4.82789e-05 0.00171356)
(-4.51652e-05 -4.92805e-05 0.00168472)
(-5.46058e-06 -4.94539e-05 0.00168159)
(-6.77886e-05 -4.36032e-05 0.00173743)
(-7.30238e-05 -4.49782e-05 0.00169058)
(-4.92123e-05 -4.52412e-05 0.0016847)
(-4.60774e-05 -4.61532e-05 0.00165514)
(-5.63379e-06 -4.63159e-05 0.00165189)
(-6.79664e-05 -5.2405e-06 0.00173451)
(-7.32429e-05 -5.46143e-06 0.00168745)
(-4.93855e-05 -5.53447e-06 0.00168157)
(-4.62399e-05 -5.70779e-06 0.00165188)
(-5.70866e-06 -5.78296e-06 0.00164863)
(-9.26731e-05 -9.27329e-05 0.00141183)
(-0.000100398 -9.56917e-05 0.00135437)
(-6.76512e-05 -9.61834e-05 0.00134718)
(-6.30149e-05 -9.80763e-05 0.0013107)
(-7.64312e-06 -9.83959e-05 0.00130671)
(-9.56318e-05 -0.000100476 0.00135435)
(-0.000103739 -0.000103816 0.00129415)
(-6.99591e-05 -0.000104314 0.00128637)
(-6.51595e-05 -0.000106409 0.0012482)
(-7.95851e-06 -0.000106728 0.0012439)
(-9.61233e-05 -6.77281e-05 0.00134715)
(-0.000104236 -7.0036e-05 0.00128636)
(-7.02425e-05 -7.03197e-05 0.00127841)
(-6.5428e-05 -7.172e-05 0.00123971)
(-7.98468e-06 -7.19205e-05 0.00123526)
(-9.80164e-05 -6.31007e-05 0.00131065)
(-0.000106331 -6.52452e-05 0.00124817)
(-7.16431e-05 -6.55139e-05 0.00123969)
(-6.67604e-05 -6.6846e-05 0.00119974)
(-8.18483e-06 -6.7051e-05 0.001195)
(-9.83358e-05 -7.72612e-06 0.00130665)
(-0.00010665 -8.04172e-06 0.00124386)
(-7.18434e-05 -8.06814e-06 0.00123523)
(-6.69652e-05 -8.26828e-06 0.00119499)
(-8.22637e-06 -8.3102e-06 0.00119012)
(-0.000123825 -0.000123899 0.00175057)
(-0.000133756 -0.000128673 0.00166513)
(-9.01124e-05 -0.000129578 0.0016531)
(-8.3992e-05 -0.000132569 0.00159925)
(-9.65063e-06 -0.000133068 0.00159275)
(-0.000128598 -0.000133854 0.00166511)
(-0.000139263 -0.000139361 0.00157532)
(-9.38869e-05 -0.000140469 0.00156242)
(-8.73747e-05 -0.000144111 0.00150568)
(-1.02178e-05 -0.000144799 0.00149853)
(-0.000129502 -9.02081e-05 0.00165307)
(-0.000140371 -9.39826e-05 0.00156242)
(-9.48608e-05 -9.4957e-05 0.00154934)
(-8.83201e-05 -9.77363e-05 0.00149217)
(-1.04646e-05 -9.83565e-05 0.00148499)
(-0.000132494 -8.40985e-05 0.00159919)
(-0.000144014 -8.74812e-05 0.00150565)
(-9.76407e-05 -8.84272e-05 0.00149215)
(-9.07743e-05 -9.08807e-05 0.00143333)
(-1.09699e-05 -9.14516e-05 0.00142587)
(-0.000132993 -9.75157e-06 0.00159268)
(-0.000144701 -1.03193e-05 0.00149848)
(-9.82602e-05 -1.05667e-05 0.00148495)
(-9.13446e-05 -1.10723e-05 0.00142586)
(-1.11839e-05 -1.12869e-05 0.00141841)
(-0.00018105 -0.000181135 0.00149725)
(-0.000197909 -0.000188596 0.0013866)
(-0.000133533 -0.000189988 0.0013711)
(-0.000123365 -0.000194869 0.00130064)
(-1.46651e-05 -0.00019586 0.00129183)
(-0.000188511 -0.000198021 0.00138656)
(-0.000206463 -0.000206574 0.00126924)
(-0.000139598 -0.000208112 0.00125173)
(-0.000129053 -0.000213531 0.00117725)
(-1.56762e-05 -0.000214531 0.00116745)
(-0.000189902 -0.000133642 0.00137106)
(-0.000208001 -0.000139706 0.00125172)
(-0.000140488 -0.000140597 0.00123391)
(-0.000129781 -0.00014407 0.00115783)
(-1.57498e-05 -0.000144578 0.00114749)
(-0.000194784 -0.000123486 0.00130056)
(-0.00021342 -0.000129174 0.00117721)
(-0.000143961 -0.000129902 0.0011578)
(-0.000133035 -0.000133156 0.00107812)
(-1.62653e-05 -0.000133634 0.00106656)
(-0.000195774 -1.47801e-05 0.00129174)
(-0.000214419 -1.57919e-05 0.00116739)
(-0.000144469 -1.58659e-05 0.00114744)
(-0.000133513 -1.63812e-05 0.00106655)
(-1.63275e-05 -1.64443e-05 0.00105446)
(-0.00023852 -0.000238628 0.00177583)
(-0.000259955 -0.000250298 0.00160887)
(-0.000176072 -0.000253274 0.00158109)
(-0.000163266 -0.000260425 0.00147598)
(-1.91368e-05 -0.000261949 0.00146065)
(-0.00025019 -0.000260099 0.00160884)
(-0.000274153 -0.000274296 0.00143136)
(-0.000185877 -0.000277724 0.00140096)
(-0.000171658 -0.000286981 0.00128935)
(-2.07728e-05 -0.000289205 0.00127195)
(-0.000253164 -0.000176209 0.00158104)
(-0.00027758 -0.000186014 0.00140095)
(-0.000188753 -0.000188891 0.00136896)
(-0.000174744 -0.000196866 0.0012546)
(-2.15967e-05 -0.000199246 0.00123627)
(-0.000260316 -0.000163419 0.0014759)
(-0.000286839 -0.00017181 0.0012893)
(-0.00019673 -0.000174898 0.00125457)
(-0.000182013 -0.000182166 0.00113575)
(-2.3416e-05 -0.000184486 0.00111652)
(-0.000261838 -1.92778e-05 0.00146054)
(-0.000289063 -2.09145e-05 0.00127188)
(-0.000199108 -2.17402e-05 0.00123622)
(-0.000184331 -2.35603e-05 0.0011165)
(-2.42044e-05 -2.43506e-05 0.00109732)
(-0.000353815 -0.000353937 0.00157599)
(-0.000392726 -0.000372299 0.00136365)
(-0.000266418 -0.000376419 0.00132909)
(-0.000243804 -0.000388063 0.00119521)
(-3.07594e-05 -0.000391196 0.00117573)
(-0.000372177 -0.000392891 0.0013636)
(-0.000414413 -0.000414576 0.00113492)
(-0.000281601 -0.000420328 0.0010934)
(-0.000258064 -0.000434991 0.000947685)
(-3.39148e-05 -0.000438991 0.000924173)
(-0.000376296 -0.000266575 0.00132902)
(-0.000420163 -0.000281759 0.00109338)
(-0.000286825 -0.000286983 0.00105193)
(-0.00026246 -0.000297662 0.000905424)
(-3.49571e-05 -0.000299999 0.000882674)
(-0.000387941 -0.00024398 0.0011951)
(-0.000434829 -0.00025824 0.000947627)
(-0.000297505 -0.000262638 0.000905383)
(-0.000271079 -0.000271254 0.000756029)
(-3.64136e-05 -0.000272582 0.000732651)
(-0.000391074 -3.09215e-05 0.00117559)
(-0.000438828 -3.40787e-05 0.000924088)
(-0.000299839 -3.51221e-05 0.000882607)
(-0.000272404 -3.65772e-05 0.000732628)
(-3.64643e-05 -3.66296e-05 0.000709108)
(-0.000458718 -0.000458878 0.00187151)
(-0.000506961 -0.000487463 0.00154878)
(-0.00034451 -0.000497589 0.00148747)
(-0.000316632 -0.000516903 0.00127989)
(-3.95172e-05 -0.000522581 0.00124305)
(-0.000487303 -0.000507177 0.00154872)
(-0.00054448 -0.000544692 0.00120133)
(-0.000373115 -0.000555016 0.00112956)
(-0.000340888 -0.000576903 0.000914322)
(-4.5347e-05 -0.000582404 0.000873771)
(-0.000497425 -0.000344709 0.00148738)
(-0.0005548 -0.00037331 0.00112953)
(-0.000376709 -0.000376907 0.00105622)
(-0.00034401 -0.000388524 0.000831064)
(-4.544e-05 -0.000390769 0.000783596)
(-0.000516738 -0.000316854 0.00127975)
(-0.00057669 -0.000341106 0.00091425)
(-0.000388328 -0.000344231 0.000831012)
(-0.000354751 -0.000354967 0.000578338)
(-4.80454e-05 -0.000358057 0.000522252)
(-0.000522412 -3.97129e-05 0.00124287)
(-0.000582187 -4.55433e-05 0.000873661)
(-0.000390569 -4.56388e-05 0.000783501)
(-0.000357835 -4.82436e-05 0.000522215)
(-4.90442e-05 -4.92464e-05 0.00046188)
(-0.000687868 -0.00068805 0.00172744)
(-0.000776929 -0.000732086 0.00131976)
(-0.000535302 -0.000747053 0.00123006)
(-0.000488216 -0.000767 0.000970961)
(-6.87371e-05 -0.000774091 0.000920308)
(-0.000731904 -0.000777183 0.00131969)
(-0.000833738 -0.000833986 0.000872954)
(-0.000568592 -0.000851745 0.00076771)
(-0.000513844 -0.000883988 0.000478851)
(-7.57233e-05 -0.000898629 0.000410331)
(-0.000746865 -0.000535537 0.00122995)
(-0.000851491 -0.000568822 0.000767676)
(-0.000585278 -0.000585514 0.000651714)
(-0.00053508 -0.000633635 0.000335435)
(-8.38291e-05 -0.000651508 0.000260854)
(-0.000766814 -0.000488483 0.000970793)
(-0.000883741 -0.000514105 0.00047875)
(-0.000633405 -0.000535352 0.000335368)
(-0.000579839 -0.000580103 1.63178e-05)
(-9.40818e-05 -0.000594299 -6.7468e-05)
(-0.000773897 -6.89737e-05 0.000920092)
(-0.00089838 -7.59571e-05 0.000410178)
(-0.000651275 -8.40749e-05 0.000260741)
(-0.000594027 -9.43244e-05 -6.75128e-05)
(-9.84688e-05 -9.87168e-05 -0.000157363)
(-0.000881594 -0.000881831 0.00208648)
(-0.00100455 -0.000950812 0.00148378)
(-0.000693306 -0.000977116 0.00133559)
(-0.000626402 -0.00102702 0.000943842)
(-9.1349e-05 -0.00105094 0.00086054)
(-0.000950576 -0.00100488 0.00148368)
(-0.00109672 -0.00109704 0.000823224)
(-0.000767216 -0.00113365 0.000630041)
(-0.000698282 -0.00121272 0.000186879)
(-0.000115418 -0.00124216 7.03027e-05)
(-0.000976871 -0.000693599 0.00133544)
(-0.00113332 -0.000767512 0.000629992)
(-0.000808947 -0.000809248 0.00040231)
(-0.000734885 -0.000851048 -5.50217e-05)
(-0.000121615 -0.000868559 -0.000188432)
(-0.00102679 -0.000626727 0.000943634)
(-0.00121241 -0.000698619 0.000186763)
(-0.000850752 -0.000735219 -5.50989e-05)
(-0.000757597 -0.000757926 -0.000519143)
(-0.000133703 -0.000776284 -0.000669822)
(-0.00105071 -9.16182e-05 0.000860251)
(-0.00124184 -0.000115701 7.01179e-05)
(-0.000868251 -0.000121897 -0.000188573)
(-0.00077595 -0.000133989 -0.000669879)
(-0.00014087 -0.000141164 -0.00083606)
(-0.00131248 -0.00131276 0.00206888)
(-0.00152815 -0.00141687 0.00132065)
(-0.0010752 -0.00147814 0.00111102)
(-0.000963249 -0.00155069 0.000609248)
(-0.000153243 -0.00159181 0.000465669)
(-0.00141659 -0.00152855 0.00132052)
(-0.00168771 -0.0016881 0.000486279)
(-0.00120489 -0.00178538 0.000197536)
(-0.00107357 -0.00188323 -0.000351102)
(-0.000193925 -0.001948 -0.000526064)
(-0.00147785 -0.00107555 0.00111081)
(-0.00178497 -0.00120524 0.000197479)
(-0.00127026 -0.00127062 -0.000120872)
(-0.00112582 -0.00133962 -0.000710113)
(-0.000218823 -0.0013916 -0.000920749)
(-0.00155041 -0.000963658 0.000608953)
(-0.00188286 -0.00107397 -0.000351245)
(-0.00133928 -0.00112624 -0.000710214)
(-0.00119457 -0.00119497 -0.00135344)
(-0.000246615 -0.00124194 -0.00160324)
(-0.00159151 -0.000153583 0.000465238)
(-0.0019476 -0.000194266 -0.000526292)
(-0.00139124 -0.000219173 -0.000920941)
(-0.00124153 -0.000246961 -0.00160332)
(-0.000266535 -0.000266892 -0.00188149)
(-0.00165913 -0.0016595 0.00266201)
(-0.00196284 -0.00181748 0.00147939)
(-0.00140468 -0.0019248 0.00112288)
(-0.00127179 -0.00202379 0.00033087)
(-0.000236781 -0.00208035 8.51541e-05)
(-0.00181711 -0.00196338 0.00147924)
(-0.00222026 -0.00222077 0.000221617)
(-0.00160456 -0.00236614 -0.000252242)
(-0.00142191 -0.00253271 -0.00108595)
(-0.000292752 -0.00262922 -0.00141182)
(-0.00192441 -0.00140514 0.00112261)
(-0.00236561 -0.001605 -0.00025232)
(-0.0017165 -0.00171696 -0.000821159)
(-0.00153479 -0.00185335 -0.00176214)
(-0.000334815 -0.0019457 -0.00217182)
(-0.0020234 -0.00127235 0.000330477)
(-0.00253221 -0.00142242 -0.00108615)
(-0.00185291 -0.00153532 -0.00176227)
(-0.00165065 -0.00165116 -0.00275706)
(-0.000386597 -0.00173706 -0.00324127)
(-0.00207991 -0.000237196 8.46377e-05)
(-0.00262866 -0.000293154 -0.00141213)
(-0.00194523 -0.00033523 -0.00217207)
(-0.00173653 -0.00038701 -0.00324136)
(-0.000422309 -0.00042274 -0.00380439)
(-0.0025374 -0.00253784 0.00295084)
(-0.00306797 -0.00272181 0.00153634)
(-0.00222361 -0.00290443 0.00100793)
(-0.00200095 -0.00302219 4.96819e-05)
(-0.000400895 -0.00314639 -0.000300103)
(-0.00272137 -0.00306864 0.00153615)
(-0.00341987 -0.0034205 -2.02256e-05)
(-0.00251233 -0.00373016 -0.000739147)
(-0.00223315 -0.00397709 -0.00181902)
(-0.000522415 -0.00420588 -0.00233786)
(-0.00290395 -0.00222419 0.00100761)
(-0.0037295 -0.00251287 -0.000739239)
(-0.00277996 -0.00278054 -0.00163856)
(-0.00247651 -0.00301064 -0.00289344)
(-0.000630963 -0.00322096 -0.00356393)
(-0.00302171 -0.00200161 4.9262e-05)
(-0.00397646 -0.00223378 -0.00181924)
(-0.00301009 -0.00247717 -0.00289359)
(-0.0026736 -0.00267423 -0.00425171)
(-0.0007341 -0.00287456 -0.00508934)
(-0.00314588 -0.000401377 -0.000300699)
(-0.00420521 -0.000522913 -0.00233822)
(-0.00322038 -0.000631483 -0.00356422)
(-0.0028739 -0.000734612 -0.00508945)
(-0.00083258 -0.000833112 -0.00609149)
(-0.00312793 -0.0031285 0.00399323)
(-0.00390662 -0.00343679 0.00191611)
(-0.00289123 -0.00374075 0.00102333)
(-0.00257992 -0.00396775 -0.000387229)
(-0.000589304 -0.00419816 -0.00101633)
(-0.00343622 -0.00390747 0.00191582)
(-0.00449668 -0.00449747 -0.000401253)
(-0.00340321 -0.0050139 -0.00164564)
(-0.00302068 -0.00547718 -0.00327433)
(-0.000815383 -0.0058945 -0.00420696)
(-0.00374012 -0.00289192 0.00102281)
(-0.00501305 -0.00340387 -0.00164578)
(-0.00387056 -0.00387126 -0.00326206)
(-0.00346024 -0.00428588 -0.00522576)
(-0.00100925 -0.00469706 -0.00653198)
(-0.00396716 -0.00258075 -0.000387878)
(-0.0054764 -0.00302145 -0.00327465)
(-0.00428523 -0.00346107 -0.005226)
(-0.0038465 -0.00384727 -0.00737922)
(-0.00122891 -0.00426478 -0.00901076)
(-0.00419747 -0.000589867 -0.00101733)
(-0.00589365 -0.000815954 -0.00420749)
(-0.00469635 -0.00100986 -0.00653245)
(-0.00426395 -0.0012295 -0.00901091)
(-0.00142943 -0.00143007 -0.0110836)
(-0.00469332 -0.00469407 0.00496524)
(-0.00603931 -0.00513016 0.00253062)
(-0.00452668 -0.00567751 0.0012683)
(-0.00404065 -0.00602312 -0.000496507)
(-0.00103252 -0.00646197 -0.00146764)
(-0.00512942 -0.0060405 0.00253029)
(-0.00698266 -0.00698372 -0.00023602)
(-0.00538503 -0.00801719 -0.00212762)
(-0.00479439 -0.00881744 -0.00417884)
(-0.00145957 -0.00972358 -0.00577047)
(-0.00567663 -0.00452761 0.00126771)
(-0.008016 -0.00538589 -0.00212777)
(-0.00635969 -0.00636064 -0.00470613)
(-0.00574651 -0.00711535 -0.00744557)
(-0.00194113 -0.00802471 -0.00980961)
(-0.00602231 -0.00404178 -0.000497202)
(-0.00881639 -0.00479541 -0.00417917)
(-0.00711449 -0.00574764 -0.00744582)
(-0.00645847 -0.00645949 -0.0104771)
(-0.00237249 -0.0074264 -0.0136946)
(-0.00646099 -0.00103329 -0.00146872)
(-0.00972238 -0.00146032 -0.00577104)
(-0.00802375 -0.00194191 -0.00981014)
(-0.00742527 -0.00237325 -0.0136948)
(-0.00291063 -0.00291141 -0.0180138)
(-0.00565914 -0.00566003 0.0071357)
(-0.00760501 -0.00632102 0.00373632)
(-0.00591784 -0.00727403 0.00185576)
(-0.00531592 -0.00780382 -0.000659801)
(-0.00156529 -0.00867253 -0.00219603)
(-0.00632013 -0.00760645 0.00373579)
(-0.00915662 -0.00915788 -0.00023041)
(-0.00734553 -0.0109909 -0.0031823)
(-0.00666352 -0.012429 -0.00622119)
(-0.00241303 -0.0142397 -0.00884294)
(-0.00727295 -0.00591889 0.00185474)
(-0.0109895 -0.00734652 -0.00318251)
(-0.00918789 -0.00918899 -0.00744268)
(-0.00856383 -0.0105839 -0.0116473)
(-0.00338001 -0.0126214 -0.0158689)
(-0.00780285 -0.00531724 -0.000660932)
(-0.0124278 -0.00666472 -0.0062217)
(-0.0105829 -0.00856518 -0.0116477)
(-0.0100954 -0.0100966 -0.0164616)
(-0.004453 -0.0124696 -0.0221472)
(-0.00867133 -0.00156611 -0.00219798)
(-0.0142383 -0.00241386 -0.00884378)
(-0.0126203 -0.00338092 -0.0158698)
(-0.0124683 -0.00445389 -0.0221474)
(-0.00575663 -0.00575762 -0.0301645)
(-0.00823271 -0.008234 0.00955398)
(-0.0113222 -0.00926314 0.00574514)
(-0.00892247 -0.0109243 0.00305699)
(-0.00809263 -0.0118167 -8.14637e-05)
(-0.00257228 -0.0133817 -0.0026238)
(-0.00926185 -0.0113245 0.0057446)
(-0.0139029 -0.0139047 0.00137917)
(-0.0113752 -0.017319 -0.00324527)
(-0.0104547 -0.0198083 -0.00694958)
(-0.00409224 -0.0234011 -0.0118439)
(-0.0109226 -0.008924 0.00305598)
(-0.0173167 -0.0113766 -0.00324547)
(-0.0148248 -0.0148263 -0.0103054)
(-0.014173 -0.017357 -0.0165648)
(-0.00617216 -0.021332 -0.025131)
(-0.0118153 -0.0080947 -8.25758e-05)
(-0.0198065 -0.0104564 -0.00695007)
(-0.0173556 -0.014175 -0.0165651)
(-0.016958 -0.0169597 -0.0237074)
(-0.00808131 -0.0217231 -0.0369408)
(-0.0133796 -0.00257347 -0.00262561)
(-0.0233989 -0.00409332 -0.0118447)
(-0.0213305 -0.00617326 -0.0251319)
(-0.0217211 -0.00808237 -0.0369412)
(-0.01095 -0.010951 -0.0585406)
(-0.00962747 -0.00962891 0.0141352)
(-0.0141035 -0.0108883 0.00942912)
(-0.0117427 -0.0138394 0.00611584)
(-0.0109964 -0.014975 0.00214214)
(-0.00411685 -0.0182612 -0.00126499)
(-0.0108869 -0.0141059 0.00942818)
(-0.0181493 -0.0181513 0.00385442)
(-0.0156735 -0.0243569 -0.00218229)
(-0.0152604 -0.0289149 -0.00738907)
(-0.00731597 -0.0367488 -0.014276)
(-0.0138375 -0.0117443 0.00611388)
(-0.0243544 -0.015675 -0.00218251)
(-0.0225067 -0.0225083 -0.0121479)
(-0.0233866 -0.0273437 -0.0211896)
(-0.0119588 -0.037726 -0.0346179)
(-0.0149734 -0.0109985 0.0021402)
(-0.028913 -0.0152623 -0.00738979)
(-0.0273422 -0.0233889 -0.0211903)
(-0.0304646 -0.0304667 -0.0326825)
(-0.0177021 -0.0458682 -0.053958)
(-0.018259 -0.00411805 -0.00126896)
(-0.0367465 -0.00731719 -0.0142771)
(-0.0377245 -0.0119603 -0.0346197)
(-0.0458659 -0.0177035 -0.0539585)
(-0.027398 -0.0273998 -0.0868632)
(-0.0131577 -0.0131599 0.0191987)
(-0.0193469 -0.015101 0.0148374)
(-0.0162094 -0.0196057 0.0103212)
(-0.0154732 -0.0217941 0.0058616)
(-0.00598809 -0.0269844 0.000328031)
(-0.0150988 -0.0193511 0.0148365)
(-0.025516 -0.025519 0.00978914)
(-0.0226222 -0.0355894 0.00111704)
(-0.0225489 -0.0431453 -0.0045337)
(-0.0110162 -0.0567621 -0.0176377)
(-0.0196022 -0.0162119 0.0103195)
(-0.0355852 -0.0226243 0.00111688)
(-0.0338408 -0.0338432 -0.0149452)
(-0.0366386 -0.0426689 -0.0286206)
(-0.0196483 -0.0610508 -0.0575393)
(-0.0217915 -0.0154772 0.00585984)
(-0.0431422 -0.0225514 -0.00453439)
(-0.0426668 -0.0366424 -0.0286211)
(-0.0497046 -0.0497074 -0.0451694)
(-0.029531 -0.0739225 -0.100087)
(-0.0269793 -0.00598984 0.000324626)
(-0.0567577 -0.0110176 -0.0176388)
(-0.0610487 -0.0196495 -0.0575411)
(-0.0739186 -0.0295322 -0.100089)
(-0.0442541 -0.0442545 -0.224296)
(-0.0142096 -0.0142119 0.0281551)
(-0.022978 -0.0162195 0.0239795)
(-0.0207138 -0.0234808 0.0205416)
(-0.0209862 -0.0259059 0.0155972)
(-0.00967226 -0.0369924 0.0101134)
(-0.0162172 -0.0229822 0.0239782)
(-0.0318662 -0.0318692 0.0192508)
(-0.0299988 -0.0496189 0.010595)
(-0.0339959 -0.0633806 0.00393417)
(-0.020446 -0.0945674 -0.0114989)
(-0.0234773 -0.0207163 0.0205384)
(-0.0496147 -0.030001 0.010595)
(-0.0522475 -0.0522498 -0.00624435)
(-0.0659172 -0.0679817 -0.0245993)
(-0.0409681 -0.120182 -0.0650778)
(-0.0259032 -0.02099 0.0155946)
(-0.0633774 -0.0339987 0.00393337)
(-0.0679795 -0.0659212 -0.0245999)
(-0.101777 -0.101782 -0.0529602)
(-0.0730432 -0.212386 -0.145039)
(-0.0369878 -0.00967434 0.0101065)
(-0.0945634 -0.0204478 -0.011499)
(-0.120182 -0.0409708 -0.0650807)
(-0.212382 -0.0730463 -0.145041)
(-0.153562 -0.153565 -0.28898)
(-0.0175778 -0.0175815 0.0373169)
(-0.0269676 -0.0201412 0.0364035)
(-0.0245985 -0.0301149 0.034134)
(-0.0258992 -0.0341585 0.0317921)
(-0.0115041 -0.0497852 0.0263682)
(-0.0201376 -0.026975 0.0364022)
(-0.038912 -0.0389162 0.0353346)
(-0.0379664 -0.0623889 0.0288813)
(-0.0446308 -0.0833568 0.0249708)
(-0.0266097 -0.131935 0.00834109)
(-0.0301081 -0.0246023 0.0341314)
(-0.0623815 -0.0379693 0.0288817)
(-0.0690923 -0.0690952 0.0128545)
(-0.0953624 -0.0996069 -0.00552573)
(-0.060674 -0.194597 -0.0585968)
(-0.034154 -0.0259069 0.0317894)
(-0.0833518 -0.0446335 0.0249701)
(-0.099604 -0.0953691 -0.00552634)
(-0.17018 -0.170186 -0.03813)
(-0.126936 -0.412854 -0.238331)
(-0.0497732 -0.0115069 0.0263625)
(-0.131926 -0.0266111 0.00834241)
(-0.194597 -0.0606748 -0.0586033)
(-0.412827 -0.126935 -0.238343)
(-0.188397 -0.188389 -0.667792)
(-0.0152924 -0.0152962 0.0496235)
(-0.0261592 -0.0175165 0.0512639)
(-0.0253284 -0.029193 0.055262)
(-0.028732 -0.0333271 0.0551968)
(-0.01516 -0.0561629 0.0598667)
(-0.0175127 -0.0261659 0.0512623)
(-0.0393608 -0.0393648 0.0555904)
(-0.040345 -0.0708485 0.0574911)
(-0.0543481 -0.100561 0.061982)
(-0.0373531 -0.178211 0.0637057)
(-0.0291863 -0.0253324 0.0552582)
(-0.0708417 -0.0403479 0.0574922)
(-0.0866192 -0.0866217 0.0636043)
(-0.136463 -0.128757 0.0580774)
(-0.095743 -0.291702 0.0628362)
(-0.0333223 -0.0287388 0.0551939)
(-0.100555 -0.05435 0.0619809)
(-0.128754 -0.136473 0.0580761)
(-0.287687 -0.287709 0.0276409)
(-0.259105 -0.574904 -0.087254)
(-0.0561511 -0.0151634 0.0598562)
(-0.178208 -0.0373543 0.0637131)
(-0.291686 -0.0957466 0.062821)
(-0.574937 -0.259125 -0.0872872)
(-1.01584 -1.01571 -0.81749)
(-0.0159176 -0.0159228 0.059139)
(-0.0213333 -0.0158534 0.0672903)
(-0.0206625 -0.0281346 0.078228)
(-0.0212956 -0.027712 0.0884171)
(-0.00692531 -0.046837 0.105862)
(-0.0158482 -0.0213445 0.0672886)
(-0.0326367 -0.0326413 0.0773533)
(-0.0315315 -0.0539087 0.096679)
(-0.0381487 -0.0792117 0.10953)
(-0.025125 -0.120775 0.140451)
(-0.0281228 -0.0206677 0.0782253)
(-0.0538975 -0.0315355 0.0966807)
(-0.0673403 -0.0673432 0.140927)
(-0.0905413 -0.0910165 0.185206)
(-0.0573763 -0.180459 0.29385)
(-0.0277055 -0.0213101 0.0884129)
(-0.0792044 -0.0381449 0.109529)
(-0.0910139 -0.090561 0.185197)
(-0.225351 -0.225371 0.250018)
(-0.269164 -0.51041 0.390705)
(-0.0468065 -0.00693103 0.105855)
(-0.120771 -0.0251256 0.140454)
(-0.180411 -0.0573915 0.293838)
(-0.510318 -0.269103 0.39063)
(-1.25274 -1.25291 0.51016)
(-0.00693761 -0.00694304 0.0640122)
(-0.00711446 -0.00723912 0.0743442)
(-0.00424873 -0.0104705 0.0859798)
(-0.00116703 -0.0120929 0.0969297)
(0.00224976 -0.0211988 0.11217)
(-0.0072337 -0.00712393 0.0743437)
(-0.010173 -0.0101769 0.0871223)
(-0.008531 -0.00860909 0.105829)
(-0.011367 -0.00563578 0.118395)
(-0.00683247 0.0112522 0.137378)
(-0.0104594 -0.00425519 0.0859805)
(-0.00859961 -0.00853486 0.105829)
(0.000315467 0.000305021 0.145968)
(0.0177057 -0.0022124 0.184773)
(0.01386 -0.00261279 0.259211)
(-0.0120848 -0.0011777 0.0969283)
(-0.00563563 -0.0113671 0.118395)
(-0.00220948 0.0176896 0.184768)
(0.0809119 0.0809288 0.238701)
(0.0225654 0.17011 0.279166)
(-0.0211768 0.00224514 0.112173)
(0.011255 -0.00683337 0.137373)
(-0.00257746 0.0138523 0.259215)
(0.170117 0.0225594 0.279114)
(0.589164 0.588986 -0.20281)
(-0.0050455 -0.0050513 0.05879)
(0.000662777 -0.00237245 0.0655744)
(0.00198551 -0.00706132 0.0699053)