/*--------------------------------*- C++ -*----------------------------------*\
| =========                 |                                                 |
| \\      /  F ield         | OpenFOAM: The Open Source CFD Toolbox           |
|  \\    /   O peration     | Version:  5.x                                   |
|   \\  /    A nd           | Web:      www.OpenFOAM.org                      |
|    \\/     M anipulation  |                                                 |
\*---------------------------------------------------------------------------*/
FoamFile
{
    version     2.0;
    format      ascii;
    class       volScalarField;
    location    "0.01";
    object      Ksl;
}
// * * * * * * * * * * * * * * * * * * * * * * * * * * * * * * * * * * * * * //

dimensions      [1 -3 -1 0 0 0 0];

internalField   nonuniform List<scalar> 
160
(
0
0
0
0
0
0
0
0
0
0
0
0
0
0
0
0
0
0
0
0
0.000197385
0.00228378
0.00161391
0.000149713
0.00436551
0.0457091
0.0306278
0.00282217
0.136506
1.32646
0.822947
0.078276
1.35965
2.74512
1.36996
0.624383
2.82849
2.96481
1.43314
1.33489
0
0
0
0
0
0
0
0
0
0
0
0
0
0
0
0
0
0.00055312
0.000356412
0
0.00228378
0.0128964
0.00856456
0.0014751
0.0457091
0.64533
0.363432
0.0353496
1.32646
5.10444
2.07694
0.988526
2.74512
2.94599
1.42748
1.3273
2.96481
2.9926
1.41581
1.40487
0
0
0
0
0
0
0
0
0
0
0
0
0
0
0
0
0
0.000356412
0.000267247
0
0.00161391
0.00856456
0.00624891
0.00130987
0.0306278
0.363432
0.269255
0.0275071
0.822947
2.07694
1.51442
0.652583
1.36996
1.42748
0.957814
0.899315
1.43314
1.41581
0.946856
0.94988
0
0
0
0
0
0
0
0
0
0
0
0
0
0
0
0
0
0
0
0
0.000149713
0.0014751
0.00130987
5.36411e-19
0.00282217
0.0353496
0.0275071
0.0024658
0.078276
0.988526
0.652583
0.0603653
0.624383
1.3273
0.899315
0.397967
1.33489
1.40487
0.94988
0.883718
)
;

boundaryField
{
    inlet
    {
        type            zeroGradient;
    }
    outlet
    {
        type            zeroGradient;
    }
    walls
    {
        type            zeroGradient;
    }
    procBoundary0to1
    {
        type            processor;
        value           nonuniform List<scalar> 
16
(
1.35976
2.74559
1.36994
0.624304
2.74559
2.946
1.42748
1.32719
1.36994
1.42748
0.957819
0.899309
0.624304
1.32719
0.899309
0.39795
)
;
    }
}


// ************************************************************************* //
