/*--------------------------------*- C++ -*----------------------------------*\
| =========                 |                                                 |
| \\      /  F ield         | OpenFOAM: The Open Source CFD Toolbox           |
|  \\    /   O peration     | Version:  5.x                                   |
|   \\  /    A nd           | Web:      www.OpenFOAM.org                      |
|    \\/     M anipulation  |                                                 |
\*---------------------------------------------------------------------------*/
FoamFile
{
    version     2.0;
    format      ascii;
    class       volScalarField;
    location    "0.01";
    object      p;
}
// * * * * * * * * * * * * * * * * * * * * * * * * * * * * * * * * * * * * * //

dimensions      [0 2 -2 0 0 0 0];

internalField   nonuniform List<scalar> 
160
(
-8.05879e-10
-8.23148e-12
-3.25687e-13
-3.09148e-10
-2.90452e-09
2.19931e-10
2.01806e-10
-1.38318e-09
-3.92426e-09
2.84429e-09
1.76909e-09
-3.69878e-09
-1.56223e-09
1.16129e-08
6.39636e-09
-8.58251e-09
1.08716e-08
3.75226e-08
1.97925e-08
-1.98823e-08
4.56242e-08
8.50475e-08
4.14386e-08
-4.83019e-08
1.29135e-07
2.68623e-07
1.57444e-07
-9.34565e-08
2.30275e-07
4.03974e-07
9.72025e-08
-2.63884e-07
1.92323e-07
1.08381e-06
6.90672e-07
-3.49678e-07
-9.73312e-07
-9.7335e-07
-9.7335e-07
-9.73327e-07
-8.23148e-12
9.66633e-10
9.34457e-10
4.22762e-10
2.19931e-10
4.31079e-09
4.18919e-09
1.60432e-09
2.84429e-09
1.30904e-08
1.13546e-08
3.31996e-09
1.16129e-08
3.67536e-08
2.94183e-08
5.80938e-09
3.75226e-08
1.02539e-07
7.77295e-08
9.26589e-09
8.50475e-08
2.54707e-07
1.87211e-07
-2.41871e-10
2.68623e-07
8.26062e-07
5.90322e-07
5.57038e-08
4.03974e-07
1.34546e-06
6.81804e-07
-2.94203e-07
1.08381e-06
8.16502e-06
5.50812e-06
3.08305e-07
-9.7335e-07
-9.73474e-07
-9.7342e-07
-9.73365e-07
-3.25687e-13
9.34457e-10
8.86861e-10
3.16772e-10
2.01806e-10
4.18919e-09
4.0453e-09
1.16457e-09
1.76909e-09
1.13546e-08
9.77452e-09
1.09081e-09
6.39636e-09
2.94183e-08
2.35034e-08
-2.15651e-09
1.97925e-08
7.77295e-08
6.16417e-08
-1.34159e-08
4.14386e-08
1.87211e-07
1.55068e-07
-5.34424e-08
1.57444e-07
5.90322e-07
5.37429e-07
-8.3528e-08
9.72025e-08
6.81804e-07
3.71334e-07
-6.43505e-07
6.90672e-07
5.50812e-06
5.8399e-06
-2.02532e-07
-9.7335e-07
-9.7342e-07
-9.73462e-07
-9.73378e-07
-3.09148e-10
4.22762e-10
3.16772e-10
-1.80026e-10
-1.38318e-09
1.60432e-09
1.16457e-09
-1.35856e-09
-3.69878e-09
3.31996e-09
1.09081e-09
-6.7854e-09
-8.58251e-09
5.80938e-09
-2.15651e-09
-2.31444e-08
-1.98823e-08
9.26589e-09
-1.34159e-08
-6.45721e-08
-4.83019e-08
-2.41871e-10
-5.34424e-08
-1.67743e-07
-9.34565e-08
5.57038e-08
-8.3528e-08
-3.61727e-07
-2.63884e-07
-2.94203e-07
-6.43505e-07
-8.16104e-07
-3.49678e-07
3.08305e-07
-2.02532e-07
-9.73547e-07
-9.73327e-07
-9.73365e-07
-9.73378e-07
-9.73354e-07
)
;

boundaryField
{
    inlet
    {
        type            zeroGradient;
    }
    outlet
    {
        type            totalPressure;
        rho             rho;
        psi             none;
        gamma           1;
        p0              uniform 0;
        value           nonuniform List<scalar> 
16
(
-3.2198e-17
-7.52569e-18
-1.75509e-18
-2.44997e-18
-7.52569e-18
0
0
0
-1.75509e-18
0
0
0
-2.44997e-18
0
0
0
)
;
    }
    walls
    {
        type            zeroGradient;
    }
    procBoundary0to1
    {
        type            processor;
        value           nonuniform List<scalar> 
16
(
-2.13892e-06
-3.03049e-06
-2.63734e-06
-1.59693e-06
-3.03049e-06
-1.01118e-05
-7.45486e-06
-2.255e-06
-2.63734e-06
-7.45486e-06
-7.78672e-06
-1.74418e-06
-1.59693e-06
-2.255e-06
-1.74418e-06
-9.73126e-07
)
;
    }
}


// ************************************************************************* //
