/*--------------------------------*- C++ -*----------------------------------*\
| =========                 |                                                 |
| \\      /  F ield         | OpenFOAM: The Open Source CFD Toolbox           |
|  \\    /   O peration     | Version:  5.x                                   |
|   \\  /    A nd           | Web:      www.OpenFOAM.org                      |
|    \\/     M anipulation  |                                                 |
\*---------------------------------------------------------------------------*/
FoamFile
{
    version     2.0;
    format      ascii;
    class       surfaceScalarField;
    location    "0.01";
    object      phi;
}
// * * * * * * * * * * * * * * * * * * * * * * * * * * * * * * * * * * * * * //

dimensions      [0 3 -1 0 0 0 0];

internalField   nonuniform List<scalar> 
384
(
-9.52768e-15
5.67976e-14
-9.52768e-15
-5.48367e-15
2.15128e-14
-1.05379e-14
-4.66481e-16
8.18693e-15
-1.02076e-14
1.45655e-14
-9.07225e-15
-3.71988e-14
9.43858e-14
-3.71988e-14
-1.89655e-14
2.49371e-14
-4.28184e-14
9.76322e-16
9.50281e-15
-4.13612e-14
3.26951e-14
-3.55669e-14
-8.77204e-14
1.7756e-13
-8.77204e-14
-3.61834e-14
2.58309e-14
-1.1029e-13
1.08114e-14
1.31565e-14
-1.04521e-13
7.88177e-14
-8.61199e-14
-1.92554e-13
3.45473e-13
-1.92554e-13
-5.85035e-14
1.40015e-14
-2.76654e-13
5.30723e-14
1.91476e-14
-2.57012e-13
1.94333e-13
-1.92818e-13
-4.2047e-13
6.8232e-13
-4.2047e-13
-7.86262e-14
-3.45709e-14
-7.18603e-13
1.80094e-13
4.26075e-14
-6.50339e-13
4.76007e-13
-4.27696e-13
-8.07408e-13
1.25118e-12
-8.07408e-13
-1.43616e-13
2.94959e-14
-1.91105e-12
4.53565e-13
1.39643e-13
-1.67285e-12
1.06656e-12
-8.88018e-13
-2.01423e-12
2.68355e-12
-2.01423e-12
-1.72515e-14
7.84097e-14
-5.5395e-12
1.48021e-12
5.87755e-13
-4.71732e-12
2.7418e-12
-2.17427e-12
-2.37039e-12
4.44066e-12
-2.37039e-12
-7.43048e-14
1.16896e-12
-1.01646e-11
1.84317e-12
1.92058e-12
-8.57809e-12
4.32217e-12
-2.38923e-12
-8.35627e-12
1.08155e-11
-8.35627e-12
1.87492e-13
1.48656e-11
-6.12264e-11
7.66069e-12
1.63342e-11
-5.01068e-11
1.1852e-11
-9.74981e-12
2.17981e-16
2.17981e-16
-6.84468e-17
9.20403e-16
-1.7008e-16
4.32187e-16
2.01408e-16
-1.05379e-14
2.15128e-14
-5.48367e-15
-5.06066e-15
-2.18905e-14
-5.06066e-15
6.01122e-16
-3.25639e-14
-5.08047e-15
-1.91427e-14
-4.95831e-15
-4.28184e-14
2.49371e-14
-1.89655e-14
-1.70393e-14
-7.34485e-14
-1.70393e-14
5.98516e-15
-7.94705e-14
-1.74774e-14
-3.51674e-14
-1.70723e-14
-1.1029e-13
2.58309e-14
-3.61834e-14
-2.98161e-14
-2.34394e-13
-2.98161e-14
3.33305e-14
-2.14047e-13
-3.30872e-14
-7.20628e-14
-3.1846e-14
-2.76654e-13
1.40015e-14
-5.85035e-14
-3.81478e-14
-7.11402e-13
-3.81478e-14
1.28903e-13
-5.84606e-13
-5.34994e-14
-1.46214e-13
-4.88351e-14
-7.18603e-13
-3.45709e-14
-7.86262e-14
-2.25696e-14
-2.10347e-12
-2.25696e-14
4.40355e-13
-1.61316e-12
-8.47151e-14
-2.67553e-13
-6.44482e-14
-1.91105e-12
2.94959e-14
-1.43616e-13
4.41402e-14
-6.01385e-12
4.41402e-14
1.36983e-12
-4.4333e-12
-1.7839e-13
-3.23907e-13
-8.92429e-14
-5.5395e-12
7.84097e-14
-1.72515e-14
6.34874e-13
-1.83626e-11
6.34874e-13
4.44346e-12
-1.25454e-11
-4.1383e-13
-1.40063e-13
3.56739e-14
-1.01646e-11
1.16896e-12
-7.43048e-14
1.52656e-12
-4.17449e-11
1.52656e-12
8.81363e-12
-2.75478e-11
-8.62785e-13
1.77262e-12
1.94116e-13
-6.12264e-11
1.48656e-11
1.87492e-13
1.20981e-11
-1.88394e-10
1.20981e-11
5.33675e-11
-1.12425e-10
-6.49912e-12
1.93986e-11
3.86905e-13
9.20403e-16
-6.84467e-17
-4.00336e-16
-4.00335e-16
-4.71315e-16
1.79082e-17
4.94104e-18
-1.02076e-14
8.18693e-15
-4.66481e-16
-5.08047e-15
-3.25639e-14
6.01122e-16
7.05027e-16
-4.45512e-14
7.05027e-16
-3.12758e-14
2.42728e-16
-4.13612e-14
9.50281e-15
9.76322e-16
-1.74774e-14
-7.94705e-14
5.98516e-15
5.9447e-15
-9.13916e-14
5.9447e-15
-4.89202e-14
3.30103e-15
-1.04521e-13
1.31565e-14
1.08114e-14
-3.30872e-14
-2.14047e-13
3.33305e-14
3.18212e-14
-2.21202e-13
3.18212e-14
-8.36293e-14
1.99917e-14
-2.57012e-13
1.91476e-14
5.30723e-14
-5.34994e-14
-5.84606e-13
1.28903e-13
1.22652e-13
-5.73502e-13
1.22652e-13
-1.43916e-13
7.95268e-14
-6.50339e-13
4.26075e-14
1.80094e-13
-8.47151e-14
-1.61316e-12
4.40355e-13
4.18571e-13
-1.58007e-12
4.18571e-13
-2.18517e-13
2.42636e-13
-1.67285e-12
1.39643e-13
4.53565e-13
-1.7839e-13
-4.4333e-12
1.36983e-12
1.30207e-12
-4.541e-12
1.30207e-12
-2.4065e-13
6.4015e-13
-4.71732e-12
5.87755e-13
1.48021e-12
-4.1383e-13
-1.25454e-11
4.44346e-12
4.3389e-12
-1.40465e-11
4.3389e-12
2.39071e-13
1.82836e-12
-8.57809e-12
1.92058e-12
1.84317e-12
-8.62785e-13
-2.75478e-11
8.81363e-12
8.80459e-12
-3.33812e-11
8.80459e-12
2.24209e-12
2.09351e-12
-5.01068e-11
1.63342e-11
7.66069e-12
-6.49912e-12
-1.12425e-10
5.33675e-11
5.39348e-11
-1.54249e-10
5.39348e-11
1.77688e-11
9.14331e-12
4.32187e-16
-1.7008e-16
1.79081e-17
-4.71315e-16
-4.25509e-16
-4.25509e-16
-1.47793e-16
-9.07225e-15
1.45655e-14
-4.95831e-15
-1.91427e-14
2.42728e-16
-3.12758e-14
-2.18456e-14
-3.55669e-14
3.26951e-14
-1.70723e-14
-3.51674e-14
3.30103e-15
-4.89202e-14
-1.83843e-14
-8.61199e-14
7.88177e-14
-3.1846e-14
-7.20628e-14
1.99917e-14
-8.36293e-14
3.91481e-15
-1.92818e-13
1.94333e-13
-4.88351e-14
-1.46214e-13
7.95268e-14
-1.43916e-13
9.62537e-14
-4.27696e-13
4.76007e-13
-6.44482e-14
-2.67553e-13
2.42636e-13
-2.18517e-13
3.72119e-13
-8.88018e-13
1.06656e-12
-8.92429e-14
-3.23907e-13
6.4015e-13
-2.4065e-13
1.06543e-12
-2.17427e-12
2.7418e-12
3.56739e-14
-1.40063e-13
1.82836e-12
2.39071e-13
3.02423e-12
-2.38923e-12
4.32217e-12
1.94116e-13
1.77262e-12
2.09351e-12
2.24209e-12
4.51313e-12
-9.74981e-12
1.1852e-11
3.86905e-13
1.93986e-11
9.14331e-12
1.77688e-11
1.21146e-11
2.01408e-16
4.94094e-18
-1.47793e-16
)
;

boundaryField
{
    inlet
    {
        type            calculated;
        value           nonuniform 0();
    }
    outlet
    {
        type            calculated;
        value           nonuniform List<scalar> 
16
(
-4.67444e-14
-2.00116e-14
-7.8023e-15
-1.00818e-14
-2.00116e-14
1.09352e-14
2.17742e-14
1.53389e-14
-7.8023e-15
2.17742e-14
3.29797e-14
2.65215e-14
-1.00818e-14
1.53389e-14
2.65215e-14
2.24071e-14
)
;
    }
    walls
    {
        type            calculated;
        value           nonuniform List<scalar> 
160
(
4.50045e-15
1.84047e-14
4.61338e-14
1.08597e-13
2.52047e-13
5.2298e-13
1.29805e-12
1.49183e-12
5.16884e-12
-5.34214e-17
4.99204e-15
2.11602e-14
5.78592e-14
1.54435e-13
4.25337e-13
1.18319e-12
3.49361e-12
6.77798e-12
3.89861e-11
-1.27973e-16
4.80451e-15
2.01034e-14
5.38741e-14
1.39447e-13
3.68161e-13
9.7863e-13
2.77175e-12
5.32779e-12
2.822e-11
-1.94527e-19
4.3131e-15
1.74836e-14
4.43296e-14
1.05307e-13
2.47767e-13
5.50449e-13
1.34968e-12
1.82514e-12
6.2346e-12
-3.93428e-17
-1.91367e-16
9.3104e-16
6.48148e-15
2.50697e-14
7.83499e-14
2.00581e-13
6.29561e-13
8.26882e-13
3.64609e-12
-4.65369e-17
2.91156e-16
3.51818e-15
1.59564e-14
5.90717e-14
1.98442e-13
6.27398e-13
2.04967e-12
4.3176e-12
2.56048e-11
1.95316e-17
2.5969e-16
3.22105e-15
1.46951e-14
5.45739e-14
1.86086e-13
5.94806e-13
2.06648e-12
4.90218e-12
2.96517e-11
5.42971e-17
-3.63579e-17
1.57193e-15
8.84118e-15
3.33549e-14
1.04695e-13
2.93501e-13
8.48957e-13
1.34905e-12
5.34256e-12
-3.07111e-17
4.50045e-15
1.84047e-14
4.61338e-14
1.08597e-13
2.52047e-13
5.2298e-13
1.29805e-12
1.49183e-12
5.16884e-12
-5.34214e-17
4.99204e-15
2.11602e-14
5.78592e-14
1.54435e-13
4.25337e-13
1.18319e-12
3.49361e-12
6.77798e-12
3.89861e-11
-1.27973e-16
4.80451e-15
2.01034e-14
5.38741e-14
1.39447e-13
3.68161e-13
9.7863e-13
2.77175e-12
5.32779e-12
2.822e-11
-1.94511e-19
4.3131e-15
1.74836e-14
4.43296e-14
1.05307e-13
2.47767e-13
5.50449e-13
1.34968e-12
1.82514e-12
6.2346e-12
-3.93427e-17
-1.91367e-16
9.3104e-16
6.48148e-15
2.50697e-14
7.83499e-14
2.00581e-13
6.29561e-13
8.26882e-13
3.64609e-12
-4.6537e-17
2.91156e-16
3.51818e-15
1.59564e-14
5.90717e-14
1.98442e-13
6.27398e-13
2.04967e-12
4.3176e-12
2.56048e-11
1.95316e-17
2.5969e-16
3.22105e-15
1.46951e-14
5.45739e-14
1.86086e-13
5.94806e-13
2.06648e-12
4.90218e-12
2.96517e-11
5.42971e-17
-3.63579e-17
1.57193e-15
8.84118e-15
3.33549e-14
1.04695e-13
2.93501e-13
8.48957e-13
1.34905e-12
5.34256e-12
-3.07111e-17
)
;
    }
    procBoundary0to1
    {
        type            processor;
        value           nonuniform List<scalar> 
16
(
1.08152e-11
1.48651e-11
1.63338e-11
1.18517e-11
1.48651e-11
-1.88391e-10
-1.12424e-10
1.93983e-11
1.63338e-11
-1.12424e-10
-1.54248e-10
1.77685e-11
1.18517e-11
1.93983e-11
1.77685e-11
1.21144e-11
)
;
    }
}


// ************************************************************************* //
