/*--------------------------------*- C++ -*----------------------------------*\
| =========                 |                                                 |
| \\      /  F ield         | OpenFOAM: The Open Source CFD Toolbox           |
|  \\    /   O peration     | Version:  5.x                                   |
|   \\  /    A nd           | Web:      www.OpenFOAM.org                      |
|    \\/     M anipulation  |                                                 |
\*---------------------------------------------------------------------------*/
FoamFile
{
    version     2.0;
    format      ascii;
    class       volVectorField;
    location    "0.01";
    object      U;
}
// * * * * * * * * * * * * * * * * * * * * * * * * * * * * * * * * * * * * * //

dimensions      [0 1 -1 0 0 0 0];

internalField   nonuniform List<vector> 
160
(
(-8.77835e-10 7.5754e-09 -8.77835e-10)
(-1.32807e-09 3.15339e-09 -9.91845e-10)
(-4.0848e-10 1.2082e-09 -9.539e-10)
(3.04616e-11 1.70323e-09 -8.34857e-10)
(-3.56174e-09 1.15491e-08 -3.56174e-09)
(-5.09201e-09 3.71547e-09 -4.19473e-09)
(-1.02491e-09 1.38791e-09 -4.00519e-09)
(4.61958e-10 3.48477e-09 -3.38732e-09)
(-8.71801e-09 2.05186e-08 -8.71801e-09)
(-1.15555e-08 4.1121e-09 -1.1284e-08)
(-6.05689e-10 1.63717e-09 -1.05157e-08)
(2.11679e-09 8.16521e-09 -8.47875e-09)
(-1.99772e-08 3.91396e-08 -1.99772e-08)
(-2.41277e-08 2.2748e-09 -2.9682e-08)
(3.11125e-09 1.65541e-09 -2.6865e-08)
(6.96906e-09 1.99477e-08 -1.96911e-08)
(-4.55904e-08 7.72437e-08 -4.55904e-08)
(-4.93761e-08 5.7293e-09 -8.09131e-08)
(1.72792e-08 6.72506e-09 -7.03648e-08)
(2.03706e-08 4.96674e-08 -4.53986e-08)
(-9.14619e-08 1.40652e-07 -9.14619e-08)
(-9.54089e-08 -4.88365e-08 -2.22867e-07)
(4.76001e-08 -1.96798e-08 -1.85412e-07)
(4.98142e-08 1.1011e-07 -9.75624e-08)
(-2.35233e-07 3.04276e-07 -2.35233e-07)
(-2.11247e-07 1.24139e-07 -6.69231e-07)
(1.77513e-07 1.39494e-07 -5.29097e-07)
(1.50276e-07 2.92497e-07 -2.45404e-07)
(-2.72993e-07 5.00744e-07 -2.72993e-07)
(-2.64181e-07 -2.68002e-07 -1.27066e-06)
(2.19583e-07 -1.73948e-07 -9.68062e-07)
(2.03605e-07 4.64075e-07 -2.86036e-07)
(-1.00304e-06 1.2112e-06 -1.00304e-06)
(-8.90516e-07 1.4528e-06 -7.63795e-06)
(9.14252e-07 1.46251e-06 -5.46788e-06)
(7.88801e-07 1.26851e-06 -1.12746e-06)
(1.593e-11 1.79774e-06 1.593e-11)
(1.0278e-11 2.04447e-06 4.5157e-11)
(-1.67239e-11 2.50322e-06 1.40424e-11)
(-1.18887e-11 2.01225e-06 1.37087e-11)
(-9.91845e-10 3.15339e-09 -1.32807e-09)
(-1.40173e-09 -2.02956e-09 -1.40173e-09)
(-2.60017e-10 -3.75884e-09 -1.36787e-09)
(1.47951e-10 -2.52079e-09 -1.24234e-09)
(-4.19473e-09 3.71547e-09 -5.09201e-09)
(-5.527e-09 -6.61046e-09 -5.527e-09)
(-2.47267e-10 -8.22289e-09 -5.39975e-09)
(1.07416e-09 -4.17999e-09 -4.77017e-09)
(-1.1284e-08 4.1121e-09 -1.15555e-08)
(-1.33289e-08 -2.14874e-08 -1.33289e-08)
(2.13131e-09 -2.13485e-08 -1.2971e-08)
(4.14215e-09 -8.17453e-09 -1.10064e-08)
(-2.9682e-08 2.2748e-09 -2.41277e-08)
(-3.09524e-08 -6.76742e-08 -3.09524e-08)
(1.29743e-08 -5.85127e-08 -3.02228e-08)
(1.4121e-08 -1.70446e-08 -2.33621e-08)
(-8.09131e-08 5.7293e-09 -4.93761e-08)
(-7.39628e-08 -1.88892e-07 -7.39628e-08)
(5.25285e-08 -1.52949e-07 -7.34204e-08)
(4.52918e-08 -2.83803e-08 -4.91359e-08)
(-2.22867e-07 -4.88365e-08 -9.54089e-08)
(-1.89187e-07 -6.40506e-07 -1.89187e-07)
(1.72944e-07 -4.80765e-07 -1.87794e-07)
(1.37459e-07 -8.99219e-08 -1.00873e-07)
(-6.69231e-07 1.24139e-07 -2.11247e-07)
(-5.03911e-07 -9.33318e-07 -5.03911e-07)
(6.01318e-07 -6.49927e-07 -5.29312e-07)
(4.33686e-07 1.04474e-07 -2.26009e-07)
(-1.27066e-06 -2.68002e-07 -2.64181e-07)
(-9.60664e-07 -7.31848e-06 -9.60664e-07)
(1.20905e-06 -5.16287e-06 -1.05044e-06)
(8.83836e-07 -4.17945e-07 -2.64228e-07)
(-7.63795e-06 1.4528e-06 -8.90516e-07)
(-5.35632e-06 9.34599e-07 -5.35632e-06)
(7.45632e-06 1.31248e-06 -6.22016e-06)
(5.12508e-06 1.54571e-06 -1.05312e-06)
(4.51569e-11 2.04447e-06 1.0278e-11)
(1.72907e-10 -7.05334e-05 1.72907e-10)
(-1.90616e-10 -4.40389e-05 1.19692e-10)
(-7.91052e-12 3.18989e-06 1.24244e-11)
(-9.539e-10 1.2082e-09 -4.0848e-10)
(-1.36787e-09 -3.75884e-09 -2.60017e-10)
(-2.56696e-10 -5.5515e-09 -2.56696e-10)
(1.54484e-10 -4.28588e-09 -3.07573e-10)
(-4.00519e-09 1.38791e-09 -1.02491e-09)
(-5.39975e-09 -8.22289e-09 -2.47267e-10)
(-2.94753e-10 -1.02337e-08 -2.94753e-10)
(1.08513e-09 -6.25714e-09 -6.03738e-10)
(-1.05157e-08 1.63717e-09 -6.05689e-10)
(-1.2971e-08 -2.13485e-08 2.13131e-09)
(1.66158e-09 -2.32186e-08 1.66158e-09)
(4.06872e-09 -1.0353e-08 5.24433e-10)
(-2.6865e-08 1.65541e-09 3.11125e-09)
(-3.02228e-08 -5.85127e-08 1.29743e-08)
(1.06047e-08 -5.88934e-08 1.06047e-08)
(1.3807e-08 -1.79946e-08 6.03125e-09)
(-7.03648e-08 6.72506e-09 1.72792e-08)
(-7.34204e-08 -1.52949e-07 5.25285e-08)
(4.19674e-08 -1.5109e-07 4.19674e-08)
(4.4619e-08 -2.73545e-08 2.36726e-08)
(-1.85412e-07 -1.96798e-08 4.76001e-08)
(-1.87794e-07 -4.80765e-07 1.72944e-07)
(1.35743e-07 -4.7663e-07 1.35743e-07)
(1.36409e-07 -6.56271e-08 6.77067e-08)
(-5.29097e-07 1.39494e-07 1.77513e-07)
(-5.29312e-07 -6.49927e-07 6.01318e-07)
(4.55748e-07 -7.239e-07 4.55748e-07)
(4.53453e-07 1.32475e-07 2.12979e-07)
(-9.68062e-07 -1.73948e-07 2.19583e-07)
(-1.05044e-06 -5.16287e-06 1.20905e-06)
(9.16807e-07 -5.89869e-06 9.16807e-07)
(9.85056e-07 -3.58752e-07 2.79231e-07)
(-5.46788e-06 1.46251e-06 9.14252e-07)
(-6.22016e-06 1.31248e-06 7.45632e-06)
(5.22697e-06 1.13549e-06 5.22697e-06)
(5.93927e-06 1.51352e-06 1.09288e-06)
(1.40424e-11 2.50322e-06 -1.67239e-11)
(1.19692e-10 -4.40389e-05 -1.90616e-10)
(-1.26919e-10 -5.92055e-05 -1.26919e-10)
(-7.9147e-12 2.76406e-06 -7.46441e-12)
(-8.34857e-10 1.70323e-09 3.04616e-11)
(-1.24234e-09 -2.52079e-09 1.47951e-10)
(-3.07573e-10 -4.28588e-09 1.54484e-10)
(9.24418e-11 -3.42326e-09 9.24418e-11)
(-3.38732e-09 3.48477e-09 4.61958e-10)
(-4.77017e-09 -4.17999e-09 1.07416e-09)
(-6.03738e-10 -6.25714e-09 1.08513e-09)
(7.49757e-10 -3.34191e-09 7.49757e-10)
(-8.47875e-09 8.16521e-09 2.11679e-09)
(-1.10064e-08 -8.17453e-09 4.14215e-09)
(5.24433e-10 -1.0353e-08 4.06872e-09)
(2.96992e-09 -1.55353e-09 2.96992e-09)
(-1.96911e-08 1.99477e-08 6.96906e-09)
(-2.33621e-08 -1.70446e-08 1.4121e-08)
(6.03125e-09 -1.79946e-08 1.3807e-08)
(9.48131e-09 6.0171e-09 9.48131e-09)
(-4.53986e-08 4.96674e-08 2.03706e-08)
(-4.91359e-08 -2.83803e-08 4.52918e-08)
(2.36726e-08 -2.73545e-08 4.4619e-08)
(2.68532e-08 3.29657e-08 2.68532e-08)
(-9.75624e-08 1.1011e-07 4.98142e-08)
(-1.00873e-07 -8.99219e-08 1.37459e-07)
(6.77067e-08 -6.56271e-08 1.36409e-07)
(6.95314e-08 9.8424e-08 6.95314e-08)
(-2.45404e-07 2.92497e-07 1.50276e-07)
(-2.26009e-07 1.04474e-07 4.33686e-07)
(2.12979e-07 1.32475e-07 4.53453e-07)
(1.9077e-07 3.12886e-07 1.9077e-07)
(-2.86036e-07 4.64075e-07 2.03605e-07)
(-2.64228e-07 -4.17945e-07 8.83836e-07)
(2.79231e-07 -3.58752e-07 9.85056e-07)
(2.49932e-07 4.57768e-07 2.49932e-07)
(-1.12746e-06 1.26851e-06 7.88801e-07)
(-1.05312e-06 1.54571e-06 5.12508e-06)
(1.09288e-06 1.51352e-06 5.93927e-06)
(1.00706e-06 1.27825e-06 1.00706e-06)
(1.37088e-11 2.01225e-06 -1.18888e-11)
(1.24244e-11 3.18989e-06 -7.91051e-12)
(-7.46442e-12 2.76406e-06 -7.9147e-12)
(-9.65449e-12 2.08498e-06 -9.65449e-12)
)
;

boundaryField
{
    inlet
    {
        type            fixedValue;
        value           nonuniform 0();
    }
    outlet
    {
        type            zeroGradient;
    }
    walls
    {
        type            fixedValue;
        value           uniform (0 0 0);
    }
    procBoundary0to1
    {
        type            processor;
        value           nonuniform List<vector> 
16
(
(1.00306e-06 1.21111e-06 1.00306e-06)
(8.90515e-07 1.45265e-06 7.63795e-06)
(-9.14232e-07 1.46239e-06 5.46787e-06)
(-7.88821e-07 1.26843e-06 1.12749e-06)
(7.63795e-06 1.45265e-06 8.90515e-07)
(5.35641e-06 9.36307e-07 5.35641e-06)
(-7.45649e-06 1.3129e-06 6.22027e-06)
(-5.12504e-06 1.54559e-06 1.0531e-06)
(5.46787e-06 1.46239e-06 -9.14232e-07)
(6.22027e-06 1.3129e-06 -7.45649e-06)
(-5.22703e-06 1.13636e-06 -5.22703e-06)
(-5.93928e-06 1.51341e-06 -1.09287e-06)
(1.12749e-06 1.26843e-06 -7.88821e-07)
(1.0531e-06 1.54559e-06 -5.12504e-06)
(-1.09287e-06 1.51341e-06 -5.93928e-06)
(-1.00707e-06 1.27819e-06 -1.00707e-06)
)
;
    }
}


// ************************************************************************* //
