/*--------------------------------*- C++ -*----------------------------------*\
| =========                 |                                                 |
| \\      /  F ield         | OpenFOAM: The Open Source CFD Toolbox           |
|  \\    /   O peration     | Version:  5.x                                   |
|   \\  /    A nd           | Web:      www.OpenFOAM.org                      |
|    \\/     M anipulation  |                                                 |
\*---------------------------------------------------------------------------*/
FoamFile
{
    version     2.0;
    format      ascii;
    class       volVectorField;
    location    "0.01";
    object      Us;
}
// * * * * * * * * * * * * * * * * * * * * * * * * * * * * * * * * * * * * * //

dimensions      [0 1 -1 0 0 0 0];

internalField   nonuniform List<vector> 
160
(
(-1.31247e-30 -2.44353e-20 -1.31247e-30)
(-8.80525e-30 -1.63934e-19 -8.80526e-30)
(-8.7933e-30 -1.63711e-19 -8.7933e-30)
(-1.25021e-30 -2.32761e-20 -1.25021e-30)
(-7.74708e-29 -1.44233e-18 -7.74708e-29)
(-5.71791e-28 -1.06455e-17 -5.71791e-28)
(-5.71235e-28 -1.06351e-17 -5.71235e-28)
(-7.43517e-29 -1.38426e-18 -7.43517e-29)
(-4.54491e-27 -8.4616e-17 -4.54491e-27)
(-3.72315e-26 -6.93166e-16 -3.72315e-26)
(-3.72066e-26 -6.92704e-16 -3.72066e-26)
(-4.3934e-27 -8.17953e-17 -4.39341e-27)
(-2.59258e-25 -4.8268e-15 -2.59258e-25)
(-2.38697e-24 -4.44399e-14 -2.38697e-24)
(-2.38594e-24 -4.44208e-14 -2.38594e-24)
(-2.52359e-25 -4.69835e-15 -2.52359e-25)
(-1.42626e-23 -2.65538e-13 -1.42626e-23)
(-1.49944e-22 -2.79163e-12 -1.49944e-22)
(-1.49906e-22 -2.79091e-12 -1.49906e-22)
(-1.39753e-23 -2.60189e-13 -1.39753e-23)
(-7.47362e-22 -1.39142e-11 -7.47363e-22)
(-9.15976e-21 -1.70534e-10 -9.15976e-21)
(-9.15852e-21 -1.70511e-10 -9.15852e-21)
(-7.3689e-22 -1.37192e-11 -7.3689e-22)
(-3.65559e-20 -6.80588e-10 -3.65559e-20)
(-5.37298e-19 -1.00033e-08 -5.37298e-19)
(-5.37266e-19 -1.00027e-08 -5.37266e-19)
(-3.625e-20 -6.74894e-10 -3.62501e-20)
(-1.60948e-18 -2.9965e-08 -1.60948e-18)
(-2.95546e-17 -5.50241e-07 -2.95547e-17)
(-2.95541e-17 -5.50231e-07 -2.95541e-17)
(-1.60387e-18 -2.98604e-08 -1.60387e-18)
(-5.90618e-17 -1.0996e-06 -5.90619e-17)
(-1.44543e-15 -2.69107e-05 -1.44543e-15)
(-1.44543e-15 -2.69106e-05 -1.44543e-15)
(-5.90585e-17 -1.09954e-06 -5.90585e-17)
(-1.4453e-15 -2.69082e-05 -1.4453e-15)
(-5.30351e-14 -0.000987395 -5.30351e-14)
(-5.3035e-14 -0.000987392 -5.3035e-14)
(-1.44516e-15 -2.69055e-05 -1.44516e-15)
(-8.80525e-30 -1.63934e-19 -8.80526e-30)
(-6.48139e-29 -1.20669e-18 -6.48139e-29)
(-6.46927e-29 -1.20443e-18 -6.46927e-29)
(-8.38338e-30 -1.5608e-19 -8.38338e-30)
(-5.71791e-28 -1.06455e-17 -5.71791e-28)
(-4.67835e-27 -8.71003e-17 -4.67835e-27)
(-4.67227e-27 -8.69871e-17 -4.67227e-27)
(-5.49336e-28 -1.02274e-17 -5.49336e-28)
(-3.72315e-26 -6.93166e-16 -3.72315e-26)
(-3.42418e-25 -6.37506e-15 -3.42418e-25)
(-3.42125e-25 -6.36959e-15 -3.42125e-25)
(-3.60733e-26 -6.71605e-16 -3.60734e-26)
(-2.38697e-24 -4.44399e-14 -2.38697e-24)
(-2.5071e-23 -4.66765e-13 -2.5071e-23)
(-2.50578e-23 -4.66521e-13 -2.50578e-23)
(-2.33117e-24 -4.34012e-14 -2.33117e-24)
(-1.49944e-22 -2.79163e-12 -1.49944e-22)
(-1.83627e-21 -3.41872e-11 -1.83627e-21)
(-1.83574e-21 -3.41774e-11 -1.83575e-21)
(-1.4752e-22 -2.74648e-12 -1.4752e-22)
(-9.15976e-21 -1.70534e-10 -9.15976e-21)
(-1.34542e-19 -2.50486e-09 -1.34542e-19)
(-1.34524e-19 -2.50453e-09 -1.34524e-19)
(-9.07135e-21 -1.68888e-10 -9.07135e-21)
(-5.37298e-19 -1.00033e-08 -5.37298e-19)
(-9.86128e-18 -1.83595e-07 -9.86129e-18)
(-9.86085e-18 -1.83587e-07 -9.86085e-18)
(-5.35087e-19 -9.96211e-09 -5.35087e-19)
(-2.95546e-17 -5.50241e-07 -2.95547e-17)
(-7.2305e-16 -1.34616e-05 -7.23051e-16)
(-7.23046e-16 -1.34615e-05 -7.23046e-16)
(-2.95477e-17 -5.50112e-07 -2.95477e-17)
(-1.44543e-15 -2.69107e-05 -1.44543e-15)
(-5.30351e-14 -0.000987395 -5.30351e-14)
(-5.30351e-14 -0.000987395 -5.30351e-14)
(-1.44543e-15 -2.69107e-05 -1.44543e-15)
(-5.30351e-14 -0.000987395 -5.30351e-14)
(-3.89115e-12 -0.0724446 -3.89116e-12)
(-3.89115e-12 -0.0724446 -3.89116e-12)
(-5.3035e-14 -0.000987392 -5.3035e-14)
(-8.7933e-30 -1.63711e-19 -8.7933e-30)
(-6.46927e-29 -1.20443e-18 -6.46927e-29)
(-6.41028e-29 -1.19345e-18 -6.41028e-29)
(-7.84805e-30 -1.46113e-19 -7.84806e-30)
(-5.71235e-28 -1.06351e-17 -5.71235e-28)
(-4.67227e-27 -8.69871e-17 -4.67227e-27)
(-4.64006e-27 -8.63875e-17 -4.64006e-27)
(-5.1982e-28 -9.67787e-18 -5.1982e-28)
(-3.72066e-26 -6.92704e-16 -3.72066e-26)
(-3.42125e-25 -6.36959e-15 -3.42125e-25)
(-3.40423e-25 -6.33791e-15 -3.40423e-25)
(-3.44982e-26 -6.42279e-16 -3.44982e-26)
(-2.38594e-24 -4.44208e-14 -2.38594e-24)
(-2.50578e-23 -4.66521e-13 -2.50578e-23)
(-2.49739e-23 -4.64958e-13 -2.49739e-23)
(-2.25278e-24 -4.19418e-14 -2.25278e-24)
(-1.49906e-22 -2.79091e-12 -1.49906e-22)
(-1.83574e-21 -3.41774e-11 -1.83575e-21)
(-1.83202e-21 -3.41082e-11 -1.83202e-21)
(-1.44015e-22 -2.68123e-12 -1.44015e-22)
(-9.15852e-21 -1.70511e-10 -9.15852e-21)
(-1.34524e-19 -2.50453e-09 -1.34524e-19)
(-1.34387e-19 -2.50198e-09 -1.34387e-19)
(-8.94136e-21 -1.66468e-10 -8.94136e-21)
(-5.37266e-19 -1.00027e-08 -5.37266e-19)
(-9.86085e-18 -1.83587e-07 -9.86085e-18)
(-9.85749e-18 -1.83524e-07 -9.8575e-18)
(-5.31931e-19 -9.90336e-09 -5.31931e-19)
(-2.95541e-17 -5.50231e-07 -2.95541e-17)
(-7.23046e-16 -1.34615e-05 -7.23046e-16)
(-7.23048e-16 -1.34615e-05 -7.23048e-16)
(-2.95543e-17 -5.50234e-07 -2.95543e-17)
(-1.44543e-15 -2.69106e-05 -1.44543e-15)
(-5.30351e-14 -0.000987395 -5.30351e-14)
(-5.30351e-14 -0.000987395 -5.30351e-14)
(-1.44543e-15 -2.69107e-05 -1.44543e-15)
(-5.3035e-14 -0.000987392 -5.3035e-14)
(-3.89115e-12 -0.0724446 -3.89116e-12)
(-3.89115e-12 -0.0724446 -3.89116e-12)
(-5.30351e-14 -0.000987395 -5.30351e-14)
(-1.25021e-30 -2.32761e-20 -1.25021e-30)
(-8.38338e-30 -1.5608e-19 -8.38338e-30)
(-7.84805e-30 -1.46113e-19 -7.84806e-30)
(-6.05432e-31 -1.12718e-20 -6.05432e-31)
(-7.43517e-29 -1.38426e-18 -7.43517e-29)
(-5.49336e-28 -1.02274e-17 -5.49336e-28)
(-5.1982e-28 -9.67787e-18 -5.1982e-28)
(-3.92186e-29 -7.30162e-19 -3.92186e-29)
(-4.3934e-27 -8.17953e-17 -4.39341e-27)
(-3.60733e-26 -6.71605e-16 -3.60734e-26)
(-3.44982e-26 -6.42279e-16 -3.44982e-26)
(-2.53951e-27 -4.72799e-17 -2.53951e-27)
(-2.52359e-25 -4.69835e-15 -2.52359e-25)
(-2.33117e-24 -4.34012e-14 -2.33117e-24)
(-2.25278e-24 -4.19418e-14 -2.25278e-24)
(-1.61078e-25 -2.99892e-15 -1.61078e-25)
(-1.39753e-23 -2.60189e-13 -1.39753e-23)
(-1.4752e-22 -2.74648e-12 -1.4752e-22)
(-1.44015e-22 -2.68123e-12 -1.44015e-22)
(-9.93241e-24 -1.84919e-13 -9.93241e-24)
(-7.3689e-22 -1.37192e-11 -7.3689e-22)
(-9.07135e-21 -1.68888e-10 -9.07135e-21)
(-8.94136e-21 -1.66468e-10 -8.94136e-21)
(-5.87851e-22 -1.09445e-11 -5.87851e-22)
(-3.625e-20 -6.74894e-10 -3.62501e-20)
(-5.35087e-19 -9.96211e-09 -5.35087e-19)
(-5.31931e-19 -9.90336e-09 -5.31931e-19)
(-3.26049e-20 -6.0703e-10 -3.26049e-20)
(-1.60387e-18 -2.98604e-08 -1.60387e-18)
(-2.95477e-17 -5.50112e-07 -2.95477e-17)
(-2.95543e-17 -5.50234e-07 -2.95543e-17)
(-1.60583e-18 -2.9897e-08 -1.60583e-18)
(-5.90585e-17 -1.09954e-06 -5.90585e-17)
(-1.44543e-15 -2.69107e-05 -1.44543e-15)
(-1.44543e-15 -2.69107e-05 -1.44543e-15)
(-5.90659e-17 -1.09967e-06 -5.9066e-17)
(-1.44516e-15 -2.69055e-05 -1.44516e-15)
(-5.3035e-14 -0.000987392 -5.3035e-14)
(-5.30351e-14 -0.000987395 -5.30351e-14)
(-1.4453e-15 -2.69082e-05 -1.4453e-15)
)
;

boundaryField
{
    inlet
    {
        type            zeroGradient;
    }
    outlet
    {
        type            zeroGradient;
    }
    walls
    {
        type            zeroGradient;
    }
    procBoundary0to1
    {
        type            processor;
        value           nonuniform List<vector> 
16
(
(-5.90373e-17 -1.09914e-06 -5.90373e-17)
(-1.44518e-15 -2.6906e-05 -1.44518e-15)
(-1.44544e-15 -2.69108e-05 -1.44544e-15)
(-5.90482e-17 -1.09934e-06 -5.90482e-17)
(-1.44518e-15 -2.6906e-05 -1.44518e-15)
(-5.30349e-14 -0.00098739 -5.30349e-14)
(-5.30351e-14 -0.000987394 -5.30351e-14)
(-1.44557e-15 -2.69133e-05 -1.44557e-15)
(-1.44544e-15 -2.69108e-05 -1.44544e-15)
(-5.30351e-14 -0.000987394 -5.30351e-14)
(-5.30349e-14 -0.00098739 -5.30349e-14)
(-1.44545e-15 -2.6911e-05 -1.44545e-15)
(-5.90482e-17 -1.09934e-06 -5.90482e-17)
(-1.44557e-15 -2.69133e-05 -1.44557e-15)
(-1.44545e-15 -2.6911e-05 -1.44545e-15)
(-5.90556e-17 -1.09948e-06 -5.90556e-17)
)
;
    }
}


// ************************************************************************* //
