/*--------------------------------*- C++ -*----------------------------------*\
| =========                 |                                                 |
| \\      /  F ield         | OpenFOAM: The Open Source CFD Toolbox           |
|  \\    /   O peration     | Version:  5.x                                   |
|   \\  /    A nd           | Web:      www.OpenFOAM.org                      |
|    \\/     M anipulation  |                                                 |
\*---------------------------------------------------------------------------*/
FoamFile
{
    version     2.0;
    format      ascii;
    class       volScalarField;
    location    "0.063";
    object      interFace;
}
// * * * * * * * * * * * * * * * * * * * * * * * * * * * * * * * * * * * * * //

dimensions      [0 0 0 0 0 0 0];

internalField   nonuniform List<scalar> 
1567
(
0
0
0
0
0
0
0
0
0
0
0
0
0
0
0
0
0
0
0
0
0
0
0
0
0
0
0
0
0
0
0
0
0
0
0
0
0
0
0
0
0
0
0
0
0
0
0
0
0
0
0
0
0
0
0
0
0
0
0
0
0
0
0
0
0
0
0
0
0
0
0
0
0
0
0
0
0
0
0
0
0
0
0
0
0
0
0
0
0
0
0
0
0
0
0
0
0
0
0
0
0
0
0
0
0
0
0
0
0
0
0
0
0
0
0
0
0
0
0
0
0
0
0
0
0
0
0
0
0
0
0
0
0
0
0
0
0
0
0
0
0
0
0
0
0
0
0
0
0
0
0
0
0
0
0
0
0
0
0
0
0
0
0
0
0
0
0
0
0
0
0
0
0
0
0
0
0
0
0
0
0
0
0
0
0
0
0
0
0
0
0
0
0
0
0
0
0
0
0
0
0
0
0
0
0
0
0
0
0
0
0
0
0
0
0
0
0
0
0
0
0
0
0
0
0
0
0
0
0
0
0
0
0
0
0
0
0
0
0
0
0
0
0
0
0
0
0
0
0
0
0
0
0
0
0
0
0
0
0
0
0
0
0
0
0
0
0
0
0
0
0
0
0
0
0
0
0
0
0
0
0
0
0
0
0
0
0
0
0
0
0
0
0
0
0
0
0
0
0
0
0
0
0
0
0
0
0
0
0
0
0
0
0
0
0
0
0
0
0
0
0
0
0
0
0
0
0
0
0
0
0
0
0
0
0
0
0
0
0
0
0
0
0
0
0
0
0
0
0
0
0
0
0
0
0
0
0
0
0
0
0
0
0
0
0
0
0
0
0
0
0
0
0
0
0
0
0
0
0
0
0
0
0
0
0
0
0
0
0
0
0
0
0
0
0
0
0
0
0
0
0
0
0
0
0
0
0
0
0
0
0
0
0
0
0
0
0
0
0
0
0
0
0
0
0
0
0
0
0
0
0
0
0
0
0
0
0
0
0
0
0
0
0
0
0
0
0
0
0
0
0
0
0
0
0
0
0
0
0
0
0
0
0
0
0
0
0
0
0
0
0
0
0
0
0
0
0
0
0
0
0
0
0
0
0
0
0
0
0
0
0
0
0
0
0
0
0
0
0
0
0
0
0
0
0
0
0
0
0
0
0
0
0
0
0
0
0
0
0
0
0
0
0
0
0
0
0
0
0
0
0
0
0
0
0
0
0
0
0
0
0
0
0
0
0
0
0
0
0
0
0
0
0
0
0
0
0
0
0
0
0
0
0
0
0
0
0
0
0
0
0
0
0
0
0
0
0
0
0
0
0
0
0
0
0
0
0
0
0
0
0
0
0
0
0
0
0
0
0
0
0
0
0
0
0
0
0
0
0
0
0
0
0
0
0
0
0
0
0
0
0
0
0
0
0
0
0
0
0
0
0
0
0
0
0
0
0
0
0
0
0
0
0
0
0
0
0
0
0
0
0
0
0
0
0
0
0
0
0
0
0
0
0
0
0
0
0
0
0
0
0
0
0
0
0
0.654357
0
0
0
0
0
0
0
0
0
0
0
0
0
0
0
0
0
0
0
0
0
0
0
0
0.0525188
0.500919
0
0
0
0.500932
0
0
0
0
0
0
0
0
0
0
0
0
0
0
0
0
0
0
0
0.167809
0.61621
0
0
0
0.616222
0
0
0
0
0
0
0
0
0
0
0
0
0
0
0
0
0
0
0
0.979223
0
0
0
0
0
0
0
0
0
0
0
0
0
0
0
0
0
0
0
0
0
0
0
0
0.207186
0.655573
0
0
0
0.655576
0
0
0
0
0
0
0
0
0
0
0
0
0
0
0
0
0
0
0
0.0356359
0.484023
0
0
0
0.484026
0
0
0
0
0
0
0
0
0
0
0
0
0
0
0
0
0
0
0
0.733496
0
0
0
0
0
0
0
0
0
0
0
0
0
0
0
0
0
0
0
0
0
0
0
0
0
0
0
0
0
0
0
0
0
0
0
0
0
0
0
0
0
0
0
0
0
0
0
0
0
0
0
0
0
0
0
0
0
0
0
0
0
0
0
0
0
0
0
0
0
0
0
0
0
0
0
0
0
0
0
0
0
0
0
0
0
0
0
0
0
0
0
0
0
0
0
0
0
0
0
0
0
0
0
0
0
0
0
0
0
0
0
0
0
0
0
0
0
0
0
0
0
0
0
0
0
0
0
0
0
0
0
0
0
0
0
0
0
0
0
0
0
0
0
0
0
0
0
0
0
0
0
0
0
0
0
0
0
0
0
0
0
0
0
0
0
0
0
0
0
0
0
0
0
0
0
0
0
0.362125
0.631184
0.631186
0.84881
0.476245
0.476248
0.745307
0.0112926
0.280352
0.280354
0.549414
0.304695
0.304698
0.573757
0.377589
0.646649
0.646651
0.91571
0.912869
0.912871
0
0
0
0
0
0.436879
0.436888
0.705958
0.724893
0.993963
0.993972
0.996464
0.769762
0.769766
0.814635
0.58412
0.494378
0.539247
0.53925
0
0.983737
0
0
0
0
0
0.983744
0
0
0
0
0
0
0.859452
0
0.904325
0.67381
0.763448
0.80832
0.628937
0.859459
0
0.904328
0.673813
0.763457
0.808326
0.628943
0.308517
0.218784
0.422455
0.422456
0.467322
0.26365
0.263651
0
0.753085
0
0.864273
0
0
0
0.753085
0
0
0.864276
0
0
0
0.398203
0.487844
0.512142
0.691515
0.53271
0.557008
0.353337
0.398204
0.487846
0.512143
0.691517
0.532712
0.557009
0.353338
0.321588
0.321598
0.590667
0.071756
0.340826
0.340835
0.609905
0.398425
0.212679
0.212682
0.308683
0.257551
0.353553
0.353556
0.488115
0.302369
0.481752
0.577753
0.347241
0.622626
0.443243
0.488118
0.302375
0.481758
0.577762
0.347244
0.622632
0.443249
0.487891
0.756905
0.781202
0.781203
0.622398
0.622398
0.646695
0.577808
0.571445
0.571448
0.846832
0.436934
0.712319
0.712322
0.194532
0.0805019
0.0805026
0.1048
0.125369
0.149666
0.149666
0.284219
0.170188
0.349562
0.373859
0.215055
0.418726
0.239352
0.28422
0.17019
0.349564
0.373861
0.215056
0.418727
0.239354
0.116625
0.116628
0.161498
0.110265
0.020523
0.0653924
0.0653955
0
0.778806
0
0.520157
0
0.79163
0
0.778812
0
0
0.520169
0.791637
0
0
0.661083
0.757084
0.801957
0
0.840362
0.885234
0.981236
0.661092
0.757096
0.801966
0
0.840377
0.885246
0.981251
0.373906
0.439249
0.43925
0.642921
0.304742
0.508413
0.508414
0.206315
0.385698
0.251188
0.199955
0.289593
0.334465
0.155082
0.206321
0.385704
0.251191
0.199958
0.289602
0.334471
0.155088
0.475391
0.475394
0.340881
0.289648
0.558672
0.424158
0.424161
0.121502
0.0317699
0.0561586
0.0561593
0.101025
0.0766358
0.0766365
0
0.897588
0
0.45968
0
0.728741
0
0.897589
0
0
0.459683
0.728742
0
0
0.708171
0.52889
0.553187
0.753038
0.598053
0.822202
0.777335
0.528892
0.708175
0.55319
0.753041
0.598056
0.822205
0.777339
0.211189
0.300829
0.145845
0.325219
0.345696
0.190712
0.166322
0.21119
0.300832
0.145847
0.32522
0.345697
0.190712
0.166324
0.923426
0.923436
0.932341
0.135747
0.404817
0.404826
0.673896
0.103852
0.0973881
0.0973912
0.0141106
0.142261
0.05898
0.0589831
0.193542
0.187078
0.366461
0.28318
0.23195
0.328053
0.14867
0.193545
0.187084
0.366467
0.28319
0.231954
0.328059
0.148676
0.565029
0.744308
0.789181
0.468924
0.513796
0.737948
0.693075
0.565038
0.744324
0.789193
0.468936
0.513805
0.73796
0.693091
0.300876
0.569891
0.414906
0.414907
0.435383
0.435384
0.280399
0.283235
0.456154
0.456157
0.552259
0.321643
0.417746
0.417749
0.1868
0.252052
0.252053
0.0970676
0.296919
0.141934
0.141934
0.276487
0.341738
0.521112
0.366127
0.386605
0.410994
0.23162
0.276487
0.34174
0.521114
0.366129
0.386606
0.410995
0.231622
0.480157
0.683828
0.504546
0.525024
0.728694
0.749172
0.704305
0.48016
0.504549
0.683831
0.525026
0.728697
0.749175
0.704309
0.180617
0.18062
0.225489
0.353538
0.263797
0.308666
0.308669
0
0
0
0.584148
0
0.945263
0
0
0
0
0.58416
0.945269
0
0
0.545792
0.462511
0.507384
0.731535
0.725071
0.769943
0.686663
0.545801
0.462524
0.507393
0.731548
0.725086
0.769956
0.686678
0.270307
0.44969
0.315179
0.443228
0.532866
0.577739
0.398356
0.270313
0.449696
0.315182
0.443231
0.532876
0.577745
0.398362
0.366174
0.610799
0.6108
0.635189
0.476292
0.500681
0.500682
0.539383
0.539386
0.404872
0.532921
0.801945
0.667432
0.667435
0
0
0
0
0
0
0
0.618577
0.977233
0.822248
0.842725
0.687741
0.911889
0
0.618578
0.977234
0.822249
0.842727
0.687742
0.911891
0
0
0
0
0
0
0
0
0.749218
0.594234
0.952889
0.614711
0.818382
0.838859
0.973367
0.749219
0.594235
0.952891
0.614712
0.818384
0.838861
0.973368
0.651617
0.561884
0.406991
0.406991
0.451857
0.60675
0.606751
0
0
0
0
0
0
0
0
0
0
0
0
0
0
0.879721
0.70044
0.545455
0.924588
0.590321
0.814469
0.769603
0.700442
0.879725
0.545458
0.924591
0.590324
0.814472
0.769606
0.741303
0.830944
0.496677
0.676051
0.87581
0.541544
0.696437
0.741304
0.830946
0.496679
0.676052
0.875812
0.541545
0.696438
0
0
0
0
0
0
0
0.526408
0.699226
0.699229
0.436666
0.744099
0.481536
0.481539
0.616098
0.788916
0.968299
0.705736
0.833788
0.750609
0.571226
0.616101
0.788922
0.968305
0.705745
0.833791
0.750615
0.571232
0.629021
0.8083
0.853172
0.712197
0.75707
0.981221
0.936349
0.62903
0.808315
0.853184
0.71221
0.757079
0.981234
0.936364
)
;

boundaryField
{
    inlet
    {
        type            calculated;
        value           uniform 0;
    }
    wall
    {
        type            calculated;
        value           uniform 0;
    }
    outlet
    {
        type            calculated;
        value           uniform 0;
    }
    procBoundary3to1
    {
        type            processor;
        value           uniform 0;
    }
    procBoundary3to2
    {
        type            processor;
        value           uniform 0;
    }
}


// ************************************************************************* //
