/*--------------------------------*- C++ -*----------------------------------*\
| =========                 |                                                 |
| \\      /  F ield         | OpenFOAM: The Open Source CFD Toolbox           |
|  \\    /   O peration     | Version:  5.x                                   |
|   \\  /    A nd           | Web:      www.OpenFOAM.org                      |
|    \\/     M anipulation  |                                                 |
\*---------------------------------------------------------------------------*/
FoamFile
{
    version     2.0;
    format      ascii;
    class       volScalarField;
    location    "0.063";
    object      phiIB;
}
// * * * * * * * * * * * * * * * * * * * * * * * * * * * * * * * * * * * * * //

dimensions      [0 2 -1 0 0 0 0];

internalField   nonuniform List<scalar> 
1567
(
-0.00012672
-0.000126719
-0.000126735
-0.000126737
-0.000126782
-0.000126719
-0.000126718
-0.000126733
-0.000126736
-0.00012678
-0.000126735
-0.000126733
-0.000126749
-0.000126751
-0.000126795
-0.000126737
-0.000126735
-0.000126751
-0.000126753
-0.000126797
-0.000126781
-0.00012678
-0.000126795
-0.000126797
-0.00012684
-0.00025509
-0.000255091
-0.000255096
-0.000255103
-0.000255111
-0.000255091
-0.000255091
-0.000255096
-0.000255103
-0.000255111
-0.000255096
-0.000255096
-0.000255102
-0.000255109
-0.000255117
-0.000255103
-0.000255103
-0.000255109
-0.000255115
-0.000255123
-0.000255111
-0.000255111
-0.000255116
-0.000255123
-0.00025513
-0.00059497
-0.000594971
-0.000594994
-0.00059501
-0.000595066
-0.000594971
-0.000594972
-0.000594995
-0.000595011
-0.000595066
-0.000594994
-0.000594995
-0.000595017
-0.000595033
-0.000595088
-0.000595009
-0.00059501
-0.000595033
-0.000595048
-0.000595103
-0.000595065
-0.000595066
-0.000595087
-0.000595103
-0.000595156
-0.00077122
-0.000771222
-0.000771246
-0.000771267
-0.000771318
-0.000771222
-0.000771224
-0.000771248
-0.000771269
-0.000771319
-0.000771246
-0.000771248
-0.000771272
-0.000771293
-0.000771342
-0.000771267
-0.000771269
-0.000771292
-0.000771313
-0.000771362
-0.000771317
-0.000771319
-0.000771342
-0.000771362
-0.000771411
-0.00108759
-0.00108759
-0.00108763
-0.00108767
-0.00108776
-0.00108759
-0.0010876
-0.00108764
-0.00108767
-0.00108776
-0.00108763
-0.00108764
-0.00108768
-0.00108771
-0.0010878
-0.00108767
-0.00108767
-0.00108771
-0.00108774
-0.00108783
-0.00108776
-0.00108776
-0.0010878
-0.00108783
-0.00108792
-0.00128851
-0.00128852
-0.00128857
-0.00128862
-0.00128874
-0.00128852
-0.00128853
-0.00128858
-0.00128863
-0.00128874
-0.00128857
-0.00128858
-0.00128864
-0.00128868
-0.0012888
-0.00128862
-0.00128863
-0.00128868
-0.00128872
-0.00128884
-0.00128874
-0.00128874
-0.0012888
-0.00128884
-0.00128895
-0.0015827
-0.00158272
-0.0015828
-0.00158286
-0.00158304
-0.00158271
-0.00158273
-0.00158281
-0.00158288
-0.00158305
-0.0015828
-0.00158281
-0.00158289
-0.00158296
-0.00158313
-0.00158286
-0.00158288
-0.00158296
-0.00158302
-0.00158319
-0.00158304
-0.00158305
-0.00158313
-0.00158319
-0.00158335
-0.00180164
-0.00180166
-0.00180177
-0.00180186
-0.00180211
-0.00180166
-0.00180168
-0.00180179
-0.00180188
-0.00180212
-0.00180177
-0.00180179
-0.0018019
-0.00180199
-0.00180223
-0.00180186
-0.00180188
-0.00180199
-0.00180208
-0.00180232
-0.00180211
-0.00180212
-0.00180223
-0.00180232
-0.00180254
-0.00207895
-0.00207898
-0.00207915
-0.00207928
-0.00207963
-0.00207898
-0.00207901
-0.00207917
-0.00207931
-0.00207965
-0.00207915
-0.00207917
-0.00207933
-0.00207946
-0.0020798
-0.00207928
-0.0020793
-0.00207946
-0.00207959
-0.00207993
-0.00207963
-0.00207965
-0.0020798
-0.00207993
-0.00208025
-0.0023096
-0.00230964
-0.00230987
-0.00231005
-0.00231054
-0.00230964
-0.00230967
-0.0023099
-0.00231009
-0.00231057
-0.00230987
-0.0023099
-0.00231013
-0.00231031
-0.00231078
-0.00231005
-0.00231009
-0.00231031
-0.00231048
-0.00231095
-0.00231054
-0.00231057
-0.00231078
-0.00231095
-0.0023114
-0.00257394
-0.00257399
-0.00257431
-0.00257457
-0.00257527
-0.00257399
-0.00257405
-0.00257437
-0.00257463
-0.00257532
-0.00257431
-0.00257437
-0.00257468
-0.00257494
-0.00257562
-0.00257457
-0.00257463
-0.00257494
-0.00257519
-0.00257586
-0.00257527
-0.00257532
-0.00257562
-0.00257586
-0.0025765
-0.00281066
-0.00281074
-0.00281121
-0.00281156
-0.00281254
-0.00281074
-0.00281082
-0.00281128
-0.00281163
-0.00281259
-0.00281121
-0.00281128
-0.00281171
-0.00281205
-0.00281299
-0.00281156
-0.00281163
-0.00281205
-0.00281238
-0.00281329
-0.00281254
-0.00281259
-0.00281299
-0.00281329
-0.00281416
-0.00306357
-0.00306366
-0.00306423
-0.00306466
-0.003066
-0.00306366
-0.00306375
-0.00306431
-0.00306474
-0.00306606
-0.00306423
-0.00306431
-0.00306487
-0.00306529
-0.00306659
-0.00306466
-0.00306474
-0.00306529
-0.0030657
-0.00306698
-0.003066
-0.00306606
-0.00306658
-0.00306698
-0.00306819
-0.00330127
-0.00330129
-0.00330206
-0.00330241
-0.00330411
-0.00330129
-0.00330133
-0.00330207
-0.00330243
-0.00330411
-0.00330206
-0.00330207
-0.0033027
-0.00330305
-0.00330469
-0.00330241
-0.00330243
-0.00330305
-0.00330344
-0.00330505
-0.00330411
-0.00330411
-0.00330469
-0.00330505
-0.00330657
-0.00354318
-0.00354256
-0.00354223
-0.00354176
-0.0035436
-0.00354256
-0.00354207
-0.00354191
-0.00354159
-0.00354348
-0.00354223
-0.00354191
-0.00354222
-0.0035421
-0.00354407
-0.00354176
-0.00354159
-0.0035421
-0.00354221
-0.00354423
-0.0035436
-0.00354348
-0.00354407
-0.00354423
-0.0035462
-0.00378137
-0.00377777
-0.00377306
-0.00377102
-0.00377247
-0.00377777
-0.00377496
-0.00377196
-0.00377032
-0.00377198
-0.00377306
-0.00377196
-0.00377137
-0.00377039
-0.0037722
-0.00377102
-0.00377032
-0.00377039
-0.00376971
-0.00377176
-0.00377247
-0.00377198
-0.00377219
-0.00377176
-0.00377376
-0.00398723
-0.00398587
-0.00398476
-0.00398102
-0.0039811
-0.00398587
-0.00398417
-0.00398211
-0.00397899
-0.00397976
-0.00398476
-0.00398211
-0.00397914
-0.00397751
-0.00397979
-0.00398102
-0.00397899
-0.00397751
-0.00397622
-0.00397889
-0.00398109
-0.00397976
-0.00397979
-0.00397889
-0.00398215
-0.00415714
-0.00415755
-0.00415989
-0.00416039
-0.00416383
-0.00415755
-0.00415776
-0.00415992
-0.0041602
-0.00416321
-0.00415989
-0.00415992
-0.00416142
-0.00416073
-0.00416424
-0.00416039
-0.0041602
-0.00416073
-0.00416039
-0.00416489
-0.00416383
-0.00416321
-0.00416424
-0.00416488
-0.00417135
-0.0042694
-0.00427215
-0.00427871
-0.00428449
-0.0042945
-0.00427215
-0.00427445
-0.00428051
-0.00428566
-0.00429393
-0.0042787
-0.00428051
-0.00428652
-0.00429057
-0.00429826
-0.00428448
-0.00428566
-0.00429057
-0.00429285
-0.00430284
-0.00429449
-0.00429393
-0.00429825
-0.00430284
-0.00431418
-0.00434607
-0.00435435
-0.00436657
-0.00438037
-0.00439944
-0.00435434
-0.0043605
-0.00437113
-0.00438322
-0.00440009
-0.00436656
-0.00437113
-0.00438052
-0.00439087
-0.00440693
-0.00438036
-0.00438321
-0.00439086
-0.0043986
-0.00441429
-0.00439942
-0.00440008
-0.00440692
-0.00441428
-0.00442783
-0.00436147
-0.00437582
-0.00439506
-0.0044182
-0.00445081
-0.00437581
-0.00438632
-0.00440298
-0.00442332
-0.00445379
-0.00439504
-0.00440298
-0.00441815
-0.00443569
-0.00446278
-0.00441818
-0.00442332
-0.00443569
-0.00444954
-0.00447127
-0.00445079
-0.00445378
-0.00446277
-0.00447126
-0.00448875
-0.00437958
-0.00440233
-0.00442384
-0.00445924
-0.00449871
-0.00440232
-0.00442197
-0.00443888
-0.00446759
-0.00450155
-0.00442382
-0.00443888
-0.00445582
-0.00447958
-0.0045115
-0.00445922
-0.00446758
-0.00447958
-0.00449757
-0.00452238
-0.00449868
-0.00450154
-0.00451148
-0.00452237
-0.00454443
-0.00441516
-0.00441246
-0.00442675
-0.00445633
-0.00451155
-0.00441245
-0.00441839
-0.00443573
-0.00446253
-0.00451118
-0.00442674
-0.00443572
-0.0044533
-0.00447626
-0.00451585
-0.00445631
-0.00446252
-0.00447625
-0.00449105
-0.00452067
-0.00451151
-0.00451115
-0.00451583
-0.00452066
-0.00454685
-0.00420132
-0.00433523
-0.00439138
-0.00446689
-0.00453123
-0.0043352
-0.00440563
-0.00443253
-0.00448835
-0.00453386
-0.00439136
-0.00443253
-0.00445704
-0.00449792
-0.00453986
-0.00446687
-0.00448835
-0.00449792
-0.0045191
-0.00454985
-0.00453119
-0.00453384
-0.00453984
-0.00454983
-0.00457921
-0.00476132
-0.00450256
-0.00447684
-0.00448567
-0.00453481
-0.00450252
-0.00446183
-0.00447065
-0.0044813
-0.00452852
-0.00447681
-0.00447063
-0.00447146
-0.00447865
-0.00452823
-0.00448568
-0.00448131
-0.00447866
-0.00448481
-0.0045252
-0.00453477
-0.00452849
-0.0045282
-0.00452517
-0.00455694
-0.00292185
-0.0039604
-0.00415934
-0.0043602
-0.00447008
-0.00396035
-0.00422765
-0.00430713
-0.00440477
-0.0044795
-0.00415936
-0.00430717
-0.00435655
-0.0044156
-0.00449007
-0.00436018
-0.00440477
-0.0044156
-0.00446476
-0.00451101
-0.00447004
-0.00447948
-0.00449003
-0.00451098
-0.00455321
-0.00522209
-0.00425685
-0.00437759
-0.00438441
-0.0044721
-0.00425638
-0.0044335
-0.00445064
-0.00438258
-0.00446237
-0.00437764
-0.00445067
-0.00440059
-0.00439297
-0.00446607
-0.00438434
-0.00438256
-0.00439299
-0.00440061
-0.00445629
-0.004472
-0.0044623
-0.00446601
-0.00445623
-0.00450354
-0.00154338
-0.00369618
-0.00415363
-0.00419797
-0.004402
-0.00369558
-0.00334739
-0.0041028
-0.0042054
-0.00437757
-0.00415357
-0.00410285
-0.00420827
-0.00427964
-0.0043966
-0.00419784
-0.00420534
-0.0042796
-0.00435688
-0.004415
-0.00440196
-0.00437757
-0.00439655
-0.00441496
-0.00445937
-0.00011994
-0.00441962
-0.00454651
-0.00435076
-0.00444809
-0.00441904
-0.00434201
-0.00459656
-0.0043151
-0.00439401
-0.00454666
-0.00459682
-0.00437724
-0.00431566
-0.00437491
-0.00435059
-0.00431502
-0.00431564
-0.00429714
-0.00433248
-0.00444802
-0.00439397
-0.00437484
-0.00433241
-0.0043734
-0.00385213
-0.00421085
-0.00426887
-0.00413416
-0.00440469
-0.00421051
-0.00406475
-0.00412416
-0.00421467
-0.00430568
-0.00426876
-0.00412414
-0.0042464
-0.00422577
-0.00430889
-0.00413405
-0.00421461
-0.00422576
-0.00427786
-0.00430364
-0.00440462
-0.00430567
-0.00430886
-0.00430359
-0.00431561
-0.00239338
-0.00408805
-0.00400365
-0.00401102
-0.00421098
-0.00408796
-0.00387888
-0.00404781
-0.00403426
-0.00412555
-0.0040036
-0.0040478
-0.0041398
-0.00407187
-0.0041458
-0.00401099
-0.00403424
-0.00407188
-0.00408878
-0.00410986
-0.00421088
-0.00412547
-0.00414574
-0.0041098
-0.0041413
-0.000262485
-0.0025317
-0.00408294
-0.00410614
-0.00413464
-0.00253153
-0.00346203
-0.00402162
-0.00412987
-0.00409993
-0.00408292
-0.00402161
-0.00412183
-0.00411373
-0.00411843
-0.0041061
-0.00412985
-0.00411372
-0.00415233
-0.00412248
-0.0041346
-0.00409988
-0.00411838
-0.00412244
-0.00411734
-0.0055318
-0.00482655
-0.00419942
-0.00397101
-0.00397649
-0.00482646
-0.00416297
-0.00405639
-0.00393266
-0.00390974
-0.00419937
-0.00405636
-0.00404327
-0.0039301
-0.00391286
-0.00397098
-0.00393265
-0.0039301
-0.00390269
-0.00387334
-0.00397644
-0.0039097
-0.00391282
-0.00387331
-0.00386824
-0.00439827
-0.00422615
-0.00420645
-0.00400663
-0.00404984
-0.00422612
-0.00363885
-0.00406334
-0.00395853
-0.00397786
-0.00420644
-0.00406333
-0.00414449
-0.00400996
-0.00399141
-0.00400659
-0.00395851
-0.00400995
-0.00399997
-0.00396824
-0.00404978
-0.00397783
-0.00399137
-0.00396822
-0.00395335
-0.00347442
-0.00349054
-0.0035313
-0.00351577
-0.00354176
-0.00349052
-0.00368111
-0.00359585
-0.00354925
-0.00353127
-0.00353128
-0.00359584
-0.00359247
-0.00355059
-0.00353477
-0.00351574
-0.00354924
-0.00355058
-0.00353684
-0.00351377
-0.00354172
-0.00353125
-0.00353475
-0.00351376
-0.00350829
-0.00392449
-0.00384026
-0.0036794
-0.00361125
-0.00359064
-0.00384025
-0.00368169
-0.00361954
-0.00360208
-0.00357636
-0.00367938
-0.00361954
-0.0036103
-0.00359242
-0.00357027
-0.00361123
-0.00360207
-0.00359241
-0.00358604
-0.0035617
-0.0035906
-0.00357634
-0.00357025
-0.00356169
-0.00355077
-0.00257494
-0.002666
-0.00265579
-0.00268625
-0.00271091
-0.00266599
-0.00270154
-0.00269119
-0.00270946
-0.0027249
-0.00265578
-0.00269118
-0.00270064
-0.00272304
-0.00273647
-0.00268624
-0.00270945
-0.00272303
-0.00273649
-0.00273781
-0.0027109
-0.00272488
-0.00273646
-0.00273781
-0.00274241
-0.00258671
-0.00253963
-0.00244846
-0.00237419
-0.00234017
-0.00253963
-0.002493
-0.00241622
-0.00236746
-0.00233849
-0.00244845
-0.00241622
-0.00237155
-0.00235268
-0.00233405
-0.00237418
-0.00236746
-0.00235268
-0.00234765
-0.00233272
-0.00234016
-0.00233848
-0.00233404
-0.00233271
-0.00232857
-0.00104086
-0.00106539
-0.00106567
-0.00104775
-0.00103548
-0.00106539
-0.0010767
-0.00107317
-0.0010374
-0.00103139
-0.00106567
-0.00107317
-0.00105236
-0.00102805
-0.00102963
-0.00104775
-0.0010374
-0.00102805
-0.00102525
-0.00103038
-0.00103548
-0.00103138
-0.00102962
-0.00103038
-0.00103597
-0.000821388
-0.000754957
-0.000660212
-0.000604502
-0.000574112
-0.000754956
-0.000696825
-0.000623052
-0.000593829
-0.000569901
-0.000660211
-0.000623049
-0.000591722
-0.000577508
-0.000563128
-0.000604501
-0.000593827
-0.000577508
-0.000571491
-0.000559957
-0.00057411
-0.000569898
-0.000563125
-0.000559955
-0.000554798
-0.00282952
-0.00282952
-0.00364092
-0.000296691
-0.00262832
-0.00262823
-0.00297492
-0.00278473
-0.00278463
-0.00405207
-0.00482234
-0.00556852
-0.00556831
-0.00426292
-0.00701874
-0.00701863
-0.00489922
-0.00660892
-0.00419872
-0.00419868
-0.00332922
-0.00479561
-0.00479558
-0.00337729
-0.00338521
-0.00372131
-0.00372128
-0.003191
-0.00449489
-0.00449457
-0.00409986
-0.00374867
-0.00293931
-0.00293921
-0.00328561
-0.00320085
-0.00320073
-0.00244541
-0.00340677
-0.00343257
-0.00356087
-0.0035607
-0.00390907
-0.00450106
-0.00382058
-0.00386114
-0.00362171
-0.00376173
-0.00378163
-0.00450081
-0.00390889
-0.00382065
-0.00386107
-0.0037617
-0.00362157
-0.00378159
-0.00368958
-0.00263131
-0.00354861
-0.00382324
-0.003594
-0.0035806
-0.0035371
-0.00368944
-0.00263133
-0.00354862
-0.00382317
-0.00359385
-0.00358047
-0.00353695
-0.00522428
-0.00613542
-0.00537173
-0.0053717
-0.00420816
-0.0057216
-0.00572157
-0.00425537
-0.00450184
-0.0042345
-0.00486212
-0.0038895
-0.00439024
-0.00367142
-0.00450185
-0.00425528
-0.00423443
-0.00486216
-0.00439024
-0.00388939
-0.00367137
-0.00562239
-0.00546378
-0.00654206
-0.00348241
-0.00504807
-0.00538656
-0.0060108
-0.00562239
-0.00546369
-0.00654204
-0.00348239
-0.00504801
-0.00538657
-0.00601078
-0.000945196
-0.000944231
-0.00312194
-0.00402124
-0.00522767
-0.00522701
-0.00439781
-0.00358884
-0.00403121
-0.00403094
-0.00394918
-0.00417429
-0.00370326
-0.00370303
-0.00412967
-0.00428065
-0.00449363
-0.00404093
-0.00432561
-0.00392999
-0.00415628
-0.0041296
-0.0042802
-0.00449347
-0.00404068
-0.00432545
-0.00393006
-0.00415604
-0.00566054
-0.00419401
-0.00430803
-0.00430802
-0.00477043
-0.0047704
-0.00563992
-0.00532515
-0.00446301
-0.00446281
-0.00339343
-0.00516289
-0.00433658
-0.00433654
-0.00593489
-0.00568785
-0.00568782
-0.00593381
-0.00586296
-0.00595261
-0.00595259
-0.00584918
-0.00600052
-0.00680815
-0.00613912
-0.00610445
-0.00579707
-0.00609056
-0.00584915
-0.00600044
-0.00680807
-0.00613902
-0.0061044
-0.00579702
-0.00609048
-0.00428961
-0.00428938
-0.00457218
-0.00458981
-0.00370047
-0.00413977
-0.00413955
-0.00441347
-0.00371769
-0.00424658
-0.00443117
-0.00408339
-0.00452655
-0.00434354
-0.00371857
-0.00441263
-0.00424532
-0.00443083
-0.00452631
-0.00408307
-0.00434315
-0.00434822
-0.00455029
-0.00451848
-0.00380659
-0.0041159
-0.00408401
-0.00397288
-0.00434773
-0.00455008
-0.0045184
-0.00380646
-0.00411568
-0.00408376
-0.00397269
-0.00633386
-0.00534674
-0.00534674
-0.00455429
-0.00677111
-0.00500211
-0.00500207
-0.0046585
-0.00524765
-0.00471507
-0.0052904
-0.00615623
-0.0056381
-0.00497511
-0.00465792
-0.00524765
-0.0047147
-0.00529008
-0.00615544
-0.00563677
-0.00497459
-0.00491616
-0.00491585
-0.00578108
-0.00630279
-0.00420134
-0.00494036
-0.00493995
-0.00411144
-0.00363309
-0.0050651
-0.00506508
-0.00533509
-0.00393079
-0.00393076
-0.00295576
-0.00337889
-0.00358041
-0.00468393
-0.00425035
-0.00436861
-0.00410033
-0.00337886
-0.00295566
-0.00358036
-0.00468384
-0.00436864
-0.00425024
-0.00410025
-0.00480262
-0.00469844
-0.00559174
-0.00462799
-0.00500616
-0.00392182
-0.00409758
-0.00469841
-0.00480251
-0.00559165
-0.00462788
-0.00500608
-0.0039217
-0.00409748
-0.00472464
-0.00255719
-0.00555604
-0.00508902
-0.00320137
-0.00590839
-0.00498146
-0.0047247
-0.00255702
-0.005556
-0.00508893
-0.00320126
-0.00590848
-0.0049815
-0.00327108
-0.0032724
-0.0036818
0.00384787
0.000731175
0.000735087
-0.00257986
-0.0038758
-0.000895189
-0.000894579
-0.00253476
-0.00150308
-0.00316828
-0.00316804
-0.00536549
-0.00303511
-0.00189644
-0.00395184
-0.00269485
-0.00369058
-0.00441204
-0.00536497
-0.00303354
-0.00189543
-0.00395059
-0.00268854
-0.00369145
-0.00441155
-0.00448992
-0.00421978
-0.00417283
-0.0043474
-0.00447498
-0.00403207
-0.00446207
-0.00448959
-0.00421963
-0.00417276
-0.00434677
-0.0044738
-0.00403116
-0.00446172
-0.00327185
-0.00399125
-0.00514349
-0.00514338
-0.00450484
-0.00450472
-0.00641249
-0.00519598
-0.00363403
-0.00363471
-0.00372179
-0.00187224
-0.00472783
-0.00472754
-0.00201213
-0.00134799
-0.00134786
-0.00185298
-0.00225977
-0.00186899
-0.00186889
-0.00192952
0.000205064
-0.00304212
-0.00174257
-0.000445505
-0.00274433
-0.00194648
-0.00192925
0.000205325
-0.00304205
-0.00174249
-0.000445287
-0.00274422
-0.00194622
-0.00461963
-0.00425605
-0.00479154
-0.00432951
-0.00413171
-0.0038748
-0.00372268
-0.00461951
-0.00479155
-0.00425593
-0.00432944
-0.00413162
-0.00387472
-0.00372257
0.00329361
0.0032954
0.00189943
0.00336341
0.00677859
0.00355714
0.00355988
-0.00412116
-0.00375775
-0.00401639
-0.00111739
-0.00334561
-0.00315033
-0.00395388
-0.00375741
-0.00412124
-0.00401666
-0.00111314
-0.00314789
-0.0033452
-0.0039533
-0.00392241
-0.00461403
-0.00476902
-0.00388736
-0.0049749
-0.00454969
-0.0042096
-0.00392037
-0.00461354
-0.00476896
-0.00388706
-0.00497529
-0.00454851
-0.00420944
0.00121344
-0.000380311
0.000488049
0.00336075
0.00182412
0.000828167
0.00480153
0.00121415
-0.000374258
0.000496062
0.00336329
0.00182677
0.000821351
0.00480712
-0.00176409
-0.00306122
-0.00306119
-0.00343632
-0.00132593
-0.00329746
-0.00329743
-0.00192906
-0.00193038
-0.000406567
0.00035131
-0.00255837
-0.00134116
-0.00134218
-0.00406254
-0.00406251
-0.00401764
-0.0041385
-0.00405322
-0.00405319
-0.00372293
-0.00462728
-0.0043422
-0.00445171
-0.00450928
-0.00483762
-0.00424526
-0.00406653
-0.00462724
-0.00434216
-0.00445171
-0.00450915
-0.0048376
-0.00424518
-0.0040665
-0.00374902
-0.003749
-0.00408506
-0.00402792
-0.00408078
-0.00408076
-0.00391595
-0.00412844
-0.00453073
-0.00404949
-0.00395084
-0.00420537
-0.00408723
-0.00408166
-0.00412839
-0.00453069
-0.00404946
-0.00395078
-0.00420527
-0.00408716
-0.0040816
-0.00329957
-0.00241552
-0.000504521
-0.000504434
-0.00143272
-0.00282074
-0.0028207
-0.00294333
-0.00404194
-0.00337072
-0.00279911
-0.00430761
-0.00341826
-0.00439651
-0.00404188
-0.00294324
-0.00337073
-0.00279904
-0.00341817
-0.00430751
-0.00439645
-0.00337953
-0.00232722
-0.00268853
-0.00327317
-0.0027041
-0.00373043
-0.00355659
-0.00232711
-0.00337943
-0.00268834
-0.00327312
-0.00270393
-0.00373038
-0.0035565
-0.00295541
-0.00316709
-0.000628232
-0.00311371
-0.00345519
-0.00118513
-0.00271578
-0.00295535
-0.00316701
-0.000628127
-0.0031137
-0.00345513
-0.00118507
-0.0027157
-0.0044942
-0.00449407
-0.00359265
0.000860139
-0.00120166
-0.00120337
-0.00258787
0.00319462
-0.00197575
-0.00197513
0.00463751
-0.00146554
0.00427857
0.00428018
0.0020866
-0.00459694
-0.0014899
-0.0019869
-0.00246268
-0.00108134
0.00248863
0.00208361
-0.00459708
-0.00149268
-0.00198471
-0.00246447
-0.0010882
0.00249631
-0.000839705
-0.00642793
-0.00484207
-0.000827513
-0.000405171
-0.00389619
-0.00555298
-0.000840307
-0.00642887
-0.00484192
-0.0008246
-0.000412014
-0.00389644
-0.00555329
)
;

boundaryField
{
    inlet
    {
        type            fixedValue;
        value           uniform 0;
    }
    wall
    {
        type            zeroGradient;
    }
    outlet
    {
        type            fixedValue;
        value           uniform 0;
    }
    procBoundary3to1
    {
        type            processor;
        value           nonuniform List<scalar> 
329
(
-0.000126723
-0.000126722
-0.000126737
-0.00012674
-0.000126784
-0.000255092
-0.000255092
-0.000255098
-0.000255104
-0.000255113
-0.000594976
-0.000594976
-0.000594998
-0.000595014
-0.00059507
-0.000771226
-0.000771226
-0.00077125
-0.000771271
-0.000771322
-0.0010876
-0.0010876
-0.00108764
-0.00108767
-0.00108777
-0.00128852
-0.00128852
-0.00128858
-0.00128863
-0.00128874
-0.00158271
-0.00158272
-0.00158281
-0.00158287
-0.00158305
-0.00180165
-0.00180167
-0.00180178
-0.00180187
-0.00180212
-0.00207896
-0.00207899
-0.00207916
-0.00207929
-0.00207964
-0.00230961
-0.00230965
-0.00230988
-0.00231006
-0.00231056
-0.00257395
-0.00257401
-0.00257433
-0.00257459
-0.00257529
-0.00281067
-0.00281075
-0.00281123
-0.00281158
-0.00281256
-0.00306359
-0.00306368
-0.00306425
-0.00306469
-0.00306603
-0.0033013
-0.00330133
-0.0033021
-0.00330245
-0.00330416
-0.00354323
-0.00354261
-0.0035423
-0.00354185
-0.0035437
-0.00378138
-0.0037778
-0.00377316
-0.00377116
-0.00377267
-0.00398747
-0.00398608
-0.00398495
-0.00398122
-0.00398138
-0.0041578
-0.00415817
-0.0041605
-0.00416097
-0.00416442
-0.0042704
-0.00427314
-0.00427972
-0.00428544
-0.0042954
-0.00434747
-0.00435578
-0.00436805
-0.00438178
-0.00440089
-0.00436337
-0.0043778
-0.00439714
-0.00442013
-0.00445277
-0.00438195
-0.00440491
-0.00442656
-0.00446178
-0.00450147
-0.00441866
-0.00441618
-0.00443013
-0.00445956
-0.00451523
-0.00420588
-0.00434116
-0.00439603
-0.00447107
-0.00453602
-0.00477004
-0.00451148
-0.0044824
-0.00449114
-0.0045411
-0.00292922
-0.00398579
-0.00416889
-0.00437092
-0.00448038
-0.0052362
-0.00427597
-0.00438248
-0.00439476
-0.00448387
-0.00154912
-0.00367225
-0.00420475
-0.00423272
-0.00441988
-0.000121496
-0.0043947
-0.00457346
-0.00435444
-0.00445679
-0.00382803
-0.00418162
-0.00428359
-0.00414851
-0.00441232
-0.00239513
-0.00412302
-0.00400423
-0.00401547
-0.0042215
-0.000240264
-0.00253562
-0.00408375
-0.00410983
-0.00414035
-0.00552951
-0.00485026
-0.00420396
-0.00397869
-0.00398423
-0.00445991
-0.00428756
-0.00422872
-0.00401984
-0.00406111
-0.00347748
-0.00346841
-0.00354592
-0.00351994
-0.00355057
-0.0039136
-0.00384392
-0.00368444
-0.00361558
-0.00359538
-0.00257902
-0.00266081
-0.0026574
-0.00268608
-0.00271337
-0.00258661
-0.00254049
-0.00244943
-0.00237595
-0.00234246
-0.00104099
-0.00106385
-0.0010654
-0.00104754
-0.00103578
-0.000821908
-0.000755468
-0.000661145
-0.000605311
-0.000575509
-0.00035779
-0.00264261
-0.00272749
-0.00481948
-0.0055678
-0.00281953
-0.00661163
-0.00418346
-0.00703006
-0.00336984
-0.00371309
-0.00475743
-0.00374782
-0.00291487
-0.00444354
-0.00318557
-0.00353489
-0.00341626
-0.00382085
-0.00360819
-0.00389835
-0.00356308
-0.00349845
-0.00365956
-0.00535315
-0.0057096
-0.00613571
-0.00486028
-0.003937
-0.00424617
-0.00545514
-0.00599458
-0.00652238
-0.00399887
-0.00514076
-0.000910355
-0.00392355
-0.00366875
-0.00399263
-0.00423333
-0.00410839
-0.00399155
-0.00593107
-0.00594381
-0.00568272
-0.00599741
-0.00607376
-0.0061266
-0.00425045
-0.00411132
-0.00368382
-0.00438502
-0.00404722
-0.00438275
-0.00452077
-0.00395764
-0.00409301
-0.00609856
-0.00493259
-0.00459161
-0.00505849
-0.00392338
-0.00363084
-0.00469241
-0.00425825
-0.00294396
-0.00558303
-0.00408864
-0.00480266
-0.00255693
-0.00496558
-0.00554633
0.00383854
0.000748426
-0.00316165
-0.00252595
-0.00315215
-0.000898849
-0.00303998
-0.00438379
-0.00387784
-0.00415747
-0.00439383
-0.00431893
-0.00185429
-0.00186169
-0.00134648
0.000208445
-0.00191587
-0.00170156
-0.00425932
-0.00372188
-0.00462165
0.00327252
0.00350944
0.00676368
-0.00107961
-0.00335665
-0.00413229
-0.00459686
-0.00419949
-0.00494434
0.00165003
0.00477269
0.00117186
-0.000545398
-0.00279278
-0.002353
-0.00283337
-0.00430294
-0.00295706
-0.00268559
-0.00355226
-0.00338599
-0.00313304
-0.002682
-0.00063643
0.000876043
-0.00119446
-0.00452052
0.00462538
0.00425223
-0.00199234
-0.00460987
0.0024129
-0.00213401
-0.00644859
-0.00561342
-0.00100077
)
;
    }
    procBoundary3to2
    {
        type            processor;
        value           nonuniform List<scalar> 
329
(
-0.000126723
-0.000126722
-0.000126737
-0.000126739
-0.000126784
-0.000255092
-0.000255092
-0.000255098
-0.000255104
-0.000255112
-0.000594976
-0.000594976
-0.000594998
-0.000595014
-0.00059507
-0.000771226
-0.000771226
-0.00077125
-0.00077127
-0.000771321
-0.0010876
-0.0010876
-0.00108764
-0.00108767
-0.00108776
-0.00128852
-0.00128852
-0.00128858
-0.00128862
-0.00128874
-0.00158271
-0.00158272
-0.00158281
-0.00158287
-0.00158305
-0.00180165
-0.00180167
-0.00180178
-0.00180187
-0.00180212
-0.00207896
-0.00207899
-0.00207916
-0.00207929
-0.00207964
-0.00230961
-0.00230965
-0.00230988
-0.00231006
-0.00231056
-0.00257395
-0.00257401
-0.00257433
-0.00257459
-0.00257529
-0.00281067
-0.00281075
-0.00281123
-0.00281158
-0.00281256
-0.00306359
-0.00306368
-0.00306425
-0.00306469
-0.00306603
-0.0033013
-0.00330133
-0.0033021
-0.00330245
-0.00330416
-0.00354323
-0.00354261
-0.0035423
-0.00354185
-0.0035437
-0.00378139
-0.0037778
-0.00377316
-0.00377116
-0.00377267
-0.00398746
-0.00398608
-0.00398495
-0.00398122
-0.00398138
-0.0041578
-0.00415817
-0.0041605
-0.00416096
-0.00416442
-0.00427039
-0.00427312
-0.0042797
-0.00428542
-0.00429538
-0.00434746
-0.00435576
-0.00436803
-0.00438175
-0.00440087
-0.00436336
-0.00437777
-0.00439711
-0.0044201
-0.00445274
-0.00438193
-0.00440487
-0.00442652
-0.00446174
-0.00450142
-0.00441863
-0.00441614
-0.00443009
-0.00445951
-0.00451516
-0.00420583
-0.0043411
-0.00439597
-0.00447102
-0.00453596
-0.00476994
-0.00451138
-0.00448234
-0.00449109
-0.00454104
-0.00292924
-0.0039857
-0.00416883
-0.00437084
-0.00448029
-0.00523594
-0.00427579
-0.00438243
-0.00439463
-0.00448375
-0.00154964
-0.00367235
-0.00420465
-0.00423256
-0.00441977
-0.000121491
-0.00439401
-0.00457347
-0.00435426
-0.00445666
-0.00382789
-0.00418115
-0.0042834
-0.00414838
-0.00441219
-0.00239505
-0.00412285
-0.00400408
-0.00401536
-0.00422136
-0.000240217
-0.00253547
-0.00408362
-0.00410972
-0.00414024
-0.00552948
-0.00485015
-0.00420384
-0.00397859
-0.00398412
-0.00445988
-0.00428748
-0.00422863
-0.00401973
-0.00406099
-0.00347746
-0.00346836
-0.00354585
-0.00351986
-0.00355048
-0.00391359
-0.0038439
-0.00368442
-0.00361555
-0.00359534
-0.00257902
-0.0026608
-0.0026574
-0.00268607
-0.00271336
-0.0025866
-0.00254048
-0.00244943
-0.00237595
-0.00234245
-0.001041
-0.00106384
-0.00106539
-0.00104754
-0.00103577
-0.000821898
-0.000755462
-0.000661142
-0.00060531
-0.000575508
-0.00272732
-0.00264253
-0.000357764
-0.00281943
-0.00556757
-0.00481945
-0.00702995
-0.00418339
-0.00661163
-0.00475732
-0.00371303
-0.00336981
-0.00444307
-0.00291467
-0.00374782
-0.00341622
-0.00353471
-0.00318543
-0.00389812
-0.00360798
-0.0038206
-0.00365933
-0.00349822
-0.0035628
-0.00613571
-0.00570957
-0.00535311
-0.00424607
-0.00393688
-0.00486025
-0.00652232
-0.0059945
-0.005455
-0.000910286
-0.00514012
-0.00399872
-0.00399232
-0.00366851
-0.00392346
-0.0039912
-0.00410805
-0.00423284
-0.00568266
-0.00594377
-0.00593105
-0.00612647
-0.00607366
-0.00599731
-0.00368369
-0.00411103
-0.0042501
-0.00438255
-0.00404696
-0.00438457
-0.00409274
-0.00395743
-0.00452046
-0.00459099
-0.00493202
-0.00609745
-0.00363081
-0.00392332
-0.00505843
-0.00294382
-0.00425811
-0.0046923
-0.00480255
-0.00408854
-0.00558294
-0.00554624
-0.00496559
-0.00255679
-0.00316317
0.000747737
0.00383844
-0.000898814
-0.00315202
-0.00252588
-0.00387688
-0.00438369
-0.00304054
-0.00431796
-0.00439336
-0.00415728
-0.0013464
-0.00186158
-0.00185424
-0.00170152
-0.0019157
0.000208647
-0.00462149
-0.00372175
-0.00425918
0.00676275
0.00350925
0.0032726
-0.00413237
-0.00335638
-0.00107967
-0.00494445
-0.00419941
-0.00459646
0.00117037
0.00477106
0.00164702
-0.00235296
-0.00279269
-0.000545321
-0.00295693
-0.00430279
-0.00283323
-0.00338587
-0.00355215
-0.00268543
-0.000636355
-0.00268187
-0.00313292
-0.00452022
-0.00119492
0.000876289
-0.00199283
0.0042521
0.00462531
-0.00213631
0.00241399
-0.00461073
-0.00100295
-0.0056146
-0.0064498
)
;
    }
}


// ************************************************************************* //
