FoamFile
{version 2.0; format ascii;class Cloud<passiveParticle>; location 0;object  positions;}
2
(
( 0.499974 0.499973 3.16289 ) 0 
( 0.499969 0.499967 2.82294 ) 0 
)
