FoamFile
{version 2.0; format ascii;class Cloud<passiveParticle>; location 0;object  positions;}
2
(
( 0.499982 0.49998 2.92874 ) 0 
( 0.499948 0.49995 2.59918 ) 0 
)
