
//   run_parallel_cfdemSolverPiso_settlingTestMPI_CFDDEM   //

/home/dw/CFDEM/CFDEMcoupling-PUBLIC-5.x/test_mix/settlingTestMPI/CFD

/*---------------------------------------------------------------------------*\
| =========                 |                                                 |
| \\      /  F ield         | OpenFOAM: The Open Source CFD Toolbox           |
|  \\    /   O peration     | Version:  5.x                                   |
|   \\  /    A nd           | Web:      www.OpenFOAM.org                      |
|    \\/     M anipulation  |                                                 |
\*---------------------------------------------------------------------------*/
Build  : 5.x
Exec   : cfdemSolverMix_1_0 -parallel
Date   : Mar 20 2020
Time   : 13:10:36
Host   : "dw-MacBookPro"
PID    : 12107
I/O    : uncollated
Case   : /home/dw/CFDEM/CFDEMcoupling-PUBLIC-5.x/test_mix/settlingTestMPI/CFD
nProcs : 2
Slaves : 1("dw-MacBookPro.12108")
Pstream initialized with:
    floatTransfer      : 0
    nProcsSimpleSum    : 0
    commsType          : nonBlocking
    polling iterations : 0
sigFpe : Enabling floating point exception trapping (FOAM_SIGFPE).
fileModificationChecking : Monitoring run-time modified files using timeStampMaster (fileModificationSkew 10)
allowSystemOperations : Allowing user-supplied system call operations

// * * * * * * * * * * * * * * * * * * * * * * * * * * * * * * * * * * * * * //
Create time

Create mesh for time = 0


PISO: Operating solver in PISO mode

Reading field p

Reading physical velocity field U
Note: only if voidfraction at boundary is 1, U is superficial velocity!!!

Reading particle velocity field Us


Reading momentum exchange field Ksl


Reading voidfraction field voidfraction = (Vgas/Vparticle)


Reading density field rho

Reading/calculating face flux field phi

Generating interstitial face flux field phiByVoidfraction

Selecting incompressible transport model Newtonian
Selecting turbulence model type laminar
Selecting laminar stress model Stokes
No finite volume options present


Reading g
Selecting locateModel engine
Selecting dataExchangeModel twoWayMPI
Starting up LIGGGHTS for first time execution
Executing input script '../DEM/in.liggghts_run'
LIGGGHTS (Version LIGGGHTS-PUBLIC 3.8.0, compiled 2020-03-19-17:25:32 by dw, git commit 28301df8853491784b1d8b90533ea89b8c6af1e8)
log             ../DEM/log.liggghts
thermo_log      ../DEM/post/thermo.txt

atom_style      granular
atom_modify     map array sort 0 0
communicate     single vel yes

boundary        f f f
newton          off

units           si

region          reg block 0 0.1 0 0.1 0 0.1 units box
create_box      1 reg
Created orthogonal box = (0 0 0) to (0.1 0.1 0.1)
  1 by 1 by 2 MPI processor grid

neighbor        0.003 bin
neigh_modify    delay 0 binsize 0.01


# Material properties required for granular pair styles
fix         m1 all property/global youngsModulus peratomtype 5.e6
fix         m2 all property/global poissonsRatio peratomtype 0.45
fix         m3 all property/global coefficientRestitution peratomtypepair 1 0.3
fix         m4 all property/global coefficientFriction peratomtypepair 1 0.5
#fix         m5 all property/global characteristicVelocity scalar 2.0

# pair style
pair_style  gran model hertz tangential history # hertz without cohesion
pair_coeff  * *

# timestep, gravity
timestep    0.00001
fix         gravi all gravity 9.81 vector 0.0 -1.0 0.0

# walls
fix     xwalls1 all wall/gran model hertz tangential history primitive type 1 xplane 0.0
fix     xwalls2 all wall/gran model hertz tangential history primitive type 1 xplane 0.1
fix     ywalls1 all wall/gran model hertz tangential history primitive type 1 yplane 0.0
fix     ywalls2 all wall/gran model hertz tangential history primitive type 1 yplane 0.1
fix     zwalls1 all wall/gran model hertz tangential history primitive type 1 zplane 0.0
fix     zwalls2 all wall/gran model hertz tangential history primitive type 1 zplane 0.01

# create single partciles
create_atoms    1 single 0.05 0.025  0.05 units box
Created 1 atoms
set             group all diameter 0.0001 density 3000
Setting atom values ...
  1 settings made for diameter
  1 settings made for density

# cfd coupling
fix     cfd all couple/cfd couple_every 100 mpi
couple_every as specified in LIGGGHTS is overriden by calling external program (../fix_cfd_coupling.cpp:114)
fix     cfd2 all couple/cfd/force

variable    vx equal vx[1]
variable    vy equal vy[1]
variable    vz equal vz[1]
variable    time equal step*dt
fix         extra all print 100 "${time} ${vx} ${vy} ${vz}" file ../DEM/post/velocity.txt title "#" screen no

# apply nve integration to all particles that are inserted as single particles
fix         integr all nve/sphere

# screen output
compute         rke all erotate/sphere
thermo_style    custom step atoms ke c_rke vol
thermo          1000
thermo_modify   lost ignore norm no
compute_modify  thermo_temp dynamic yes
WARNING: Changing thermo_temp compute object. This object is deprecated and will be removed in the future. (../compute.cpp:161)

# insert the first particles so that dump is not empty
run     0
Setting up run at Fri Mar 20 13:10:36 2020

Memory usage per processor = 4.23785 Mbytes
    Step    Atoms         KinEng            rke         Volume 
       0        1              0              0          0.001 
Loop time of 1.04904e-05 on 2 procs for 0 steps with 1 atoms, finish time Fri Mar 20 13:10:36 2020


Pair  time (%) = 0 (0)
Neigh time (%) = 0 (0)
Comm  time (%) = 0 (0)
Outpt time (%) = 0 (0)
Other time (%) = 1.04904e-05 (100)

Nlocal:    0.5 ave 1 max 0 min
Histogram: 1 0 0 0 0 0 0 0 0 1
Nghost:    0.5 ave 1 max 0 min
Histogram: 1 0 0 0 0 0 0 0 0 1
Neighs:    0 ave 0 max 0 min
Histogram: 2 0 0 0 0 0 0 0 0 0

Total # of neighbors = 0
Ave neighs/atom = 0
Neighbor list builds = 0
Dangerous builds = 0
dump    dmp all custom 1000 ../DEM/post/dump.liggghts_run id type x y z ix iy iz vx vy vz fx fy fz omegax omegay omegaz radius

run     0 upto
Setting up run at Fri Mar 20 13:10:36 2020

Memory usage per processor = 4.23805 Mbytes
    Step    Atoms         KinEng            rke         Volume 
       0        1              0              0          0.001 
Loop time of 9.53674e-07 on 2 procs for 0 steps with 1 atoms, finish time Fri Mar 20 13:10:36 2020


Pair  time (%) = 0 (0)
Neigh time (%) = 0 (0)
Comm  time (%) = 0 (0)
Outpt time (%) = 0 (0)
Other time (%) = 9.53674e-07 (100)

Nlocal:    0.5 ave 1 max 0 min
Histogram: 1 0 0 0 0 0 0 0 0 1
Nghost:    0.5 ave 1 max 0 min
Histogram: 1 0 0 0 0 0 0 0 0 1
Neighs:    0 ave 0 max 0 min
Histogram: 2 0 0 0 0 0 0 0 0 0

Total # of neighbors = 0
Ave neighs/atom = 0
Neighbor list builds = 0
Dangerous builds = 0
Selecting IOModel basicIO
Selecting probeModel off
Selecting voidFractionModel mix
Selecting averagingModel mixDense
Selecting clockModel off
start clock measurement at t >0.002
Selecting smoothingModel constDiffSmoothing
Selecting meshMotionModel noMeshMotion

Ending of Constructing cfdemCloud Base Class Object......


Entry of cfdemCloud::cfdemCloud(const fvMesh&)......


CFDEMcoupling version: cfdem-3.8.1
, compatible to LIGGGHTS version: 3.8.0
, compatible to OF version and build: 5.x-commit-538044ac05c4672b37c7df607dca1116fa88df88

You are currently using:
OF version: 5.x
OF build: 5.x
CFDEM build: c7be6b8-dirty

cg is set to: 1
LIGGGHTS hosts 1 atom types.
If BC are important, please provide volScalarFields -imp/expParticleForces-
ignoring ddt(voidfraction)
Selecting momCoupleModel mixImplicitCouple
implicit momentum exchange field calculate if alphaP larger than : 1
Selecting forceModel mixDiFeliceDrag
 Selecting forceSubModel ImEx
Foam::forceSubModel::readSwitches(): looking for treatForceExplicit... not found in dict, using default.

treatForceExplicit = false
Foam::forceSubModel::readSwitches(): looking for implForceDEM... not found in dict, using default.

implForceDEM = false
Foam::forceSubModel::readSwitches(): looking for verbose... found in dict.

verbose = true
Foam::forceSubModel::readSwitches(): looking for interpolation... not found in dict, using default.

interpolation = false
Foam::forceSubModel::readSwitches(): looking for scalarViscosity... not found in dict, using default.

scalarViscosity = false
--> FOAM Warning : Please make sure you use the new nomenclature for verbose force model settings, please have a look at the forceSubModel doc.
Selecting forceModel mixArchimedes
 Selecting forceSubModel ImEx
Foam::forceSubModel::readSwitches(): looking for verbose... not found in dict, using default.

verbose = false
Selecting liggghtsCommandModel runLiggghts ,provide dicts, numbered from 0 to n
Selecting liggghtsCommandModel writeLiggghts ,provide dicts, numbered from 0 to n
Using user defined path to write LIGGGHTS restart file: "../DEM/post/restart"
writeLiggghts: A restart file writeName_write_restart ../DEM/post/restart/liggghts.restartCFDEM is written.
firstCouplingStep = 1
lastCouplingStep = 1000000000
couplingStepInterval = 1
nextRun = -1

cfdemCloud::cfdemCloud(const fvMesh&) - done


Ending of Constructing cfdemCloudMix Class Object......


Entry of cfdemCloudMix::cfdemCloudMix......


cfdemCloudMix::cfdemCloudMix - done


solving volume averaged Navier Stokes equations of type B


Starting time loop

Time = 0.001

Courant Number mean: 0 max: 0

// * * * * * * * * * * * * * * * Foam::cfdemCloudMix::evolve() * * * * * * * * * * * * * * * //


// * * * * * * * * * * Coupling * * * * * * * * * * //

number of particles = 0
Starting up LIGGGHTS
Executing command: 'run 100    '
run 100    
Setting up run at Fri Mar 20 13:10:36 2020

Memory usage per processor = 4.23805 Mbytes
    Step    Atoms         KinEng            rke         Volume 
       0        1              0              0          0.001 
CFD Coupling established at step 100
     100        1  7.5583656e-14              0          0.001 
Loop time of 0.000597477 on 2 procs for 100 steps with 1 atoms, finish time Fri Mar 20 13:10:36 2020


Pair  time (%) = 7.20024e-05 (12.0511)
Neigh time (%) = 0 (0)
Comm  time (%) = 8.4281e-05 (14.1061)
Outpt time (%) = 4.31538e-05 (7.22267)
Other time (%) = 0.00039804 (66.6201)

Nlocal:    0.5 ave 1 max 0 min
Histogram: 1 0 0 0 0 0 0 0 0 1
Nghost:    0.5 ave 1 max 0 min
Histogram: 1 0 0 0 0 0 0 0 0 1
Neighs:    0 ave 0 max 0 min
Histogram: 2 0 0 0 0 0 0 0 0 0

Total # of neighbors = 0
Ave neighs/atom = 0
Neighbor list builds = 0
Dangerous builds = 0
couplingStep = 1
LIGGGHTS finished
Foam::cfdemCloud::setNumberOfClumps(int nC) ... do nothing
number of particles = 1
DICPCG:  Solving for sSmoothField, Initial residual = 0.0283381, Final residual = 7.41303e-09, No Iterations 3
DICPCG:  Solving for vSmoothFieldx, Initial residual = 0, Final residual = 0, No Iterations 0
DICPCG:  Solving for vSmoothFieldy, Initial residual = 5.83279e-07, Final residual = 5.64353e-11, No Iterations 2
DICPCG:  Solving for vSmoothFieldz, Initial residual = 0, Final residual = 0, No Iterations 0

// * * * * * * * * * * Coupling - done * * * * * * * * * * //

using voidfraction blend, tsf=1
Setting mixDiFeliceDrag force......
Setting mixDiFeliceDrag force - done

Setting Archimedes force......
Setting Archimedes force - done

// * * * * * * * * * * * * * * * Foam::cfdemCloudMix::evolve() - done * * * * * * * * * * * * * * * //

DICPCG:  Solving for vSmoothFieldx, Initial residual = 0, Final residual = 0, No Iterations 0
DICPCG:  Solving for vSmoothFieldy, Initial residual = 0.0283381, Final residual = 7.41303e-09, No Iterations 3
DICPCG:  Solving for vSmoothFieldz, Initial residual = 0, Final residual = 0, No Iterations 0
calculate total implicit force
  TotalForceImp:  (0 -9.62134e-10 0)
  Warning, these values are based on latest Ksl and Us but prev. iteration U!

DILUPBiCG:  Solving for Ux, Initial residual = 0, Final residual = 0, No Iterations 0
DILUPBiCG:  Solving for Uy, Initial residual = 1, Final residual = 8.64563e-08, No Iterations 2
DILUPBiCG:  Solving for Uz, Initial residual = 0, Final residual = 0, No Iterations 0
DICPCG:  Solving for p, Initial residual = 1, Final residual = 0.0411334, No Iterations 15
time step continuity errors : sum local = 3.11548e-10, global = -2.08815e-12, cumulative = -2.08815e-12
DICPCG:  Solving for p, Initial residual = 0.0104533, Final residual = 0.000726181, No Iterations 5
time step continuity errors : sum local = 2.28855e-11, global = -2.12438e-12, cumulative = -4.21253e-12
DICPCG:  Solving for p, Initial residual = 0.000729838, Final residual = 1.88293e-05, No Iterations 14
time step continuity errors : sum local = 5.8828e-13, global = -1.62468e-14, cumulative = -4.22878e-12
DICPCG:  Solving for p, Initial residual = 1.92079e-05, Final residual = 8.10911e-07, No Iterations 14
time step continuity errors : sum local = 2.51992e-14, global = -5.30466e-17, cumulative = -4.22883e-12
ExecutionTime = 0.05 s  ClockTime = 0 s

Time = 0.002

Courant Number mean: 1.96559e-08 max: 5.38525e-07

// * * * * * * * * * * * * * * * Foam::cfdemCloudMix::evolve() * * * * * * * * * * * * * * * //


// * * * * * * * * * * Coupling * * * * * * * * * * //

number of particles = 1
Starting up LIGGGHTS
Executing command: 'run 100    '
run 100    
Setting up run at Fri Mar 20 13:10:36 2020

Memory usage per processor = 4.23805 Mbytes
    Step    Atoms         KinEng            rke         Volume 
     100        1  7.5583656e-14              0          0.001 
CFD Coupling established at step 200
     200        1  2.8277673e-13              0          0.001 
Loop time of 0.000452995 on 2 procs for 100 steps with 1 atoms, finish time Fri Mar 20 13:10:36 2020


Pair  time (%) = 7.10487e-05 (15.6842)
Neigh time (%) = 0 (0)
Comm  time (%) = 8.10623e-05 (17.8947)
Outpt time (%) = 2.69413e-05 (5.94737)
Other time (%) = 0.000273943 (60.4737)

Nlocal:    0.5 ave 1 max 0 min
Histogram: 1 0 0 0 0 0 0 0 0 1
Nghost:    0.5 ave 1 max 0 min
Histogram: 1 0 0 0 0 0 0 0 0 1
Neighs:    0 ave 0 max 0 min
Histogram: 2 0 0 0 0 0 0 0 0 0

Total # of neighbors = 0
Ave neighs/atom = 0
Neighbor list builds = 0
Dangerous builds = 0
couplingStep = 2
LIGGGHTS finished
Foam::cfdemCloud::setNumberOfClumps(int nC) ... do nothing
number of particles = 1
DICPCG:  Solving for sSmoothField, Initial residual = 0.0283381, Final residual = 6.3638e-09, No Iterations 3
DICPCG:  Solving for vSmoothFieldx, Initial residual = 0, Final residual = 0, No Iterations 0
DICPCG:  Solving for vSmoothFieldy, Initial residual = 5.83279e-07, Final residual = 5.64353e-11, No Iterations 2
DICPCG:  Solving for vSmoothFieldz, Initial residual = 0, Final residual = 0, No Iterations 0

// * * * * * * * * * * Coupling - done * * * * * * * * * * //

using voidfraction blend, tsf=1
Setting mixDiFeliceDrag force......
Setting mixDiFeliceDrag force - done

Setting Archimedes force......
Setting Archimedes force - done

// * * * * * * * * * * * * * * * Foam::cfdemCloudMix::evolve() - done * * * * * * * * * * * * * * * //

DICPCG:  Solving for vSmoothFieldx, Initial residual = 0.0283349, Final residual = 6.36309e-09, No Iterations 3
DICPCG:  Solving for vSmoothFieldy, Initial residual = 0.0283381, Final residual = 6.3638e-09, No Iterations 3
DICPCG:  Solving for vSmoothFieldz, Initial residual = 0.0283349, Final residual = 6.36309e-09, No Iterations 3
calculate total implicit force
  TotalForceImp:  (-8.99881e-18 -1.91849e-09 -8.96902e-18)
  Warning, these values are based on latest Ksl and Us but prev. iteration U!

DILUPBiCG:  Solving for Ux, Initial residual = 0.331914, Final residual = 4.09772e-07, No Iterations 2
DILUPBiCG:  Solving for Uy, Initial residual = 0.429329, Final residual = 2.08924e-07, No Iterations 2
DILUPBiCG:  Solving for Uz, Initial residual = 0.331914, Final residual = 4.09772e-07, No Iterations 2
DICPCG:  Solving for p, Initial residual = 0.318574, Final residual = 0.028856, No Iterations 4
time step continuity errors : sum local = 1.29006e-09, global = 9.47614e-12, cumulative = 5.24731e-12
DICPCG:  Solving for p, Initial residual = 0.0221986, Final residual = 0.00145245, No Iterations 13
time step continuity errors : sum local = 8.51167e-11, global = 2.85865e-12, cumulative = 8.10596e-12
DICPCG:  Solving for p, Initial residual = 0.00133208, Final residual = 6.68482e-05, No Iterations 4
time step continuity errors : sum local = 4.31423e-12, global = -1.1019e-13, cumulative = 7.99577e-12
DICPCG:  Solving for p, Initial residual = 6.86596e-05, Final residual = 5.22519e-07, No Iterations 15
time step continuity errors : sum local = 3.37201e-14, global = 1.31812e-15, cumulative = 7.99709e-12
ExecutionTime = 0.06 s  ClockTime = 0 s

Time = 0.003

Courant Number mean: 5.52189e-08 max: 1.40484e-06

// * * * * * * * * * * * * * * * Foam::cfdemCloudMix::evolve() * * * * * * * * * * * * * * * //


// * * * * * * * * * * Coupling * * * * * * * * * * //

number of particles = 1
Starting up LIGGGHTS
Executing command: 'run 100    '
run 100    
Setting up run at Fri Mar 20 13:10:36 2020

Memory usage per processor = 4.23805 Mbytes
    Step    Atoms         KinEng            rke         Volume 
     200        1  2.8277673e-13              0          0.001 
CFD Coupling established at step 300
     300        1  5.9528572e-13              0          0.001 
Loop time of 0.000500917 on 2 procs for 100 steps with 1 atoms, finish time Fri Mar 20 13:10:36 2020


Pair  time (%) = 6.77109e-05 (13.5174)
Neigh time (%) = 0 (0)
Comm  time (%) = 7.03335e-05 (14.0409)
Outpt time (%) = 2.25306e-05 (4.49786)
Other time (%) = 0.000340343 (67.9438)

Nlocal:    0.5 ave 1 max 0 min
Histogram: 1 0 0 0 0 0 0 0 0 1
Nghost:    0.5 ave 1 max 0 min
Histogram: 1 0 0 0 0 0 0 0 0 1
Neighs:    0 ave 0 max 0 min
Histogram: 2 0 0 0 0 0 0 0 0 0

Total # of neighbors = 0
Ave neighs/atom = 0
Neighbor list builds = 0
Dangerous builds = 0
couplingStep = 3
LIGGGHTS finished
Foam::cfdemCloud::setNumberOfClumps(int nC) ... do nothing
number of particles = 1
DICPCG:  Solving for sSmoothField, Initial residual = 0.0283381, Final residual = 5.70597e-09, No Iterations 3
DICPCG:  Solving for vSmoothFieldx, Initial residual = 5.83279e-07, Final residual = 5.64353e-11, No Iterations 2
DICPCG:  Solving for vSmoothFieldy, Initial residual = 5.83279e-07, Final residual = 5.64353e-11, No Iterations 2
DICPCG:  Solving for vSmoothFieldz, Initial residual = 5.83279e-07, Final residual = 5.64353e-11, No Iterations 2

// * * * * * * * * * * Coupling - done * * * * * * * * * * //

using voidfraction blend, tsf=1
Setting mixDiFeliceDrag force......
Setting mixDiFeliceDrag force - done

Setting Archimedes force......
Setting Archimedes force - done

// * * * * * * * * * * * * * * * Foam::cfdemCloudMix::evolve() - done * * * * * * * * * * * * * * * //

DICPCG:  Solving for vSmoothFieldx, Initial residual = 0.0283365, Final residual = 5.70565e-09, No Iterations 3
DICPCG:  Solving for vSmoothFieldy, Initial residual = 0.0283381, Final residual = 5.70597e-09, No Iterations 3
DICPCG:  Solving for vSmoothFieldz, Initial residual = 0.0283365, Final residual = 5.70565e-09, No Iterations 3
calculate total implicit force
  TotalForceImp:  (-2.0894e-17 -2.84501e-09 -2.08315e-17)
  Warning, these values are based on latest Ksl and Us but prev. iteration U!

DILUPBiCG:  Solving for Ux, Initial residual = 0.256765, Final residual = 3.20406e-07, No Iterations 2
DILUPBiCG:  Solving for Uy, Initial residual = 0.270556, Final residual = 1.45416e-07, No Iterations 2
DILUPBiCG:  Solving for Uz, Initial residual = 0.256765, Final residual = 3.20406e-07, No Iterations 2
DICPCG:  Solving for p, Initial residual = 0.208393, Final residual = 0.0123728, No Iterations 3
time step continuity errors : sum local = 1.00801e-09, global = -6.09045e-12, cumulative = 1.90664e-12
DICPCG:  Solving for p, Initial residual = 0.0102641, Final residual = 0.00091355, No Iterations 13
time step continuity errors : sum local = 9.00661e-11, global = -3.46675e-12, cumulative = -1.56011e-12
DICPCG:  Solving for p, Initial residual = 0.000897086, Final residual = 6.27946e-05, No Iterations 2
time step continuity errors : sum local = 6.34101e-12, global = 7.42424e-13, cumulative = -8.17683e-13
DICPCG:  Solving for p, Initial residual = 6.28452e-05, Final residual = 4.10113e-07, No Iterations 15
time step continuity errors : sum local = 4.1408e-14, global = 1.69793e-15, cumulative = -8.15985e-13
ExecutionTime = 0.07 s  ClockTime = 0 s

Time = 0.004

Courant Number mean: 1.03963e-07 max: 2.41221e-06

// * * * * * * * * * * * * * * * Foam::cfdemCloudMix::evolve() * * * * * * * * * * * * * * * //


// * * * * * * * * * * Coupling * * * * * * * * * * //

number of particles = 1
Starting up LIGGGHTS
Executing command: 'run 100    '
run 100    
Setting up run at Fri Mar 20 13:10:36 2020

Memory usage per processor = 4.23805 Mbytes
    Step    Atoms         KinEng            rke         Volume 
     300        1  5.9528572e-13              0          0.001 
CFD Coupling established at step 400
     400        1  9.8962117e-13              0          0.001 
Loop time of 0.000441074 on 2 procs for 100 steps with 1 atoms, finish time Fri Mar 20 13:10:36 2020


Pair  time (%) = 6.90222e-05 (15.6486)
Neigh time (%) = 0 (0)
Comm  time (%) = 6.48499e-05 (14.7027)
Outpt time (%) = 2.20537e-05 (5)
Other time (%) = 0.000285149 (64.6486)

Nlocal:    0.5 ave 1 max 0 min
Histogram: 1 0 0 0 0 0 0 0 0 1
Nghost:    0.5 ave 1 max 0 min
Histogram: 1 0 0 0 0 0 0 0 0 1
Neighs:    0 ave 0 max 0 min
Histogram: 2 0 0 0 0 0 0 0 0 0

Total # of neighbors = 0
Ave neighs/atom = 0
Neighbor list builds = 0
Dangerous builds = 0
couplingStep = 4
LIGGGHTS finished
Foam::cfdemCloud::setNumberOfClumps(int nC) ... do nothing
number of particles = 1
DICPCG:  Solving for sSmoothField, Initial residual = 0.0283381, Final residual = 5.70597e-09, No Iterations 3
DICPCG:  Solving for vSmoothFieldx, Initial residual = 5.83279e-07, Final residual = 5.64353e-11, No Iterations 2
DICPCG:  Solving for vSmoothFieldy, Initial residual = 5.83279e-07, Final residual = 5.64353e-11, No Iterations 2
DICPCG:  Solving for vSmoothFieldz, Initial residual = 5.83279e-07, Final residual = 5.64353e-11, No Iterations 2

// * * * * * * * * * * Coupling - done * * * * * * * * * * //

using voidfraction blend, tsf=1
Setting mixDiFeliceDrag force......
Setting mixDiFeliceDrag force - done

Setting Archimedes force......
Setting Archimedes force - done

// * * * * * * * * * * * * * * * Foam::cfdemCloudMix::evolve() - done * * * * * * * * * * * * * * * //

DICPCG:  Solving for vSmoothFieldx, Initial residual = 0.0283373, Final residual = 5.70581e-09, No Iterations 3
DICPCG:  Solving for vSmoothFieldy, Initial residual = 0.0283381, Final residual = 5.70597e-09, No Iterations 3
DICPCG:  Solving for vSmoothFieldz, Initial residual = 0.0283373, Final residual = 5.70581e-09, No Iterations 3
calculate total implicit force
  TotalForceImp:  (-3.43628e-17 -3.7321e-09 -3.42668e-17)
  Warning, these values are based on latest Ksl and Us but prev. iteration U!

DILUPBiCG:  Solving for Ux, Initial residual = 0.20669, Final residual = 2.5875e-07, No Iterations 2
DILUPBiCG:  Solving for Uy, Initial residual = 0.188999, Final residual = 1.04023e-07, No Iterations 2
DILUPBiCG:  Solving for Uz, Initial residual = 0.20669, Final residual = 2.5875e-07, No Iterations 2
DICPCG:  Solving for p, Initial residual = 0.149217, Final residual = 0.014165, No Iterations 2
time step continuity errors : sum local = 1.68101e-09, global = -3.87576e-12, cumulative = -4.69175e-12
DICPCG:  Solving for p, Initial residual = 0.0121653, Final residual = 0.000485024, No Iterations 14
time step continuity errors : sum local = 6.65474e-11, global = -2.12888e-13, cumulative = -4.90464e-12
DICPCG:  Solving for p, Initial residual = 0.000474418, Final residual = 3.0365e-05, No Iterations 3
time step continuity errors : sum local = 4.21222e-12, global = -3.25835e-13, cumulative = -5.23047e-12
DICPCG:  Solving for p, Initial residual = 3.04957e-05, Final residual = 9.45865e-07, No Iterations 13
time step continuity errors : sum local = 1.31194e-13, global = -1.90132e-16, cumulative = -5.23066e-12
ExecutionTime = 0.08 s  ClockTime = 0 s

Time = 0.005

Courant Number mean: 1.67585e-07 max: 3.7501e-06

// * * * * * * * * * * * * * * * Foam::cfdemCloudMix::evolve() * * * * * * * * * * * * * * * //


// * * * * * * * * * * Coupling * * * * * * * * * * //

number of particles = 1
Starting up LIGGGHTS
Executing command: 'run 100    '
run 100    
Setting up run at Fri Mar 20 13:10:36 2020

Memory usage per processor = 4.23805 Mbytes
    Step    Atoms         KinEng            rke         Volume 
     400        1  9.8962117e-13              0          0.001 
CFD Coupling established at step 500
     500        1  1.4453308e-12              0          0.001 
Loop time of 0.000428915 on 2 procs for 100 steps with 1 atoms, finish time Fri Mar 20 13:10:36 2020


Pair  time (%) = 6.30617e-05 (14.7026)
Neigh time (%) = 0 (0)
Comm  time (%) = 6.60419e-05 (15.3974)
Outpt time (%) = 1.89543e-05 (4.41912)
Other time (%) = 0.000280857 (65.4808)

Nlocal:    0.5 ave 1 max 0 min
Histogram: 1 0 0 0 0 0 0 0 0 1
Nghost:    0.5 ave 1 max 0 min
Histogram: 1 0 0 0 0 0 0 0 0 1
Neighs:    0 ave 0 max 0 min
Histogram: 2 0 0 0 0 0 0 0 0 0

Total # of neighbors = 0
Ave neighs/atom = 0
Neighbor list builds = 0
Dangerous builds = 0
couplingStep = 5
LIGGGHTS finished
Foam::cfdemCloud::setNumberOfClumps(int nC) ... do nothing
number of particles = 1
DICPCG:  Solving for sSmoothField, Initial residual = 0.0283381, Final residual = 5.70597e-09, No Iterations 3
DICPCG:  Solving for vSmoothFieldx, Initial residual = 5.83279e-07, Final residual = 5.64353e-11, No Iterations 2
DICPCG:  Solving for vSmoothFieldy, Initial residual = 5.83279e-07, Final residual = 5.64353e-11, No Iterations 2
DICPCG:  Solving for vSmoothFieldz, Initial residual = 5.83279e-07, Final residual = 5.64353e-11, No Iterations 2

// * * * * * * * * * * Coupling - done * * * * * * * * * * //

using voidfraction blend, tsf=1
Setting mixDiFeliceDrag force......
Setting mixDiFeliceDrag force - done

Setting Archimedes force......
Setting Archimedes force - done

// * * * * * * * * * * * * * * * Foam::cfdemCloudMix::evolve() - done * * * * * * * * * * * * * * * //

DICPCG:  Solving for vSmoothFieldx, Initial residual = 0.0283378, Final residual = 5.70592e-09, No Iterations 3
DICPCG:  Solving for vSmoothFieldy, Initial residual = 0.0283381, Final residual = 5.70597e-09, No Iterations 3
DICPCG:  Solving for vSmoothFieldz, Initial residual = 0.0283378, Final residual = 5.70592e-09, No Iterations 3
calculate total implicit force
  TotalForceImp:  (-3.91893e-17 -4.57488e-09 -3.90599e-17)
  Warning, these values are based on latest Ksl and Us but prev. iteration U!

DILUPBiCG:  Solving for Ux, Initial residual = 0.171873, Final residual = 2.15444e-07, No Iterations 2
DILUPBiCG:  Solving for Uy, Initial residual = 0.144592, Final residual = 8.3913e-08, No Iterations 2
DILUPBiCG:  Solving for Uz, Initial residual = 0.171873, Final residual = 2.15444e-07, No Iterations 2
DICPCG:  Solving for p, Initial residual = 0.116189, Final residual = 0.0108251, No Iterations 2
time step continuity errors : sum local = 1.6972e-09, global = -4.67188e-12, cumulative = -9.90254e-12
DICPCG:  Solving for p, Initial residual = 0.00958439, Final residual = 0.000390999, No Iterations 14
time step continuity errors : sum local = 6.87129e-11, global = -1.35185e-13, cumulative = -1.00377e-11
DICPCG:  Solving for p, Initial residual = 0.000383041, Final residual = 2.39173e-05, No Iterations 3
time step continuity errors : sum local = 4.24325e-12, global = -3.72528e-13, cumulative = -1.04103e-11
DICPCG:  Solving for p, Initial residual = 2.40544e-05, Final residual = 7.88501e-07, No Iterations 13
time step continuity errors : sum local = 1.39877e-13, global = 5.55055e-16, cumulative = -1.04097e-11
ExecutionTime = 0.09 s  ClockTime = 0 s

Time = 0.006

Courant Number mean: 2.4503e-07 max: 5.39298e-06

// * * * * * * * * * * * * * * * Foam::cfdemCloudMix::evolve() * * * * * * * * * * * * * * * //


// * * * * * * * * * * Coupling * * * * * * * * * * //

number of particles = 1
Starting up LIGGGHTS
Executing command: 'run 100    '
run 100    
Setting up run at Fri Mar 20 13:10:36 2020

Memory usage per processor = 4.23805 Mbytes
    Step    Atoms         KinEng            rke         Volume 
     500        1  1.4453308e-12              0          0.001 
CFD Coupling established at step 600
     600        1  1.9449214e-12              0          0.001 
Loop time of 0.000653505 on 2 procs for 100 steps with 1 atoms, finish time Fri Mar 20 13:10:36 2020


Pair  time (%) = 7.1764e-05 (10.9814)
Neigh time (%) = 0 (0)
Comm  time (%) = 9.59635e-05 (14.6844)
Outpt time (%) = 7.10487e-05 (10.8719)
Other time (%) = 0.000414729 (63.4622)

Nlocal:    0.5 ave 1 max 0 min
Histogram: 1 0 0 0 0 0 0 0 0 1
Nghost:    0.5 ave 1 max 0 min
Histogram: 1 0 0 0 0 0 0 0 0 1
Neighs:    0 ave 0 max 0 min
Histogram: 2 0 0 0 0 0 0 0 0 0

Total # of neighbors = 0
Ave neighs/atom = 0
Neighbor list builds = 0
Dangerous builds = 0
couplingStep = 6
LIGGGHTS finished
Foam::cfdemCloud::setNumberOfClumps(int nC) ... do nothing
number of particles = 1
DICPCG:  Solving for sSmoothField, Initial residual = 0.0283381, Final residual = 5.70597e-09, No Iterations 3
DICPCG:  Solving for vSmoothFieldx, Initial residual = 5.83279e-07, Final residual = 5.64353e-11, No Iterations 2
DICPCG:  Solving for vSmoothFieldy, Initial residual = 5.83279e-07, Final residual = 5.64353e-11, No Iterations 2
DICPCG:  Solving for vSmoothFieldz, Initial residual = 5.83279e-07, Final residual = 5.64353e-11, No Iterations 2

// * * * * * * * * * * Coupling - done * * * * * * * * * * //

using voidfraction blend, tsf=1
Setting mixDiFeliceDrag force......
Setting mixDiFeliceDrag force - done

Setting Archimedes force......
Setting Archimedes force - done

// * * * * * * * * * * * * * * * Foam::cfdemCloudMix::evolve() - done * * * * * * * * * * * * * * * //

DICPCG:  Solving for vSmoothFieldx, Initial residual = 0.028338, Final residual = 5.70595e-09, No Iterations 3
DICPCG:  Solving for vSmoothFieldy, Initial residual = 0.0283381, Final residual = 5.70597e-09, No Iterations 3
DICPCG:  Solving for vSmoothFieldz, Initial residual = 0.028338, Final residual = 5.70595e-09, No Iterations 3
calculate total implicit force
  TotalForceImp:  (-3.86416e-17 -5.37113e-09 -3.84784e-17)
  Warning, these values are based on latest Ksl and Us but prev. iteration U!

DILUPBiCG:  Solving for Ux, Initial residual = 0.147184, Final residual = 1.84608e-07, No Iterations 2
DILUPBiCG:  Solving for Uy, Initial residual = 0.116496, Final residual = 7.11326e-08, No Iterations 2
DILUPBiCG:  Solving for Uz, Initial residual = 0.147184, Final residual = 1.84608e-07, No Iterations 2
DICPCG:  Solving for p, Initial residual = 0.0941567, Final residual = 0.00795743, No Iterations 2
time step continuity errors : sum local = 1.55761e-09, global = -5.40993e-12, cumulative = -1.58196e-11
DICPCG:  Solving for p, Initial residual = 0.00719402, Final residual = 0.000623273, No Iterations 6
time step continuity errors : sum local = 1.33881e-10, global = 6.04667e-11, cumulative = 4.46471e-11
DICPCG:  Solving for p, Initial residual = 0.000624452, Final residual = 3.82608e-05, No Iterations 13
time step continuity errors : sum local = 8.18743e-12, global = 2.11111e-13, cumulative = 4.48582e-11
DICPCG:  Solving for p, Initial residual = 3.9169e-05, Final residual = 3.81093e-07, No Iterations 15
time step continuity errors : sum local = 8.22118e-14, global = 1.40222e-15, cumulative = 4.48596e-11
ExecutionTime = 0.1 s  ClockTime = 0 s

Time = 0.007

Courant Number mean: 3.35429e-07 max: 7.3214e-06

// * * * * * * * * * * * * * * * Foam::cfdemCloudMix::evolve() * * * * * * * * * * * * * * * //


// * * * * * * * * * * Coupling * * * * * * * * * * //

number of particles = 1
Starting up LIGGGHTS
Executing command: 'run 100    '
run 100    
Setting up run at Fri Mar 20 13:10:36 2020

Memory usage per processor = 4.23805 Mbytes
    Step    Atoms         KinEng            rke         Volume 
     600        1  1.9449214e-12              0          0.001 
CFD Coupling established at step 700
     700        1  2.4736447e-12              0          0.001 
Loop time of 0.000432014 on 2 procs for 100 steps with 1 atoms, finish time Fri Mar 20 13:10:36 2020


Pair  time (%) = 7.236e-05 (16.7494)
Neigh time (%) = 0 (0)
Comm  time (%) = 7.59363e-05 (17.5773)
Outpt time (%) = 2.5034e-05 (5.7947)
Other time (%) = 0.000258684 (59.8786)

Nlocal:    0.5 ave 1 max 0 min
Histogram: 1 0 0 0 0 0 0 0 0 1
Nghost:    0.5 ave 1 max 0 min
Histogram: 1 0 0 0 0 0 0 0 0 1
Neighs:    0 ave 0 max 0 min
Histogram: 2 0 0 0 0 0 0 0 0 0

Total # of neighbors = 0
Ave neighs/atom = 0
Neighbor list builds = 0
Dangerous builds = 0
couplingStep = 7
LIGGGHTS finished
Foam::cfdemCloud::setNumberOfClumps(int nC) ... do nothing
number of particles = 1
DICPCG:  Solving for sSmoothField, Initial residual = 0.0283381, Final residual = 5.70723e-09, No Iterations 3
DICPCG:  Solving for vSmoothFieldx, Initial residual = 5.83279e-07, Final residual = 5.64353e-11, No Iterations 2
DICPCG:  Solving for vSmoothFieldy, Initial residual = 5.83279e-07, Final residual = 5.64353e-11, No Iterations 2
DICPCG:  Solving for vSmoothFieldz, Initial residual = 5.83279e-07, Final residual = 5.64353e-11, No Iterations 2

// * * * * * * * * * * Coupling - done * * * * * * * * * * //

using voidfraction blend, tsf=1
Setting mixDiFeliceDrag force......
Setting mixDiFeliceDrag force - done

Setting Archimedes force......
Setting Archimedes force - done

// * * * * * * * * * * * * * * * Foam::cfdemCloudMix::evolve() - done * * * * * * * * * * * * * * * //

DICPCG:  Solving for vSmoothFieldx, Initial residual = 0.028338, Final residual = 5.70721e-09, No Iterations 3
DICPCG:  Solving for vSmoothFieldy, Initial residual = 0.0283381, Final residual = 5.70723e-09, No Iterations 3
DICPCG:  Solving for vSmoothFieldz, Initial residual = 0.028338, Final residual = 5.70721e-09, No Iterations 3
calculate total implicit force
  TotalForceImp:  (7.85977e-18 -6.12413e-09 8.05685e-18)
  Warning, these values are based on latest Ksl and Us but prev. iteration U!

DILUPBiCG:  Solving for Ux, Initial residual = 0.128329, Final residual = 1.61024e-07, No Iterations 2
DILUPBiCG:  Solving for Uy, Initial residual = 0.0967483, Final residual = 6.13141e-08, No Iterations 2
DILUPBiCG:  Solving for Uz, Initial residual = 0.128329, Final residual = 1.61024e-07, No Iterations 2
DICPCG:  Solving for p, Initial residual = 0.151603, Final residual = 0.00627085, No Iterations 3
time step continuity errors : sum local = 1.46901e-09, global = -2.0323e-12, cumulative = 4.28273e-11
DICPCG:  Solving for p, Initial residual = 0.00589841, Final residual = 0.000520072, No Iterations 4
time step continuity errors : sum local = 1.31577e-10, global = 7.97403e-12, cumulative = 5.08013e-11
DICPCG:  Solving for p, Initial residual = 0.000517241, Final residual = 3.73558e-05, No Iterations 13
time step continuity errors : sum local = 9.43472e-12, global = -4.02207e-13, cumulative = 5.03991e-11
DICPCG:  Solving for p, Initial residual = 3.75181e-05, Final residual = 8.26723e-07, No Iterations 8
time step continuity errors : sum local = 2.09435e-13, global = -8.39962e-14, cumulative = 5.03151e-11
ExecutionTime = 0.11 s  ClockTime = 0 s

Time = 0.008

Courant Number mean: 4.20138e-07 max: 7.72199e-06

// * * * * * * * * * * * * * * * Foam::cfdemCloudMix::evolve() * * * * * * * * * * * * * * * //


// * * * * * * * * * * Coupling * * * * * * * * * * //

number of particles = 1
Starting up LIGGGHTS
Executing command: 'run 100    '
run 100    
Setting up run at Fri Mar 20 13:10:36 2020

Memory usage per processor = 4.23805 Mbytes
    Step    Atoms         KinEng            rke         Volume 
     700        1  2.4736447e-12              0          0.001 
CFD Coupling established at step 800
     800        1  3.0189965e-12              0          0.001 
Loop time of 0.000433922 on 2 procs for 100 steps with 1 atoms, finish time Fri Mar 20 13:10:36 2020


Pair  time (%) = 7.18832e-05 (16.5659)
Neigh time (%) = 0 (0)
Comm  time (%) = 6.52075e-05 (15.0275)
Outpt time (%) = 2.59876e-05 (5.98901)
Other time (%) = 0.000270844 (62.4176)

Nlocal:    0.5 ave 1 max 0 min
Histogram: 1 0 0 0 0 0 0 0 0 1
Nghost:    0.5 ave 1 max 0 min
Histogram: 1 0 0 0 0 0 0 0 0 1
Neighs:    0 ave 0 max 0 min
Histogram: 2 0 0 0 0 0 0 0 0 0

Total # of neighbors = 0
Ave neighs/atom = 0
Neighbor list builds = 0
Dangerous builds = 0
couplingStep = 8
LIGGGHTS finished
Foam::cfdemCloud::setNumberOfClumps(int nC) ... do nothing
number of particles = 1
DICPCG:  Solving for sSmoothField, Initial residual = 0.0283381, Final residual = 5.70723e-09, No Iterations 3
DICPCG:  Solving for vSmoothFieldx, Initial residual = 5.83279e-07, Final residual = 5.64353e-11, No Iterations 2
DICPCG:  Solving for vSmoothFieldy, Initial residual = 5.83279e-07, Final residual = 5.64353e-11, No Iterations 2
DICPCG:  Solving for vSmoothFieldz, Initial residual = 5.83279e-07, Final residual = 5.64353e-11, No Iterations 2

// * * * * * * * * * * Coupling - done * * * * * * * * * * //

using voidfraction blend, tsf=1
Setting mixDiFeliceDrag force......
Setting mixDiFeliceDrag force - done

Setting Archimedes force......
Setting Archimedes force - done

// * * * * * * * * * * * * * * * Foam::cfdemCloudMix::evolve() - done * * * * * * * * * * * * * * * //

DICPCG:  Solving for vSmoothFieldx, Initial residual = 0.0283381, Final residual = 5.70722e-09, No Iterations 3
DICPCG:  Solving for vSmoothFieldy, Initial residual = 0.0283381, Final residual = 5.70723e-09, No Iterations 3
DICPCG:  Solving for vSmoothFieldz, Initial residual = 0.0283381, Final residual = 5.70722e-09, No Iterations 3
calculate total implicit force
  TotalForceImp:  (-3.99114e-19 -6.82604e-09 -1.71791e-19)
  Warning, these values are based on latest Ksl and Us but prev. iteration U!

DILUPBiCG:  Solving for Ux, Initial residual = 0.116791, Final residual = 1.45786e-07, No Iterations 2
DILUPBiCG:  Solving for Uy, Initial residual = 0.0851856, Final residual = 6.15431e-08, No Iterations 2
DILUPBiCG:  Solving for Uz, Initial residual = 0.116791, Final residual = 1.45786e-07, No Iterations 2
DICPCG:  Solving for p, Initial residual = 0.0905919, Final residual = 0.00550118, No Iterations 2
time step continuity errors : sum local = 1.48621e-09, global = -6.24307e-12, cumulative = 4.4072e-11
DICPCG:  Solving for p, Initial residual = 0.00514519, Final residual = 0.000350207, No Iterations 5
time step continuity errors : sum local = 1.00709e-10, global = 8.81522e-12, cumulative = 5.28873e-11
DICPCG:  Solving for p, Initial residual = 0.000355864, Final residual = 3.32023e-05, No Iterations 11
time step continuity errors : sum local = 9.52268e-12, global = -6.45267e-14, cumulative = 5.28227e-11
DICPCG:  Solving for p, Initial residual = 3.29106e-05, Final residual = 7.60426e-07, No Iterations 7
time step continuity errors : sum local = 2.18599e-13, global = -5.364e-14, cumulative = 5.27691e-11
ExecutionTime = 0.13 s  ClockTime = 0 s

Time = 0.009

Courant Number mean: 5.31521e-07 max: 8.28167e-06

// * * * * * * * * * * * * * * * Foam::cfdemCloudMix::evolve() * * * * * * * * * * * * * * * //


// * * * * * * * * * * Coupling * * * * * * * * * * //

number of particles = 1
Starting up LIGGGHTS
Executing command: 'run 100    '
run 100    
Setting up run at Fri Mar 20 13:10:36 2020

Memory usage per processor = 4.23805 Mbytes
    Step    Atoms         KinEng            rke         Volume 
     800        1  3.0189965e-12              0          0.001 
CFD Coupling established at step 900
     900        1   3.571137e-12              0          0.001 
Loop time of 0.000442386 on 2 procs for 100 steps with 1 atoms, finish time Fri Mar 20 13:10:36 2020


Pair  time (%) = 7.72476e-05 (17.4616)
Neigh time (%) = 0 (0)
Comm  time (%) = 6.86646e-05 (15.5214)
Outpt time (%) = 2.74181e-05 (6.19779)
Other time (%) = 0.000269055 (60.8192)

Nlocal:    0.5 ave 1 max 0 min
Histogram: 1 0 0 0 0 0 0 0 0 1
Nghost:    0.5 ave 1 max 0 min
Histogram: 1 0 0 0 0 0 0 0 0 1
Neighs:    0 ave 0 max 0 min
Histogram: 2 0 0 0 0 0 0 0 0 0

Total # of neighbors = 0
Ave neighs/atom = 0
Neighbor list builds = 0
Dangerous builds = 0
couplingStep = 9
LIGGGHTS finished
Foam::cfdemCloud::setNumberOfClumps(int nC) ... do nothing
number of particles = 1
DICPCG:  Solving for sSmoothField, Initial residual = 0.0283381, Final residual = 5.70723e-09, No Iterations 3
DICPCG:  Solving for vSmoothFieldx, Initial residual = 5.83279e-07, Final residual = 5.64353e-11, No Iterations 2
DICPCG:  Solving for vSmoothFieldy, Initial residual = 5.83279e-07, Final residual = 5.64353e-11, No Iterations 2
DICPCG:  Solving for vSmoothFieldz, Initial residual = 5.83279e-07, Final residual = 5.64353e-11, No Iterations 2

// * * * * * * * * * * Coupling - done * * * * * * * * * * //

using voidfraction blend, tsf=1
Setting mixDiFeliceDrag force......
Setting mixDiFeliceDrag force - done

Setting Archimedes force......
Setting Archimedes force - done

// * * * * * * * * * * * * * * * Foam::cfdemCloudMix::evolve() - done * * * * * * * * * * * * * * * //

DICPCG:  Solving for vSmoothFieldx, Initial residual = 0.0283381, Final residual = 5.70722e-09, No Iterations 3
DICPCG:  Solving for vSmoothFieldy, Initial residual = 0.0283381, Final residual = 5.70723e-09, No Iterations 3
DICPCG:  Solving for vSmoothFieldz, Initial residual = 0.0283381, Final residual = 5.70722e-09, No Iterations 3
calculate total implicit force
  TotalForceImp:  (-5.95236e-18 -7.48217e-09 -5.6976e-18)
  Warning, these values are based on latest Ksl and Us but prev. iteration U!

DILUPBiCG:  Solving for Ux, Initial residual = 0.101104, Final residual = 1.26747e-07, No Iterations 2
DILUPBiCG:  Solving for Uy, Initial residual = 0.072054, Final residual = 5.02816e-08, No Iterations 2
DILUPBiCG:  Solving for Uz, Initial residual = 0.101104, Final residual = 1.26747e-07, No Iterations 2
DICPCG:  Solving for p, Initial residual = 0.0719666, Final residual = 0.00448038, No Iterations 2
time step continuity errors : sum local = 1.36595e-09, global = -6.11822e-12, cumulative = 4.66509e-11
DICPCG:  Solving for p, Initial residual = 0.00418861, Final residual = 0.000386951, No Iterations 5
time step continuity errors : sum local = 1.24913e-10, global = 2.16992e-11, cumulative = 6.83501e-11
DICPCG:  Solving for p, Initial residual = 0.000388965, Final residual = 3.20758e-05, No Iterations 13
time step continuity errors : sum local = 1.03311e-11, global = 1.3545e-13, cumulative = 6.84856e-11
DICPCG:  Solving for p, Initial residual = 3.25857e-05, Final residual = 9.8177e-07, No Iterations 9
time step continuity errors : sum local = 3.1736e-13, global = -1.09605e-13, cumulative = 6.8376e-11
ExecutionTime = 0.14 s  ClockTime = 0 s

Time = 0.01

Courant Number mean: 6.55197e-07 max: 9.30396e-06

// * * * * * * * * * * * * * * * Foam::cfdemCloudMix::evolve() * * * * * * * * * * * * * * * //


// * * * * * * * * * * Coupling * * * * * * * * * * //

number of particles = 1
Starting up LIGGGHTS
Executing command: 'run 100    '
run 100    
Setting up run at Fri Mar 20 13:10:36 2020

Memory usage per processor = 4.23805 Mbytes
    Step    Atoms         KinEng            rke         Volume 
     900        1   3.571137e-12              0          0.001 
CFD Coupling established at step 1000
    1000        1  4.1219415e-12              0          0.001 
Loop time of 0.000470638 on 2 procs for 100 steps with 1 atoms, finish time Fri Mar 20 13:10:36 2020


Pair  time (%) = 7.49826e-05 (15.9321)
Neigh time (%) = 0 (0)
Comm  time (%) = 6.91414e-05 (14.691)
Outpt time (%) = 6.04391e-05 (12.8419)
Other time (%) = 0.000266075 (56.535)

Nlocal:    0.5 ave 1 max 0 min
Histogram: 1 0 0 0 0 0 0 0 0 1
Nghost:    0.5 ave 1 max 0 min
Histogram: 1 0 0 0 0 0 0 0 0 1
Neighs:    0 ave 0 max 0 min
Histogram: 2 0 0 0 0 0 0 0 0 0

Total # of neighbors = 0
Ave neighs/atom = 0
Neighbor list builds = 0
Dangerous builds = 0
couplingStep = 10
Executing command: 'write_restart ../DEM/post/restart/liggghts.restartCFDEM'
write_restart ../DEM/post/restart/liggghts.restartCFDEM
System init for write_restart ...
LIGGGHTS finished
Foam::cfdemCloud::setNumberOfClumps(int nC) ... do nothing
number of particles = 1
DICPCG:  Solving for sSmoothField, Initial residual = 0.0283381, Final residual = 5.70597e-09, No Iterations 3
DICPCG:  Solving for vSmoothFieldx, Initial residual = 5.83279e-07, Final residual = 5.64353e-11, No Iterations 2
DICPCG:  Solving for vSmoothFieldy, Initial residual = 5.83279e-07, Final residual = 5.64353e-11, No Iterations 2
DICPCG:  Solving for vSmoothFieldz, Initial residual = 5.83279e-07, Final residual = 5.64353e-11, No Iterations 2

// * * * * * * * * * * Coupling - done * * * * * * * * * * //

using voidfraction blend, tsf=1
Setting mixDiFeliceDrag force......
Setting mixDiFeliceDrag force - done

Setting Archimedes force......
Setting Archimedes force - done

// * * * * * * * * * * * * * * * Foam::cfdemCloudMix::evolve() - done * * * * * * * * * * * * * * * //

DICPCG:  Solving for vSmoothFieldx, Initial residual = 0.0283381, Final residual = 5.70597e-09, No Iterations 3
DICPCG:  Solving for vSmoothFieldy, Initial residual = 0.0283381, Final residual = 5.70597e-09, No Iterations 3
DICPCG:  Solving for vSmoothFieldz, Initial residual = 0.0283381, Final residual = 5.70597e-09, No Iterations 3
calculate total implicit force
  TotalForceImp:  (-9.17448e-17 -8.09427e-09 -9.14627e-17)
  Warning, these values are based on latest Ksl and Us but prev. iteration U!

DILUPBiCG:  Solving for Ux, Initial residual = 0.0909704, Final residual = 1.14158e-07, No Iterations 2
DILUPBiCG:  Solving for Uy, Initial residual = 0.0635892, Final residual = 4.49922e-08, No Iterations 2
DILUPBiCG:  Solving for Uz, Initial residual = 0.0909704, Final residual = 1.14158e-07, No Iterations 2
DICPCG:  Solving for p, Initial residual = 0.131243, Final residual = 0.00618416, No Iterations 3
time step continuity errors : sum local = 2.10666e-09, global = -3.16773e-11, cumulative = 3.66986e-11
DICPCG:  Solving for p, Initial residual = 0.00590508, Final residual = 0.000587571, No Iterations 4
time step continuity errors : sum local = 2.1084e-10, global = -2.9547e-11, cumulative = 7.15166e-12
DICPCG:  Solving for p, Initial residual = 0.000588435, Final residual = 3.29352e-05, No Iterations 5
time step continuity errors : sum local = 1.179e-11, global = -6.82035e-12, cumulative = 3.31303e-13
DICPCG:  Solving for p, Initial residual = 3.30089e-05, Final residual = 4.91581e-07, No Iterations 14
time step continuity errors : sum local = 1.75919e-13, global = 7.19301e-15, cumulative = 3.38496e-13
ExecutionTime = 0.16 s  ClockTime = 0 s

Time = 0.011

Courant Number mean: 7.78233e-07 max: 1.20572e-05

// * * * * * * * * * * * * * * * Foam::cfdemCloudMix::evolve() * * * * * * * * * * * * * * * //


// * * * * * * * * * * Coupling * * * * * * * * * * //

number of particles = 1
Starting up LIGGGHTS
Executing command: 'run 100    '
run 100    
Setting up run at Fri Mar 20 13:10:36 2020

Memory usage per processor = 4.23811 Mbytes
    Step    Atoms         KinEng            rke         Volume 
    1000        1  4.1219415e-12              0          0.001 
CFD Coupling established at step 1100
    1100        1  4.6649276e-12              0          0.001 
Loop time of 0.000438571 on 2 procs for 100 steps with 1 atoms, finish time Fri Mar 20 13:10:36 2020


Pair  time (%) = 5.67436e-05 (12.9383)
Neigh time (%) = 0 (0)
Comm  time (%) = 5.32866e-05 (12.15)
Outpt time (%) = 1.90735e-05 (4.34901)
Other time (%) = 0.000309467 (70.5627)

Nlocal:    0.5 ave 1 max 0 min
Histogram: 1 0 0 0 0 0 0 0 0 1
Nghost:    0.5 ave 1 max 0 min
Histogram: 1 0 0 0 0 0 0 0 0 1
Neighs:    0 ave 0 max 0 min
Histogram: 2 0 0 0 0 0 0 0 0 0

Total # of neighbors = 0
Ave neighs/atom = 0
Neighbor list builds = 0
Dangerous builds = 0
couplingStep = 11
Executing command: 'write_restart ../DEM/post/restart/liggghts.restartCFDEM'
write_restart ../DEM/post/restart/liggghts.restartCFDEM
System init for write_restart ...
LIGGGHTS finished
Foam::cfdemCloud::setNumberOfClumps(int nC) ... do nothing
number of particles = 1
DICPCG:  Solving for sSmoothField, Initial residual = 0.0283381, Final residual = 5.70597e-09, No Iterations 3
DICPCG:  Solving for vSmoothFieldx, Initial residual = 5.83279e-07, Final residual = 5.64353e-11, No Iterations 2
DICPCG:  Solving for vSmoothFieldy, Initial residual = 5.83279e-07, Final residual = 5.64353e-11, No Iterations 2
DICPCG:  Solving for vSmoothFieldz, Initial residual = 5.83279e-07, Final residual = 5.64353e-11, No Iterations 2

// * * * * * * * * * * Coupling - done * * * * * * * * * * //

using voidfraction blend, tsf=1
Setting mixDiFeliceDrag force......
Setting mixDiFeliceDrag force - done

Setting Archimedes force......
Setting Archimedes force - done

// * * * * * * * * * * * * * * * Foam::cfdemCloudMix::evolve() - done * * * * * * * * * * * * * * * //

DICPCG:  Solving for vSmoothFieldx, Initial residual = 0.0283381, Final residual = 5.70597e-09, No Iterations 3
DICPCG:  Solving for vSmoothFieldy, Initial residual = 0.0283381, Final residual = 5.70597e-09, No Iterations 3
DICPCG:  Solving for vSmoothFieldz, Initial residual = 0.0283381, Final residual = 5.70597e-09, No Iterations 3
calculate total implicit force
  TotalForceImp:  (-9.38726e-17 -8.66351e-09 -9.35529e-17)
  Warning, these values are based on latest Ksl and Us but prev. iteration U!

DILUPBiCG:  Solving for Ux, Initial residual = 0.0839028, Final residual = 1.05165e-07, No Iterations 2
DILUPBiCG:  Solving for Uy, Initial residual = 0.0566504, Final residual = 4.2348e-08, No Iterations 2
DILUPBiCG:  Solving for Uz, Initial residual = 0.0839028, Final residual = 1.05165e-07, No Iterations 2
DICPCG:  Solving for p, Initial residual = 0.0733974, Final residual = 0.00405668, No Iterations 2
time step continuity errors : sum local = 1.51678e-09, global = -9.1183e-12, cumulative = -8.77981e-12
DICPCG:  Solving for p, Initial residual = 0.00386388, Final residual = 0.000327523, No Iterations 4
time step continuity errors : sum local = 1.27873e-10, global = -2.34106e-11, cumulative = -3.21904e-11
DICPCG:  Solving for p, Initial residual = 0.00032903, Final residual = 3.22374e-05, No Iterations 13
time step continuity errors : sum local = 1.25716e-11, global = -2.74618e-13, cumulative = -3.2465e-11
DICPCG:  Solving for p, Initial residual = 3.22732e-05, Final residual = 8.45428e-07, No Iterations 5
time step continuity errors : sum local = 3.29206e-13, global = -1.12686e-13, cumulative = -3.25777e-11
ExecutionTime = 0.17 s  ClockTime = 0 s

Time = 0.012

Courant Number mean: 9.17915e-07 max: 1.52871e-05

// * * * * * * * * * * * * * * * Foam::cfdemCloudMix::evolve() * * * * * * * * * * * * * * * //


// * * * * * * * * * * Coupling * * * * * * * * * * //

number of particles = 1
Starting up LIGGGHTS
Executing command: 'run 100    '
run 100    
Setting up run at Fri Mar 20 13:10:36 2020

Memory usage per processor = 4.23811 Mbytes
    Step    Atoms         KinEng            rke         Volume 
    1100        1  4.6649276e-12              0          0.001 
CFD Coupling established at step 1200
    1200        1  5.1950893e-12              0          0.001 
Loop time of 0.000418425 on 2 procs for 100 steps with 1 atoms, finish time Fri Mar 20 13:10:36 2020


Pair  time (%) = 6.04391e-05 (14.4444)
Neigh time (%) = 0 (0)
Comm  time (%) = 4.81606e-05 (11.51)
Outpt time (%) = 1.89543e-05 (4.52991)
Other time (%) = 0.000290871 (69.5157)

Nlocal:    0.5 ave 1 max 0 min
Histogram: 1 0 0 0 0 0 0 0 0 1
Nghost:    0.5 ave 1 max 0 min
Histogram: 1 0 0 0 0 0 0 0 0 1
Neighs:    0 ave 0 max 0 min
Histogram: 2 0 0 0 0 0 0 0 0 0

Total # of neighbors = 0
Ave neighs/atom = 0
Neighbor list builds = 0
Dangerous builds = 0
couplingStep = 12
Executing command: 'write_restart ../DEM/post/restart/liggghts.restartCFDEM'
write_restart ../DEM/post/restart/liggghts.restartCFDEM
System init for write_restart ...
LIGGGHTS finished
Foam::cfdemCloud::setNumberOfClumps(int nC) ... do nothing
number of particles = 1
DICPCG:  Solving for sSmoothField, Initial residual = 0.0283381, Final residual = 5.70723e-09, No Iterations 3
DICPCG:  Solving for vSmoothFieldx, Initial residual = 5.83279e-07, Final residual = 5.64353e-11, No Iterations 2
DICPCG:  Solving for vSmoothFieldy, Initial residual = 5.83279e-07, Final residual = 5.64353e-11, No Iterations 2
DICPCG:  Solving for vSmoothFieldz, Initial residual = 5.83279e-07, Final residual = 5.64353e-11, No Iterations 2

// * * * * * * * * * * Coupling - done * * * * * * * * * * //

using voidfraction blend, tsf=1
Setting mixDiFeliceDrag force......
Setting mixDiFeliceDrag force - done

Setting Archimedes force......
Setting Archimedes force - done

// * * * * * * * * * * * * * * * Foam::cfdemCloudMix::evolve() - done * * * * * * * * * * * * * * * //

DICPCG:  Solving for vSmoothFieldx, Initial residual = 0.0283381, Final residual = 5.70723e-09, No Iterations 3
DICPCG:  Solving for vSmoothFieldy, Initial residual = 0.0283381, Final residual = 5.70723e-09, No Iterations 3
DICPCG:  Solving for vSmoothFieldz, Initial residual = 0.0283381, Final residual = 5.70723e-09, No Iterations 3
calculate total implicit force
  TotalForceImp:  (2.53464e-17 -9.19545e-09 2.57012e-17)
  Warning, these values are based on latest Ksl and Us but prev. iteration U!

DILUPBiCG:  Solving for Ux, Initial residual = 0.075433, Final residual = 9.48203e-08, No Iterations 2
DILUPBiCG:  Solving for Uy, Initial residual = 0.0506866, Final residual = 3.70661e-08, No Iterations 2
DILUPBiCG:  Solving for Uz, Initial residual = 0.075433, Final residual = 9.48203e-08, No Iterations 2
DICPCG:  Solving for p, Initial residual = 0.120605, Final residual = 0.00528901, No Iterations 3
time step continuity errors : sum local = 2.14336e-09, global = 8.46957e-12, cumulative = -2.41081e-11
DICPCG:  Solving for p, Initial residual = 0.0051714, Final residual = 0.000319822, No Iterations 3
time step continuity errors : sum local = 1.34744e-10, global = 2.21085e-11, cumulative = -1.99969e-12
DICPCG:  Solving for p, Initial residual = 0.00032383, Final residual = 1.90995e-05, No Iterations 13
time step continuity errors : sum local = 8.03802e-12, global = 7.63132e-13, cumulative = -1.23656e-12
DICPCG:  Solving for p, Initial residual = 1.9279e-05, Final residual = 9.28394e-07, No Iterations 6
time step continuity errors : sum local = 3.9137e-13, global = -1.42958e-13, cumulative = -1.37951e-12
ExecutionTime = 0.18 s  ClockTime = 0 s

Time = 0.013

Courant Number mean: 1.06434e-06 max: 1.59481e-05

// * * * * * * * * * * * * * * * Foam::cfdemCloudMix::evolve() * * * * * * * * * * * * * * * //


// * * * * * * * * * * Coupling * * * * * * * * * * //

number of particles = 1
Starting up LIGGGHTS
Executing command: 'run 100    '
run 100    
Setting up run at Fri Mar 20 13:10:36 2020

Memory usage per processor = 4.23811 Mbytes
    Step    Atoms         KinEng            rke         Volume 
    1200        1  5.1950893e-12              0          0.001 
CFD Coupling established at step 1300
    1300        1  5.7083293e-12              0          0.001 
Loop time of 0.00063765 on 2 procs for 100 steps with 1 atoms, finish time Fri Mar 20 13:10:36 2020


Pair  time (%) = 8.29697e-05 (13.0118)
Neigh time (%) = 0 (0)
Comm  time (%) = 8.10623e-05 (12.7127)
Outpt time (%) = 2.44379e-05 (3.83249)
Other time (%) = 0.000449181 (70.4431)

Nlocal:    0.5 ave 1 max 0 min
Histogram: 1 0 0 0 0 0 0 0 0 1
Nghost:    0.5 ave 1 max 0 min
Histogram: 1 0 0 0 0 0 0 0 0 1
Neighs:    0 ave 0 max 0 min
Histogram: 2 0 0 0 0 0 0 0 0 0

Total # of neighbors = 0
Ave neighs/atom = 0
Neighbor list builds = 0
Dangerous builds = 0
couplingStep = 13
Executing command: 'write_restart ../DEM/post/restart/liggghts.restartCFDEM'
write_restart ../DEM/post/restart/liggghts.restartCFDEM
System init for write_restart ...
LIGGGHTS finished
Foam::cfdemCloud::setNumberOfClumps(int nC) ... do nothing
number of particles = 1
DICPCG:  Solving for sSmoothField, Initial residual = 0.0283381, Final residual = 5.70723e-09, No Iterations 3
DICPCG:  Solving for vSmoothFieldx, Initial residual = 5.83279e-07, Final residual = 5.64353e-11, No Iterations 2
DICPCG:  Solving for vSmoothFieldy, Initial residual = 5.83279e-07, Final residual = 5.64353e-11, No Iterations 2
DICPCG:  Solving for vSmoothFieldz, Initial residual = 5.83279e-07, Final residual = 5.64353e-11, No Iterations 2

// * * * * * * * * * * Coupling - done * * * * * * * * * * //

using voidfraction blend, tsf=1
Setting mixDiFeliceDrag force......
Setting mixDiFeliceDrag force - done

Setting Archimedes force......
Setting Archimedes force - done

// * * * * * * * * * * * * * * * Foam::cfdemCloudMix::evolve() - done * * * * * * * * * * * * * * * //

DICPCG:  Solving for vSmoothFieldx, Initial residual = 0.0283381, Final residual = 5.70723e-09, No Iterations 3
DICPCG:  Solving for vSmoothFieldy, Initial residual = 0.0283381, Final residual = 5.70723e-09, No Iterations 3
DICPCG:  Solving for vSmoothFieldz, Initial residual = 0.0283381, Final residual = 5.70723e-09, No Iterations 3
calculate total implicit force
  TotalForceImp:  (3.78167e-17 -9.68539e-09 3.81962e-17)
  Warning, these values are based on latest Ksl and Us but prev. iteration U!

DILUPBiCG:  Solving for Ux, Initial residual = 0.0701231, Final residual = 8.79829e-08, No Iterations 2
DILUPBiCG:  Solving for Uy, Initial residual = 0.0454978, Final residual = 3.48779e-08, No Iterations 2
DILUPBiCG:  Solving for Uz, Initial residual = 0.0701231, Final residual = 8.79829e-08, No Iterations 2
DICPCG:  Solving for p, Initial residual = 0.0601612, Final residual = 0.00322688, No Iterations 2
time step continuity errors : sum local = 1.40919e-09, global = -7.11735e-12, cumulative = -8.49687e-12
DICPCG:  Solving for p, Initial residual = 0.00310219, Final residual = 0.000202732, No Iterations 5
time step continuity errors : sum local = 9.16969e-11, global = 3.80241e-12, cumulative = -4.69445e-12
DICPCG:  Solving for p, Initial residual = 0.000204353, Final residual = 8.89741e-06, No Iterations 12
time step continuity errors : sum local = 4.01905e-12, global = -2.87027e-13, cumulative = -4.98148e-12
DICPCG:  Solving for p, Initial residual = 8.85394e-06, Final residual = 7.90643e-07, No Iterations 4
time step continuity errors : sum local = 3.57517e-13, global = -4.66169e-14, cumulative = -5.0281e-12
ExecutionTime = 0.19 s  ClockTime = 0 s

Time = 0.014

Courant Number mean: 1.22115e-06 max: 1.77543e-05

// * * * * * * * * * * * * * * * Foam::cfdemCloudMix::evolve() * * * * * * * * * * * * * * * //


// * * * * * * * * * * Coupling * * * * * * * * * * //

number of particles = 1
Starting up LIGGGHTS
Executing command: 'run 100    '
run 100    
Setting up run at Fri Mar 20 13:10:36 2020

Memory usage per processor = 4.23811 Mbytes
    Step    Atoms         KinEng            rke         Volume 
    1300        1  5.7083293e-12              0          0.001 
CFD Coupling established at step 1400
    1400        1  6.2021099e-12              0          0.001 
Loop time of 0.000445843 on 2 procs for 100 steps with 1 atoms, finish time Fri Mar 20 13:10:36 2020


Pair  time (%) = 7.05719e-05 (15.8289)
Neigh time (%) = 0 (0)
Comm  time (%) = 6.25849e-05 (14.0374)
Outpt time (%) = 1.9908e-05 (4.46524)
Other time (%) = 0.000292778 (65.6684)

Nlocal:    0.5 ave 1 max 0 min
Histogram: 1 0 0 0 0 0 0 0 0 1
Nghost:    0.5 ave 1 max 0 min
Histogram: 1 0 0 0 0 0 0 0 0 1
Neighs:    0 ave 0 max 0 min
Histogram: 2 0 0 0 0 0 0 0 0 0

Total # of neighbors = 0
Ave neighs/atom = 0
Neighbor list builds = 0
Dangerous builds = 0
couplingStep = 14
Executing command: 'write_restart ../DEM/post/restart/liggghts.restartCFDEM'
write_restart ../DEM/post/restart/liggghts.restartCFDEM
System init for write_restart ...
LIGGGHTS finished
Foam::cfdemCloud::setNumberOfClumps(int nC) ... do nothing
number of particles = 1
DICPCG:  Solving for sSmoothField, Initial residual = 0.0283381, Final residual = 5.70723e-09, No Iterations 3
DICPCG:  Solving for vSmoothFieldx, Initial residual = 5.83279e-07, Final residual = 5.64353e-11, No Iterations 2
DICPCG:  Solving for vSmoothFieldy, Initial residual = 5.83279e-07, Final residual = 5.64353e-11, No Iterations 2
DICPCG:  Solving for vSmoothFieldz, Initial residual = 5.83279e-07, Final residual = 5.64353e-11, No Iterations 2

// * * * * * * * * * * Coupling - done * * * * * * * * * * //

using voidfraction blend, tsf=1
Setting mixDiFeliceDrag force......
Setting mixDiFeliceDrag force - done

Setting Archimedes force......
Setting Archimedes force - done

// * * * * * * * * * * * * * * * Foam::cfdemCloudMix::evolve() - done * * * * * * * * * * * * * * * //

DICPCG:  Solving for vSmoothFieldx, Initial residual = 0.0283381, Final residual = 5.70723e-09, No Iterations 3
DICPCG:  Solving for vSmoothFieldy, Initial residual = 0.0283381, Final residual = 5.70723e-09, No Iterations 3
DICPCG:  Solving for vSmoothFieldz, Initial residual = 0.0283381, Final residual = 5.70723e-09, No Iterations 3
calculate total implicit force
  TotalForceImp:  (8.16756e-17 -1.0139e-08 8.20789e-17)
  Warning, these values are based on latest Ksl and Us but prev. iteration U!

DILUPBiCG:  Solving for Ux, Initial residual = 0.0639978, Final residual = 8.04816e-08, No Iterations 2
DILUPBiCG:  Solving for Uy, Initial residual = 0.0408529, Final residual = 3.09663e-08, No Iterations 2
DILUPBiCG:  Solving for Uz, Initial residual = 0.0639978, Final residual = 8.04816e-08, No Iterations 2
DICPCG:  Solving for p, Initial residual = 0.0473504, Final residual = 0.00240969, No Iterations 2
time step continuity errors : sum local = 1.12509e-09, global = -6.16959e-12, cumulative = -1.11977e-11
DICPCG:  Solving for p, Initial residual = 0.0023262, Final residual = 0.000198127, No Iterations 6
time step continuity errors : sum local = 9.54799e-11, global = -2.50987e-11, cumulative = -3.62964e-11
DICPCG:  Solving for p, Initial residual = 0.000197833, Final residual = 1.92602e-05, No Iterations 10
time step continuity errors : sum local = 9.27136e-12, global = -6.87086e-13, cumulative = -3.69835e-11
DICPCG:  Solving for p, Initial residual = 1.94065e-05, Final residual = 9.15424e-07, No Iterations 7
time step continuity errors : sum local = 4.39506e-13, global = 1.89456e-13, cumulative = -3.6794e-11
ExecutionTime = 0.2 s  ClockTime = 0 s

Time = 0.015

Courant Number mean: 1.38532e-06 max: 2.14631e-05

// * * * * * * * * * * * * * * * Foam::cfdemCloudMix::evolve() * * * * * * * * * * * * * * * //


// * * * * * * * * * * Coupling * * * * * * * * * * //

number of particles = 1
Starting up LIGGGHTS
Executing command: 'run 100    '
run 100    
Setting up run at Fri Mar 20 13:10:36 2020

Memory usage per processor = 4.23811 Mbytes
    Step    Atoms         KinEng            rke         Volume 
    1400        1  6.2021099e-12              0          0.001 
CFD Coupling established at step 1500
    1500        1  6.6744617e-12              0          0.001 
Loop time of 0.000463486 on 2 procs for 100 steps with 1 atoms, finish time Fri Mar 20 13:10:36 2020


Pair  time (%) = 7.45058e-05 (16.0751)
Neigh time (%) = 0 (0)
Comm  time (%) = 6.7234e-05 (14.5062)
Outpt time (%) = 2.30074e-05 (4.96399)
Other time (%) = 0.000298738 (64.4547)

Nlocal:    0.5 ave 1 max 0 min
Histogram: 1 0 0 0 0 0 0 0 0 1
Nghost:    0.5 ave 1 max 0 min
Histogram: 1 0 0 0 0 0 0 0 0 1
Neighs:    0 ave 0 max 0 min
Histogram: 2 0 0 0 0 0 0 0 0 0

Total # of neighbors = 0
Ave neighs/atom = 0
Neighbor list builds = 0
Dangerous builds = 0
couplingStep = 15
Executing command: 'write_restart ../DEM/post/restart/liggghts.restartCFDEM'
write_restart ../DEM/post/restart/liggghts.restartCFDEM
System init for write_restart ...
LIGGGHTS finished
Foam::cfdemCloud::setNumberOfClumps(int nC) ... do nothing
number of particles = 1
DICPCG:  Solving for sSmoothField, Initial residual = 0.0283381, Final residual = 5.70597e-09, No Iterations 3
DICPCG:  Solving for vSmoothFieldx, Initial residual = 5.83279e-07, Final residual = 5.64353e-11, No Iterations 2
DICPCG:  Solving for vSmoothFieldy, Initial residual = 5.83279e-07, Final residual = 5.64353e-11, No Iterations 2
DICPCG:  Solving for vSmoothFieldz, Initial residual = 5.83279e-07, Final residual = 5.64353e-11, No Iterations 2

// * * * * * * * * * * Coupling - done * * * * * * * * * * //

using voidfraction blend, tsf=1
Setting mixDiFeliceDrag force......
Setting mixDiFeliceDrag force - done

Setting Archimedes force......
Setting Archimedes force - done

// * * * * * * * * * * * * * * * Foam::cfdemCloudMix::evolve() - done * * * * * * * * * * * * * * * //

DICPCG:  Solving for vSmoothFieldx, Initial residual = 0.0283381, Final residual = 5.70597e-09, No Iterations 3
DICPCG:  Solving for vSmoothFieldy, Initial residual = 0.0283381, Final residual = 5.70597e-09, No Iterations 3
DICPCG:  Solving for vSmoothFieldz, Initial residual = 0.0283381, Final residual = 5.70597e-09, No Iterations 3
calculate total implicit force
  TotalForceImp:  (-1.48794e-16 -1.05613e-08 -1.48368e-16)
  Warning, these values are based on latest Ksl and Us but prev. iteration U!

DILUPBiCG:  Solving for Ux, Initial residual = 0.0592938, Final residual = 7.46183e-08, No Iterations 2
DILUPBiCG:  Solving for Uy, Initial residual = 0.0379039, Final residual = 2.89804e-08, No Iterations 2
DILUPBiCG:  Solving for Uz, Initial residual = 0.0592938, Final residual = 7.46183e-08, No Iterations 2
DICPCG:  Solving for p, Initial residual = 0.10937, Final residual = 0.00535101, No Iterations 3
time step continuity errors : sum local = 2.64719e-09, global = -3.23916e-11, cumulative = -6.91856e-11
DICPCG:  Solving for p, Initial residual = 0.00522178, Final residual = 0.000455692, No Iterations 4
time step continuity errors : sum local = 2.32493e-10, global = -2.86846e-11, cumulative = -9.78701e-11
DICPCG:  Solving for p, Initial residual = 0.000455358, Final residual = 3.02691e-05, No Iterations 5
time step continuity errors : sum local = 1.54163e-11, global = 1.61727e-13, cumulative = -9.77084e-11
DICPCG:  Solving for p, Initial residual = 3.03969e-05, Final residual = 3.86141e-07, No Iterations 14
time step continuity errors : sum local = 1.96628e-13, global = 4.21341e-15, cumulative = -9.77042e-11
ExecutionTime = 0.22 s  ClockTime = 0 s

Time = 0.016

Courant Number mean: 1.54538e-06 max: 2.21812e-05

// * * * * * * * * * * * * * * * Foam::cfdemCloudMix::evolve() * * * * * * * * * * * * * * * //


// * * * * * * * * * * Coupling * * * * * * * * * * //

number of particles = 1
Starting up LIGGGHTS
Executing command: 'run 100    '
run 100    
Setting up run at Fri Mar 20 13:10:36 2020

Memory usage per processor = 4.23811 Mbytes
    Step    Atoms         KinEng            rke         Volume 
    1500        1  6.6744617e-12              0          0.001 
CFD Coupling established at step 1600
    1600        1  7.1238367e-12              0          0.001 
Loop time of 0.000644922 on 2 procs for 100 steps with 1 atoms, finish time Fri Mar 20 13:10:36 2020


Pair  time (%) = 6.91414e-05 (10.7209)
Neigh time (%) = 0 (0)
Comm  time (%) = 7.56979e-05 (11.7375)
Outpt time (%) = 3.94583e-05 (6.1183)
Other time (%) = 0.000460625 (71.4233)

Nlocal:    0.5 ave 1 max 0 min
Histogram: 1 0 0 0 0 0 0 0 0 1
Nghost:    0.5 ave 1 max 0 min
Histogram: 1 0 0 0 0 0 0 0 0 1
Neighs:    0 ave 0 max 0 min
Histogram: 2 0 0 0 0 0 0 0 0 0

Total # of neighbors = 0
Ave neighs/atom = 0
Neighbor list builds = 0
Dangerous builds = 0
couplingStep = 16
Executing command: 'write_restart ../DEM/post/restart/liggghts.restartCFDEM'
write_restart ../DEM/post/restart/liggghts.restartCFDEM
System init for write_restart ...
LIGGGHTS finished
Foam::cfdemCloud::setNumberOfClumps(int nC) ... do nothing
number of particles = 1
DICPCG:  Solving for sSmoothField, Initial residual = 0.0283381, Final residual = 5.70597e-09, No Iterations 3
DICPCG:  Solving for vSmoothFieldx, Initial residual = 5.83279e-07, Final residual = 5.64353e-11, No Iterations 2
DICPCG:  Solving for vSmoothFieldy, Initial residual = 5.83279e-07, Final residual = 5.64353e-11, No Iterations 2
DICPCG:  Solving for vSmoothFieldz, Initial residual = 5.83279e-07, Final residual = 5.64353e-11, No Iterations 2

// * * * * * * * * * * Coupling - done * * * * * * * * * * //

using voidfraction blend, tsf=1
Setting mixDiFeliceDrag force......
Setting mixDiFeliceDrag force - done

Setting Archimedes force......
Setting Archimedes force - done

// * * * * * * * * * * * * * * * Foam::cfdemCloudMix::evolve() - done * * * * * * * * * * * * * * * //

DICPCG:  Solving for vSmoothFieldx, Initial residual = 0.0283381, Final residual = 5.70597e-09, No Iterations 3
DICPCG:  Solving for vSmoothFieldy, Initial residual = 0.0283381, Final residual = 5.70597e-09, No Iterations 3
DICPCG:  Solving for vSmoothFieldz, Initial residual = 0.0283381, Final residual = 5.70597e-09, No Iterations 3
calculate total implicit force
  TotalForceImp:  (-1.43934e-16 -1.09483e-08 -1.43477e-16)
  Warning, these values are based on latest Ksl and Us but prev. iteration U!

DILUPBiCG:  Solving for Ux, Initial residual = 0.0564364, Final residual = 7.09098e-08, No Iterations 2
DILUPBiCG:  Solving for Uy, Initial residual = 0.0356586, Final residual = 2.91746e-08, No Iterations 2
DILUPBiCG:  Solving for Uz, Initial residual = 0.0564364, Final residual = 7.09098e-08, No Iterations 2
DICPCG:  Solving for p, Initial residual = 0.0573034, Final residual = 0.00309697, No Iterations 2
time step continuity errors : sum local = 1.61541e-09, global = -9.40664e-12, cumulative = -1.07111e-10
DICPCG:  Solving for p, Initial residual = 0.00301662, Final residual = 0.000277632, No Iterations 3
time step continuity errors : sum local = 1.48317e-10, global = -2.01276e-11, cumulative = -1.27238e-10
DICPCG:  Solving for p, Initial residual = 0.00027911, Final residual = 1.00968e-05, No Iterations 13
time step continuity errors : sum local = 5.39021e-12, global = 9.25804e-14, cumulative = -1.27146e-10
DICPCG:  Solving for p, Initial residual = 1.07984e-05, Final residual = 7.71317e-07, No Iterations 3
time step continuity errors : sum local = 4.10971e-13, global = 3.73706e-14, cumulative = -1.27109e-10
ExecutionTime = 0.23 s  ClockTime = 0 s

Time = 0.017

Courant Number mean: 1.71902e-06 max: 2.58348e-05

// * * * * * * * * * * * * * * * Foam::cfdemCloudMix::evolve() * * * * * * * * * * * * * * * //


// * * * * * * * * * * Coupling * * * * * * * * * * //

number of particles = 1
Starting up LIGGGHTS
Executing command: 'run 100    '
run 100    
Setting up run at Fri Mar 20 13:10:36 2020

Memory usage per processor = 4.23811 Mbytes
    Step    Atoms         KinEng            rke         Volume 
    1600        1  7.1238367e-12              0          0.001 
CFD Coupling established at step 1700
    1700        1  7.5498128e-12              0          0.001 
Loop time of 0.00048995 on 2 procs for 100 steps with 1 atoms, finish time Fri Mar 20 13:10:36 2020


Pair  time (%) = 7.62939e-05 (15.5718)
Neigh time (%) = 0 (0)
Comm  time (%) = 5.85318e-05 (11.9465)
Outpt time (%) = 2.80142e-05 (5.71776)
Other time (%) = 0.00032711 (66.764)

Nlocal:    0.5 ave 1 max 0 min
Histogram: 1 0 0 0 0 0 0 0 0 1
Nghost:    0.5 ave 1 max 0 min
Histogram: 1 0 0 0 0 0 0 0 0 1
Neighs:    0 ave 0 max 0 min
Histogram: 2 0 0 0 0 0 0 0 0 0

Total # of neighbors = 0
Ave neighs/atom = 0
Neighbor list builds = 0
Dangerous builds = 0
couplingStep = 17
Executing command: 'write_restart ../DEM/post/restart/liggghts.restartCFDEM'
write_restart ../DEM/post/restart/liggghts.restartCFDEM
System init for write_restart ...
LIGGGHTS finished
Foam::cfdemCloud::setNumberOfClumps(int nC) ... do nothing
number of particles = 1
DICPCG:  Solving for sSmoothField, Initial residual = 0.0283381, Final residual = 5.70597e-09, No Iterations 3
DICPCG:  Solving for vSmoothFieldx, Initial residual = 5.83279e-07, Final residual = 5.64353e-11, No Iterations 2
DICPCG:  Solving for vSmoothFieldy, Initial residual = 5.83279e-07, Final residual = 5.64353e-11, No Iterations 2
DICPCG:  Solving for vSmoothFieldz, Initial residual = 5.83279e-07, Final residual = 5.64353e-11, No Iterations 2

// * * * * * * * * * * Coupling - done * * * * * * * * * * //

using voidfraction blend, tsf=1
Setting mixDiFeliceDrag force......
Setting mixDiFeliceDrag force - done

Setting Archimedes force......
Setting Archimedes force - done

// * * * * * * * * * * * * * * * Foam::cfdemCloudMix::evolve() - done * * * * * * * * * * * * * * * //

DICPCG:  Solving for vSmoothFieldx, Initial residual = 0.0283381, Final residual = 5.70597e-09, No Iterations 3
DICPCG:  Solving for vSmoothFieldy, Initial residual = 0.0283381, Final residual = 5.70597e-09, No Iterations 3
DICPCG:  Solving for vSmoothFieldz, Initial residual = 0.0283381, Final residual = 5.70597e-09, No Iterations 3
calculate total implicit force
  TotalForceImp:  (-1.73536e-16 -1.13051e-08 -1.73048e-16)
  Warning, these values are based on latest Ksl and Us but prev. iteration U!

DILUPBiCG:  Solving for Ux, Initial residual = 0.0517049, Final residual = 6.51412e-08, No Iterations 2
DILUPBiCG:  Solving for Uy, Initial residual = 0.0322191, Final residual = 2.58615e-08, No Iterations 2
DILUPBiCG:  Solving for Uz, Initial residual = 0.0517049, Final residual = 6.51412e-08, No Iterations 2
DICPCG:  Solving for p, Initial residual = 0.0439571, Final residual = 0.00213581, No Iterations 2
time step continuity errors : sum local = 1.1639e-09, global = -2.83757e-12, cumulative = -1.29946e-10
DICPCG:  Solving for p, Initial residual = 0.00208305, Final residual = 0.000203136, No Iterations 5
time step continuity errors : sum local = 1.13225e-10, global = 2.18645e-11, cumulative = -1.08082e-10
DICPCG:  Solving for p, Initial residual = 0.000203405, Final residual = 4.67393e-06, No Iterations 14
time step continuity errors : sum local = 2.60328e-12, global = -4.76045e-14, cumulative = -1.08129e-10
DICPCG:  Solving for p, Initial residual = 5.42935e-06, Final residual = 7.56855e-07, No Iterations 2
time step continuity errors : sum local = 4.22376e-13, global = -5.67242e-14, cumulative = -1.08186e-10
ExecutionTime = 0.24 s  ClockTime = 0 s

Time = 0.018

Courant Number mean: 1.89968e-06 max: 2.99833e-05

// * * * * * * * * * * * * * * * Foam::cfdemCloudMix::evolve() * * * * * * * * * * * * * * * //


// * * * * * * * * * * Coupling * * * * * * * * * * //

number of particles = 1
Starting up LIGGGHTS
Executing command: 'run 100    '
run 100    
Setting up run at Fri Mar 20 13:10:36 2020

Memory usage per processor = 4.23811 Mbytes
    Step    Atoms         KinEng            rke         Volume 
    1700        1  7.5498128e-12              0          0.001 
CFD Coupling established at step 1800
    1800        1  7.9521313e-12              0          0.001 
Loop time of 0.000430822 on 2 procs for 100 steps with 1 atoms, finish time Fri Mar 20 13:10:36 2020


Pair  time (%) = 6.13928e-05 (14.2501)
Neigh time (%) = 0 (0)
Comm  time (%) = 6.55651e-05 (15.2186)
Outpt time (%) = 2.30074e-05 (5.34034)
Other time (%) = 0.000280857 (65.1909)

Nlocal:    0.5 ave 1 max 0 min
Histogram: 1 0 0 0 0 0 0 0 0 1
Nghost:    0.5 ave 1 max 0 min
Histogram: 1 0 0 0 0 0 0 0 0 1
Neighs:    0 ave 0 max 0 min
Histogram: 2 0 0 0 0 0 0 0 0 0

Total # of neighbors = 0
Ave neighs/atom = 0
Neighbor list builds = 0
Dangerous builds = 0
couplingStep = 18
Executing command: 'write_restart ../DEM/post/restart/liggghts.restartCFDEM'
write_restart ../DEM/post/restart/liggghts.restartCFDEM
System init for write_restart ...
LIGGGHTS finished
Foam::cfdemCloud::setNumberOfClumps(int nC) ... do nothing
number of particles = 1
DICPCG:  Solving for sSmoothField, Initial residual = 0.0283381, Final residual = 5.70723e-09, No Iterations 3
DICPCG:  Solving for vSmoothFieldx, Initial residual = 5.83279e-07, Final residual = 5.64353e-11, No Iterations 2
DICPCG:  Solving for vSmoothFieldy, Initial residual = 5.83279e-07, Final residual = 5.64353e-11, No Iterations 2
DICPCG:  Solving for vSmoothFieldz, Initial residual = 5.83279e-07, Final residual = 5.64353e-11, No Iterations 2

// * * * * * * * * * * Coupling - done * * * * * * * * * * //

using voidfraction blend, tsf=1
Setting mixDiFeliceDrag force......
Setting mixDiFeliceDrag force - done

Setting Archimedes force......
Setting Archimedes force - done

// * * * * * * * * * * * * * * * Foam::cfdemCloudMix::evolve() - done * * * * * * * * * * * * * * * //

DICPCG:  Solving for vSmoothFieldx, Initial residual = 0.0283381, Final residual = 5.70723e-09, No Iterations 3
DICPCG:  Solving for vSmoothFieldy, Initial residual = 0.0283381, Final residual = 5.70723e-09, No Iterations 3
DICPCG:  Solving for vSmoothFieldz, Initial residual = 0.0283381, Final residual = 5.70723e-09, No Iterations 3
calculate total implicit force
  TotalForceImp:  (5.74577e-16 -1.16382e-08 5.75089e-16)
  Warning, these values are based on latest Ksl and Us but prev. iteration U!

DILUPBiCG:  Solving for Ux, Initial residual = 0.0482433, Final residual = 6.08403e-08, No Iterations 2
DILUPBiCG:  Solving for Uy, Initial residual = 0.0302462, Final residual = 2.39094e-08, No Iterations 2
DILUPBiCG:  Solving for Uz, Initial residual = 0.0482433, Final residual = 6.08403e-08, No Iterations 2
DICPCG:  Solving for p, Initial residual = 0.103142, Final residual = 0.00483342, No Iterations 3
time step continuity errors : sum local = 2.7596e-09, global = 1.15839e-11, cumulative = -9.6602e-11
DICPCG:  Solving for p, Initial residual = 0.00477257, Final residual = 0.000326879, No Iterations 3
time step continuity errors : sum local = 1.90901e-10, global = 2.18728e-11, cumulative = -7.47293e-11
DICPCG:  Solving for p, Initial residual = 0.000332322, Final residual = 1.54322e-05, No Iterations 13
time step continuity errors : sum local = 9.00535e-12, global = 4.55985e-13, cumulative = -7.42733e-11
DICPCG:  Solving for p, Initial residual = 1.5445e-05, Final residual = 8.68143e-07, No Iterations 4
time step continuity errors : sum local = 5.06113e-13, global = -2.14824e-14, cumulative = -7.42948e-11
ExecutionTime = 0.25 s  ClockTime = 0 s

Time = 0.019

Courant Number mean: 2.08103e-06 max: 3.07602e-05

// * * * * * * * * * * * * * * * Foam::cfdemCloudMix::evolve() * * * * * * * * * * * * * * * //


// * * * * * * * * * * Coupling * * * * * * * * * * //

number of particles = 1
Starting up LIGGGHTS
Executing command: 'run 100    '
run 100    
Setting up run at Fri Mar 20 13:10:36 2020

Memory usage per processor = 4.23811 Mbytes
    Step    Atoms         KinEng            rke         Volume 
    1800        1  7.9521313e-12              0          0.001 
CFD Coupling established at step 1900
    1900        1   8.330464e-12              0          0.001 
Loop time of 0.000456452 on 2 procs for 100 steps with 1 atoms, finish time Fri Mar 20 13:10:36 2020


Pair  time (%) = 6.81877e-05 (14.9386)
Neigh time (%) = 0 (0)
Comm  time (%) = 5.59092e-05 (12.2486)
Outpt time (%) = 4.25577e-05 (9.32358)
Other time (%) = 0.000289798 (63.4892)

Nlocal:    0.5 ave 1 max 0 min
Histogram: 1 0 0 0 0 0 0 0 0 1
Nghost:    0.5 ave 1 max 0 min
Histogram: 1 0 0 0 0 0 0 0 0 1
Neighs:    0 ave 0 max 0 min
Histogram: 2 0 0 0 0 0 0 0 0 0

Total # of neighbors = 0
Ave neighs/atom = 0
Neighbor list builds = 0
Dangerous builds = 0
couplingStep = 19
Executing command: 'write_restart ../DEM/post/restart/liggghts.restartCFDEM'
write_restart ../DEM/post/restart/liggghts.restartCFDEM
System init for write_restart ...
LIGGGHTS finished
Foam::cfdemCloud::setNumberOfClumps(int nC) ... do nothing
number of particles = 1
DICPCG:  Solving for sSmoothField, Initial residual = 0.0283381, Final residual = 5.70723e-09, No Iterations 3
[...]
DICPCG:  Solving for p, Initial residual = 5.52699e-06, Final residual = 3.9057e-07, No Iterations 13
time step continuity errors : sum local = 3.52682e-13, global = -2.58539e-14, cumulative = -8.54037e-09
ExecutionTime = 1.8 s  ClockTime = 2 s

Time = 0.146

Courant Number mean: 2.19099e-05 max: 0.000266669

// * * * * * * * * * * * * * * * Foam::cfdemCloudMix::evolve() * * * * * * * * * * * * * * * //


// * * * * * * * * * * Coupling * * * * * * * * * * //

number of particles = 1
Starting up LIGGGHTS
Executing command: 'run 100    '
run 100    
Setting up run at Fri Mar 20 13:10:38 2020

Memory usage per processor = 5.23812 Mbytes
    Step    Atoms         KinEng            rke         Volume 
   14500        1  1.3075898e-11              0          0.001 
CFD Coupling established at step 14600
   14600        1  1.3078937e-11              0          0.001 
Loop time of 0.000556946 on 2 procs for 100 steps with 1 atoms, finish time Fri Mar 20 13:10:38 2020


Pair  time (%) = 7.53403e-05 (13.5274)
Neigh time (%) = 0 (0)
Comm  time (%) = 7.60555e-05 (13.6558)
Outpt time (%) = 3.99351e-05 (7.17038)
Other time (%) = 0.000365615 (65.6464)

Nlocal:    0.5 ave 1 max 0 min
Histogram: 1 0 0 0 0 0 0 0 0 1
Nghost:    0.5 ave 1 max 0 min
Histogram: 1 0 0 0 0 0 0 0 0 1
Neighs:    0 ave 0 max 0 min
Histogram: 2 0 0 0 0 0 0 0 0 0

Total # of neighbors = 0
Ave neighs/atom = 0
Neighbor list builds = 0
Dangerous builds = 0
couplingStep = 146
Executing command: 'write_restart ../DEM/post/restart/liggghts.restartCFDEM'
write_restart ../DEM/post/restart/liggghts.restartCFDEM
System init for write_restart ...
LIGGGHTS finished
Foam::cfdemCloud::setNumberOfClumps(int nC) ... do nothing
number of particles = 1
DICPCG:  Solving for sSmoothField, Initial residual = 0.0283381, Final residual = 6.83344e-09, No Iterations 2
DICPCG:  Solving for vSmoothFieldx, Initial residual = 5.83279e-07, Final residual = 2.63947e-10, No Iterations 1
DICPCG:  Solving for vSmoothFieldy, Initial residual = 5.83279e-07, Final residual = 2.63947e-10, No Iterations 1
DICPCG:  Solving for vSmoothFieldz, Initial residual = 5.83279e-07, Final residual = 2.63947e-10, No Iterations 1

// * * * * * * * * * * Coupling - done * * * * * * * * * * //

using voidfraction blend, tsf=1
Setting mixDiFeliceDrag force......
Setting mixDiFeliceDrag force - done

Setting Archimedes force......
Setting Archimedes force - done

// * * * * * * * * * * * * * * * Foam::cfdemCloudMix::evolve() - done * * * * * * * * * * * * * * * //

DICPCG:  Solving for vSmoothFieldx, Initial residual = 0.0283381, Final residual = 6.83344e-09, No Iterations 2
DICPCG:  Solving for vSmoothFieldy, Initial residual = 0.0283381, Final residual = 6.83344e-09, No Iterations 2
DICPCG:  Solving for vSmoothFieldz, Initial residual = 0.0283381, Final residual = 6.83344e-09, No Iterations 2
calculate total implicit force
  TotalForceImp:  (7.68164e-12 -1.53132e-08 7.68164e-12)
  Warning, these values are based on latest Ksl and Us but prev. iteration U!

DILUPBiCG:  Solving for Ux, Initial residual = 0.0106732, Final residual = 9.42321e-07, No Iterations 1
DILUPBiCG:  Solving for Uy, Initial residual = 0.00401537, Final residual = 2.50206e-07, No Iterations 1
DILUPBiCG:  Solving for Uz, Initial residual = 0.0106732, Final residual = 9.42321e-07, No Iterations 1
DICPCG:  Solving for p, Initial residual = 0.0198415, Final residual = 0.00177439, No Iterations 1
time step continuity errors : sum local = 1.61737e-09, global = -3.45462e-10, cumulative = -8.88583e-09
DICPCG:  Solving for p, Initial residual = 0.00175606, Final residual = 9.4118e-05, No Iterations 13
time step continuity errors : sum local = 8.65798e-11, global = 1.15175e-12, cumulative = -8.88468e-09
DICPCG:  Solving for p, Initial residual = 9.56333e-05, Final residual = 6.81826e-06, No Iterations 3
time step continuity errors : sum local = 6.2389e-12, global = 8.80582e-13, cumulative = -8.8838e-09
DICPCG:  Solving for p, Initial residual = 6.79974e-06, Final residual = 7.05018e-07, No Iterations 6
time step continuity errors : sum local = 6.45112e-13, global = 1.82211e-13, cumulative = -8.88362e-09
ExecutionTime = 1.81 s  ClockTime = 2 s

Time = 0.147

Courant Number mean: 2.20203e-05 max: 0.000268267

// * * * * * * * * * * * * * * * Foam::cfdemCloudMix::evolve() * * * * * * * * * * * * * * * //


// * * * * * * * * * * Coupling * * * * * * * * * * //

number of particles = 1
Starting up LIGGGHTS
Executing command: 'run 100    '
run 100    
Setting up run at Fri Mar 20 13:10:38 2020

Memory usage per processor = 5.23812 Mbytes
    Step    Atoms         KinEng            rke         Volume 
   14600        1  1.3078937e-11              0          0.001 
CFD Coupling established at step 14700
   14700        1  1.3082177e-11              0          0.001 
Loop time of 0.00113451 on 2 procs for 100 steps with 1 atoms, finish time Fri Mar 20 13:10:38 2020


Pair  time (%) = 8.80957e-05 (7.76505)
Neigh time (%) = 0 (0)
Comm  time (%) = 9.48906e-05 (8.36398)
Outpt time (%) = 0.000105977 (9.34118)
Other time (%) = 0.000845551 (74.5298)

Nlocal:    0.5 ave 1 max 0 min
Histogram: 1 0 0 0 0 0 0 0 0 1
Nghost:    0.5 ave 1 max 0 min
Histogram: 1 0 0 0 0 0 0 0 0 1
Neighs:    0 ave 0 max 0 min
Histogram: 2 0 0 0 0 0 0 0 0 0

Total # of neighbors = 0
Ave neighs/atom = 0
Neighbor list builds = 0
Dangerous builds = 0
couplingStep = 147
Executing command: 'write_restart ../DEM/post/restart/liggghts.restartCFDEM'
write_restart ../DEM/post/restart/liggghts.restartCFDEM
System init for write_restart ...
LIGGGHTS finished
Foam::cfdemCloud::setNumberOfClumps(int nC) ... do nothing
number of particles = 1
DICPCG:  Solving for sSmoothField, Initial residual = 0.0283381, Final residual = 6.83344e-09, No Iterations 2
DICPCG:  Solving for vSmoothFieldx, Initial residual = 5.83279e-07, Final residual = 2.63947e-10, No Iterations 1
DICPCG:  Solving for vSmoothFieldy, Initial residual = 5.83279e-07, Final residual = 2.63947e-10, No Iterations 1
DICPCG:  Solving for vSmoothFieldz, Initial residual = 5.83279e-07, Final residual = 2.63947e-10, No Iterations 1

// * * * * * * * * * * Coupling - done * * * * * * * * * * //

using voidfraction blend, tsf=1
Setting mixDiFeliceDrag force......
Setting mixDiFeliceDrag force - done

Setting Archimedes force......
Setting Archimedes force - done

// * * * * * * * * * * * * * * * Foam::cfdemCloudMix::evolve() - done * * * * * * * * * * * * * * * //

DICPCG:  Solving for vSmoothFieldx, Initial residual = 0.0283381, Final residual = 6.83344e-09, No Iterations 2
DICPCG:  Solving for vSmoothFieldy, Initial residual = 0.0283381, Final residual = 6.83344e-09, No Iterations 2
DICPCG:  Solving for vSmoothFieldz, Initial residual = 0.0283381, Final residual = 6.83344e-09, No Iterations 2
calculate total implicit force
  TotalForceImp:  (7.48598e-12 -1.53119e-08 7.48598e-12)
  Warning, these values are based on latest Ksl and Us but prev. iteration U!

DILUPBiCG:  Solving for Ux, Initial residual = 0.0106577, Final residual = 9.39217e-07, No Iterations 1
DILUPBiCG:  Solving for Uy, Initial residual = 0.00398848, Final residual = 2.47859e-07, No Iterations 1
DILUPBiCG:  Solving for Uz, Initial residual = 0.0106577, Final residual = 9.39217e-07, No Iterations 1
DICPCG:  Solving for p, Initial residual = 0.0214328, Final residual = 0.000306345, No Iterations 2
time step continuity errors : sum local = 2.83053e-10, global = 3.03724e-11, cumulative = -8.85324e-09
DICPCG:  Solving for p, Initial residual = 0.000302715, Final residual = 2.56217e-05, No Iterations 5
time step continuity errors : sum local = 2.39017e-11, global = 3.43746e-12, cumulative = -8.84981e-09
DICPCG:  Solving for p, Initial residual = 2.56485e-05, Final residual = 1.76923e-06, No Iterations 13
time step continuity errors : sum local = 1.65046e-12, global = -6.15524e-15, cumulative = -8.84981e-09
DICPCG:  Solving for p, Initial residual = 1.79025e-06, Final residual = 6.23156e-07, No Iterations 1
time step continuity errors : sum local = 5.81417e-13, global = -2.63716e-14, cumulative = -8.84984e-09
ExecutionTime = 1.83 s  ClockTime = 2 s

Time = 0.148

Courant Number mean: 2.21273e-05 max: 0.000269834

// * * * * * * * * * * * * * * * Foam::cfdemCloudMix::evolve() * * * * * * * * * * * * * * * //


// * * * * * * * * * * Coupling * * * * * * * * * * //

number of particles = 1
Starting up LIGGGHTS
Executing command: 'run 100    '
run 100    
Setting up run at Fri Mar 20 13:10:38 2020

Memory usage per processor = 5.23812 Mbytes
    Step    Atoms         KinEng            rke         Volume 
   14700        1  1.3082177e-11              0          0.001 
CFD Coupling established at step 14800
   14800        1  1.3085595e-11              0          0.001 
Loop time of 0.00050199 on 2 procs for 100 steps with 1 atoms, finish time Fri Mar 20 13:10:38 2020


Pair  time (%) = 7.09295e-05 (14.1297)
Neigh time (%) = 0 (0)
Comm  time (%) = 6.13928e-05 (12.2299)
Outpt time (%) = 4.35114e-05 (8.66777)
Other time (%) = 0.000326157 (64.9727)

Nlocal:    0.5 ave 1 max 0 min
Histogram: 1 0 0 0 0 0 0 0 0 1
Nghost:    0.5 ave 1 max 0 min
Histogram: 1 0 0 0 0 0 0 0 0 1
Neighs:    0 ave 0 max 0 min
Histogram: 2 0 0 0 0 0 0 0 0 0

Total # of neighbors = 0
Ave neighs/atom = 0
Neighbor list builds = 0
Dangerous builds = 0
couplingStep = 148
Executing command: 'write_restart ../DEM/post/restart/liggghts.restartCFDEM'
write_restart ../DEM/post/restart/liggghts.restartCFDEM
System init for write_restart ...
LIGGGHTS finished
Foam::cfdemCloud::setNumberOfClumps(int nC) ... do nothing
number of particles = 1
DICPCG:  Solving for sSmoothField, Initial residual = 0.0283381, Final residual = 6.46034e-09, No Iterations 2
DICPCG:  Solving for vSmoothFieldx, Initial residual = 5.83279e-07, Final residual = 2.63951e-10, No Iterations 1
DICPCG:  Solving for vSmoothFieldy, Initial residual = 5.83279e-07, Final residual = 2.63951e-10, No Iterations 1
DICPCG:  Solving for vSmoothFieldz, Initial residual = 5.83279e-07, Final residual = 2.63951e-10, No Iterations 1

// * * * * * * * * * * Coupling - done * * * * * * * * * * //

using voidfraction blend, tsf=1
Setting mixDiFeliceDrag force......
Setting mixDiFeliceDrag force - done

Setting Archimedes force......
Setting Archimedes force - done

// * * * * * * * * * * * * * * * Foam::cfdemCloudMix::evolve() - done * * * * * * * * * * * * * * * //

DICPCG:  Solving for vSmoothFieldx, Initial residual = 0.0283381, Final residual = 6.46034e-09, No Iterations 2
DICPCG:  Solving for vSmoothFieldy, Initial residual = 0.0283381, Final residual = 6.46034e-09, No Iterations 2
DICPCG:  Solving for vSmoothFieldz, Initial residual = 0.0283381, Final residual = 6.46034e-09, No Iterations 2
calculate total implicit force
  TotalForceImp:  (6.83907e-12 -1.53899e-08 6.83907e-12)
  Warning, these values are based on latest Ksl and Us but prev. iteration U!

DILUPBiCG:  Solving for Ux, Initial residual = 0.0107061, Final residual = 9.35879e-07, No Iterations 1
DILUPBiCG:  Solving for Uy, Initial residual = 0.00587963, Final residual = 2.61525e-07, No Iterations 1
DILUPBiCG:  Solving for Uz, Initial residual = 0.0107061, Final residual = 9.35879e-07, No Iterations 1
DICPCG:  Solving for p, Initial residual = 0.290385, Final residual = 0.0216376, No Iterations 3
time step continuity errors : sum local = 1.9642e-08, global = 4.19543e-09, cumulative = -4.65441e-09
DICPCG:  Solving for p, Initial residual = 0.0218861, Final residual = 0.00196547, No Iterations 7
time step continuity errors : sum local = 1.7751e-09, global = 5.51659e-10, cumulative = -4.10275e-09
DICPCG:  Solving for p, Initial residual = 0.00195055, Final residual = 0.000116702, No Iterations 10
time step continuity errors : sum local = 1.05604e-10, global = 5.45128e-12, cumulative = -4.0973e-09
DICPCG:  Solving for p, Initial residual = 0.000115385, Final residual = 3.78019e-07, No Iterations 16
time step continuity errors : sum local = 3.46744e-13, global = -9.87755e-15, cumulative = -4.09731e-09
ExecutionTime = 1.84 s  ClockTime = 2 s

Time = 0.149

Courant Number mean: 2.21921e-05 max: 0.000268858

// * * * * * * * * * * * * * * * Foam::cfdemCloudMix::evolve() * * * * * * * * * * * * * * * //


// * * * * * * * * * * Coupling * * * * * * * * * * //

number of particles = 1
Starting up LIGGGHTS
Executing command: 'run 100    '
run 100    
Setting up run at Fri Mar 20 13:10:38 2020

Memory usage per processor = 5.23812 Mbytes
    Step    Atoms         KinEng            rke         Volume 
   14800        1  1.3085595e-11              0          0.001 
CFD Coupling established at step 14900
   14900        1  1.3079284e-11              0          0.001 
Loop time of 0.000450373 on 2 procs for 100 steps with 1 atoms, finish time Fri Mar 20 13:10:38 2020


Pair  time (%) = 5.61476e-05 (12.4669)
Neigh time (%) = 0 (0)
Comm  time (%) = 6.78301e-05 (15.0609)
Outpt time (%) = 2.0504e-05 (4.55267)
Other time (%) = 0.000305891 (67.9195)

Nlocal:    0.5 ave 1 max 0 min
Histogram: 1 0 0 0 0 0 0 0 0 1
Nghost:    0.5 ave 1 max 0 min
Histogram: 1 0 0 0 0 0 0 0 0 1
Neighs:    0 ave 0 max 0 min
Histogram: 2 0 0 0 0 0 0 0 0 0

Total # of neighbors = 0
Ave neighs/atom = 0
Neighbor list builds = 0
Dangerous builds = 0
couplingStep = 149
Executing command: 'write_restart ../DEM/post/restart/liggghts.restartCFDEM'
write_restart ../DEM/post/restart/liggghts.restartCFDEM
System init for write_restart ...
LIGGGHTS finished
Foam::cfdemCloud::setNumberOfClumps(int nC) ... do nothing
number of particles = 1
DICPCG:  Solving for sSmoothField, Initial residual = 0.0283381, Final residual = 6.46034e-09, No Iterations 2
DICPCG:  Solving for vSmoothFieldx, Initial residual = 5.83279e-07, Final residual = 2.63951e-10, No Iterations 1
DICPCG:  Solving for vSmoothFieldy, Initial residual = 5.83279e-07, Final residual = 2.63951e-10, No Iterations 1
DICPCG:  Solving for vSmoothFieldz, Initial residual = 5.83279e-07, Final residual = 2.63951e-10, No Iterations 1

// * * * * * * * * * * Coupling - done * * * * * * * * * * //

using voidfraction blend, tsf=1
Setting mixDiFeliceDrag force......
Setting mixDiFeliceDrag force - done

Setting Archimedes force......
Setting Archimedes force - done

// * * * * * * * * * * * * * * * Foam::cfdemCloudMix::evolve() - done * * * * * * * * * * * * * * * //

DICPCG:  Solving for vSmoothFieldx, Initial residual = 0.0283381, Final residual = 6.46034e-09, No Iterations 2
DICPCG:  Solving for vSmoothFieldy, Initial residual = 0.0283381, Final residual = 6.46034e-09, No Iterations 2
DICPCG:  Solving for vSmoothFieldz, Initial residual = 0.0283381, Final residual = 6.46034e-09, No Iterations 2
calculate total implicit force
  TotalForceImp:  (6.972e-12 -1.53805e-08 6.972e-12)
  Warning, these values are based on latest Ksl and Us but prev. iteration U!

DILUPBiCG:  Solving for Ux, Initial residual = 0.0116899, Final residual = 9.36774e-07, No Iterations 1
DILUPBiCG:  Solving for Uy, Initial residual = 0.0055727, Final residual = 2.47702e-07, No Iterations 1
DILUPBiCG:  Solving for Uz, Initial residual = 0.0116899, Final residual = 9.36774e-07, No Iterations 1
DICPCG:  Solving for p, Initial residual = 0.138572, Final residual = 0.00830116, No Iterations 3
time step continuity errors : sum local = 7.22387e-09, global = -6.76257e-10, cumulative = -4.77357e-09
DICPCG:  Solving for p, Initial residual = 0.00886966, Final residual = 0.000319529, No Iterations 8
time step continuity errors : sum local = 2.60661e-10, global = -5.65014e-11, cumulative = -4.83007e-09
DICPCG:  Solving for p, Initial residual = 0.000317647, Final residual = 2.93348e-05, No Iterations 11
time step continuity errors : sum local = 2.38494e-11, global = -3.63273e-12, cumulative = -4.8337e-09
DICPCG:  Solving for p, Initial residual = 2.94073e-05, Final residual = 9.81118e-07, No Iterations 8
time step continuity errors : sum local = 7.96156e-13, global = -1.33193e-13, cumulative = -4.83383e-09
ExecutionTime = 1.85 s  ClockTime = 2 s

Time = 0.15

Courant Number mean: 2.22526e-05 max: 0.000266802

// * * * * * * * * * * * * * * * Foam::cfdemCloudMix::evolve() * * * * * * * * * * * * * * * //


// * * * * * * * * * * Coupling * * * * * * * * * * //

number of particles = 1
Starting up LIGGGHTS
Executing command: 'run 100    '
run 100    
Setting up run at Fri Mar 20 13:10:38 2020

Memory usage per processor = 5.23812 Mbytes
    Step    Atoms         KinEng            rke         Volume 
   14900        1  1.3079284e-11              0          0.001 
CFD Coupling established at step 15000
   15000        1  1.3074135e-11              0          0.001 
Loop time of 0.000555515 on 2 procs for 100 steps with 1 atoms, finish time Fri Mar 20 13:10:38 2020


Pair  time (%) = 7.36713e-05 (13.2618)
Neigh time (%) = 0 (0)
Comm  time (%) = 5.68628e-05 (10.2361)
Outpt time (%) = 8.15392e-05 (14.6781)
Other time (%) = 0.000343442 (61.824)

Nlocal:    0.5 ave 1 max 0 min
Histogram: 1 0 0 0 0 0 0 0 0 1
Nghost:    0.5 ave 1 max 0 min
Histogram: 1 0 0 0 0 0 0 0 0 1
Neighs:    0 ave 0 max 0 min
Histogram: 2 0 0 0 0 0 0 0 0 0

Total # of neighbors = 0
Ave neighs/atom = 0
Neighbor list builds = 0
Dangerous builds = 0
couplingStep = 150
Executing command: 'write_restart ../DEM/post/restart/liggghts.restartCFDEM'
write_restart ../DEM/post/restart/liggghts.restartCFDEM
System init for write_restart ...
LIGGGHTS finished
Foam::cfdemCloud::setNumberOfClumps(int nC) ... do nothing
number of particles = 1
DICPCG:  Solving for sSmoothField, Initial residual = 0.0283381, Final residual = 6.46034e-09, No Iterations 2
DICPCG:  Solving for vSmoothFieldx, Initial residual = 5.83279e-07, Final residual = 2.63951e-10, No Iterations 1
DICPCG:  Solving for vSmoothFieldy, Initial residual = 5.83279e-07, Final residual = 2.63951e-10, No Iterations 1
DICPCG:  Solving for vSmoothFieldz, Initial residual = 5.83279e-07, Final residual = 2.63951e-10, No Iterations 1

// * * * * * * * * * * Coupling - done * * * * * * * * * * //

using voidfraction blend, tsf=1
Setting mixDiFeliceDrag force......
Setting mixDiFeliceDrag force - done

Setting Archimedes force......
Setting Archimedes force - done

// * * * * * * * * * * * * * * * Foam::cfdemCloudMix::evolve() - done * * * * * * * * * * * * * * * //

DICPCG:  Solving for vSmoothFieldx, Initial residual = 0.0283381, Final residual = 6.46034e-09, No Iterations 2
DICPCG:  Solving for vSmoothFieldy, Initial residual = 0.0283381, Final residual = 6.46034e-09, No Iterations 2
DICPCG:  Solving for vSmoothFieldz, Initial residual = 0.0283381, Final residual = 6.46034e-09, No Iterations 2
calculate total implicit force
  TotalForceImp:  (7.08556e-12 -1.5372e-08 7.08556e-12)
  Warning, these values are based on latest Ksl and Us but prev. iteration U!

DILUPBiCG:  Solving for Ux, Initial residual = 0.0105596, Final residual = 9.45152e-07, No Iterations 1
DILUPBiCG:  Solving for Uy, Initial residual = 0.00481757, Final residual = 2.44837e-07, No Iterations 1
DILUPBiCG:  Solving for Uz, Initial residual = 0.0105596, Final residual = 9.45152e-07, No Iterations 1
DICPCG:  Solving for p, Initial residual = 0.0619276, Final residual = 0.00544377, No Iterations 12
time step continuity errors : sum local = 4.36186e-09, global = -3.51746e-10, cumulative = -5.18558e-09
DICPCG:  Solving for p, Initial residual = 0.00473469, Final residual = 0.000226906, No Iterations 4
time step continuity errors : sum local = 2.12493e-10, global = 2.41353e-11, cumulative = -5.16144e-09
DICPCG:  Solving for p, Initial residual = 0.000225522, Final residual = 1.40886e-05, No Iterations 12
time step continuity errors : sum local = 1.31777e-11, global = 1.08604e-12, cumulative = -5.16036e-09
DICPCG:  Solving for p, Initial residual = 1.40446e-05, Final residual = 3.88303e-07, No Iterations 4
time step continuity errors : sum local = 3.63666e-13, global = 8.97546e-14, cumulative = -5.16027e-09
ExecutionTime = 1.87 s  ClockTime = 2 s

cfdemSolverMix.C: End

Finalising parallel run
