LIGGGHTS (Version LIGGGHTS-PUBLIC 3.8.0, compiled 2020-03-19-17:25:32 by dw, git commit 28301df8853491784b1d8b90533ea89b8c6af1e8)
echo            both
log             ../DEM/log.liggghts
