/*--------------------------------*- C++ -*----------------------------------*\
| =========                 |                                                 |
| \\      /  F ield         | OpenFOAM: The Open Source CFD Toolbox           |
|  \\    /   O peration     | Version:  5.x                                   |
|   \\  /    A nd           | Web:      www.OpenFOAM.org                      |
|    \\/     M anipulation  |                                                 |
\*---------------------------------------------------------------------------*/
FoamFile
{
    version     2.0;
    format      ascii;
    class       volVectorField;
    location    "0.045";
    object      U;
}
// * * * * * * * * * * * * * * * * * * * * * * * * * * * * * * * * * * * * * //

dimensions      [0 1 -1 0 0 0 0];

internalField   nonuniform List<vector> 
1539
(
(-8.5849e-06 -1.09843e-07 0.00165941)
(-8.44208e-06 -2.35884e-07 0.00165442)
(-5.21534e-06 -3.12487e-07 0.0016563)
(-5.25872e-06 -3.64948e-07 0.00165376)
(-3.5872e-07 -4.18668e-07 0.00165464)
(-8.61183e-06 4.4823e-06 0.00165851)
(-8.48872e-06 4.49192e-06 0.00165355)
(-5.25201e-06 4.46547e-06 0.00165544)
(-5.29456e-06 4.4777e-06 0.00165292)
(-3.91309e-07 4.45181e-06 0.0016538)
(-8.57428e-06 4.47399e-06 0.00166058)
(-8.45884e-06 4.50966e-06 0.00165571)
(-5.22956e-06 4.49468e-06 0.00165761)
(-5.27238e-06 4.52214e-06 0.00165515)
(-3.89336e-07 4.50665e-06 0.00165604)
(-8.57448e-06 7.58306e-06 0.00165875)
(-8.46797e-06 7.66374e-06 0.00165389)
(-5.23953e-06 7.66231e-06 0.00165578)
(-5.28259e-06 7.71543e-06 0.00165333)
(-4.02877e-07 7.7098e-06 0.00165421)
(-8.49113e-06 7.86091e-06 0.00166313)
(-8.37957e-06 7.94424e-06 0.00165835)
(-5.17788e-06 7.9519e-06 0.00166025)
(-5.22491e-06 8.00783e-06 0.00165785)
(-3.85703e-07 8.01145e-06 0.00165874)
(-3.72118e-06 -2.48483e-07 -0.000172448)
(-5.04542e-06 -6.85422e-08 -0.000172984)
(-3.93155e-06 7.82806e-10 -0.000173678)
(-3.39521e-06 9.52366e-08 -0.000174138)
(-1.15315e-06 1.42148e-07 -0.000174516)
(-3.69469e-06 2.22308e-06 -0.000172154)
(-5.00452e-06 2.31746e-06 -0.000172682)
(-3.8993e-06 2.34967e-06 -0.000173368)
(-3.36354e-06 2.41064e-06 -0.000173826)
(-1.12606e-06 2.43775e-06 -0.000174199)
(-3.62348e-06 2.93315e-06 -0.000171686)
(-4.91875e-06 3.01761e-06 -0.000172207)
(-3.83837e-06 3.04125e-06 -0.000172887)
(-3.30713e-06 3.09569e-06 -0.000173345)
(-1.09887e-06 3.1146e-06 -0.000173716)
(-3.60758e-06 4.13671e-06 -0.000171056)
(-4.89637e-06 4.20832e-06 -0.000171571)
(-3.82121e-06 4.22621e-06 -0.000172248)
(-3.29019e-06 4.27487e-06 -0.000172704)
(-1.08792e-06 4.28914e-06 -0.000173072)
(-3.54975e-06 3.15391e-06 -0.000170491)
(-4.82923e-06 3.21176e-06 -0.000170992)
(-3.77184e-06 3.22294e-06 -0.000171666)
(-3.24421e-06 3.26261e-06 -0.000172114)
(-1.07319e-06 3.27033e-06 -0.000172482)
(-9.27831e-06 1.22308e-07 0.00110034)
(-9.83591e-06 3.76131e-08 0.00109475)
(-6.49036e-06 -2.88307e-10 0.00109485)
(-6.20066e-06 -5.21338e-08 0.00109146)
(-7.62936e-07 -8.73296e-08 0.0010915)
(-9.29716e-06 5.33156e-06 0.00110025)
(-9.86648e-06 5.35805e-06 0.00109467)
(-6.51713e-06 5.3451e-06 0.00109476)
(-6.22846e-06 5.36051e-06 0.00109138)
(-7.88875e-07 5.34233e-06 0.00109141)
(-9.25055e-06 5.67935e-06 0.00110332)
(-9.82232e-06 5.72906e-06 0.0010978)
(-6.4879e-06 5.72331e-06 0.00109789)
(-6.20344e-06 5.7545e-06 0.00109455)
(-7.94649e-07 5.74325e-06 0.00109459)
(-9.24562e-06 8.92846e-06 0.00110319)
(-9.82247e-06 9.02993e-06 0.00109768)
(-6.49169e-06 9.03606e-06 0.00109777)
(-6.20852e-06 9.0997e-06 0.00109444)
(-8.06239e-07 9.09736e-06 0.00109447)
(-9.14618e-06 8.57486e-06 0.00110836)
(-9.7147e-06 8.67428e-06 0.00110295)
(-6.41815e-06 8.68561e-06 0.00110305)
(-6.14215e-06 8.74996e-06 0.00109978)
(-7.96983e-07 8.75395e-06 0.00109983)
(-9.46289e-06 -3.4446e-07 0.000269333)
(-1.05428e-05 -1.9963e-07 0.000263991)
(-7.2219e-06 -1.69318e-07 0.000263241)
(-6.73825e-06 -7.24553e-08 0.00025986)
(-1.19565e-06 -4.61501e-08 0.000259429)
(-9.43062e-06 5.20897e-06 0.000269596)
(-1.05046e-05 5.36934e-06 0.000264273)
(-7.19291e-06 5.39725e-06 0.000263528)
(-6.70893e-06 5.50491e-06 0.000260158)
(-1.17831e-06 5.52749e-06 0.000259732)
(-9.29764e-06 5.87489e-06 0.000272679)
(-1.03544e-05 6.03214e-06 0.000267441)
(-7.08633e-06 6.0549e-06 0.00026671)
(-6.60801e-06 6.1588e-06 0.000263393)
(-1.14052e-06 6.17629e-06 0.000262973)
(-9.2688e-06 9.17714e-06 0.000273303)
(-1.03245e-05 9.36267e-06 0.000268086)
(-7.06625e-06 9.38835e-06 0.000267358)
(-6.58755e-06 9.50827e-06 0.000264054)
(-1.13343e-06 9.52585e-06 0.000263636)
(-9.10711e-06 8.46739e-06 0.000278282)
(-1.01432e-05 8.62907e-06 0.00027319)
(-6.94077e-06 8.65346e-06 0.000272481)
(-6.47054e-06 8.75809e-06 0.000269255)
(-1.10395e-06 8.77374e-06 0.000268847)
(-1.47823e-05 2.45625e-07 0.00079823)
(-1.59301e-05 2.11737e-07 0.000788703)
(-1.06215e-05 1.89585e-07 0.000787854)
(-1.00122e-05 1.62308e-07 0.000781916)
(-1.26177e-06 1.35817e-07 0.000781446)
(-1.47813e-05 8.67735e-06 0.000798571)
(-1.59364e-05 8.80757e-06 0.000789052)
(-1.06323e-05 8.81457e-06 0.000788196)
(-1.00247e-05 8.89324e-06 0.000782264)
(-1.28435e-06 8.88657e-06 0.000781789)
(-1.46485e-05 9.38582e-06 0.000804091)
(-1.57928e-05 9.5422e-06 0.000794696)
(-1.05359e-05 9.55354e-06 0.000793853)
(-9.94022e-06 9.65044e-06 0.000787995)
(-1.28488e-06 9.64794e-06 0.000787527)
(-1.46206e-05 1.45327e-05 0.000804826)
(-1.57686e-05 1.47808e-05 0.000795456)
(-1.05241e-05 1.4809e-05 0.000794608)
(-9.93029e-06 1.49634e-05 0.000788765)
(-1.29528e-06 1.49725e-05 0.000788293)
(-1.43944e-05 1.37096e-05 0.000813751)
(-1.55166e-05 1.39359e-05 0.000804603)
(-1.03532e-05 1.39678e-05 0.000803782)
(-9.77677e-06 1.41111e-05 0.000798074)
(-1.28015e-06 1.41253e-05 0.000797616)
(-1.9264e-05 -5.85633e-09 0.000467287)
(-2.09221e-05 1.02294e-07 0.000454899)
(-1.40092e-05 1.13167e-07 0.00045348)
(-1.31463e-05 1.91222e-07 0.000445695)
(-1.75794e-06 1.99859e-07 0.000444896)
(-1.92233e-05 1.10703e-05 0.00046782)
(-2.0882e-05 1.1362e-05 0.000455467)
(-1.39817e-05 1.13967e-05 0.000454048)
(-1.31168e-05 1.15843e-05 0.000446281)
(-1.75384e-06 1.16089e-05 0.000445482)
(-1.89641e-05 1.21297e-05 0.000474904)
(-2.05956e-05 1.24357e-05 0.000462783)
(-1.37868e-05 1.24666e-05 0.000461399)
(-1.29341e-05 1.26608e-05 0.000453783)
(-1.71107e-06 1.26811e-05 0.000453)
(-1.89087e-05 1.88397e-05 0.000476092)
(-2.0545e-05 1.92729e-05 0.000464028)
(-1.37565e-05 1.93204e-05 0.000462644)
(-1.29024e-05 1.95895e-05 0.000455062)
(-1.70995e-06 1.96175e-05 0.000454279)
(-1.85192e-05 1.7655e-05 0.000487547)
(-2.01149e-05 1.80446e-05 0.000475839)
(-1.34703e-05 1.80969e-05 0.00047451)
(-1.26371e-05 1.83388e-05 0.000467156)
(-1.66574e-06 1.83693e-05 0.000466401)
(-2.75412e-05 6.11031e-07 0.000651658)
(-2.97412e-05 6.26192e-07 0.000633308)
(-1.98261e-05 6.08343e-07 0.000631245)
(-1.85961e-05 6.06931e-07 0.000619779)
(-2.18736e-06 5.7821e-07 0.000618629)
(-2.75054e-05 1.62944e-05 0.000652532)
(-2.97127e-05 1.66914e-05 0.000634216)
(-1.98182e-05 1.67343e-05 0.000632147)
(-1.85902e-05 1.69815e-05 0.000620707)
(-2.21438e-06 1.69905e-05 0.000619555)
(-2.71344e-05 1.76576e-05 0.000663139)
(-2.93012e-05 1.81034e-05 0.000645145)
(-1.9536e-05 1.81495e-05 0.000643117)
(-1.83398e-05 1.8432e-05 0.000631868)
(-2.20113e-06 1.84443e-05 0.000630746)
(-2.70484e-05 2.71796e-05 0.000664957)
(-2.92207e-05 2.78408e-05 0.00064703)
(-1.94895e-05 2.79233e-05 0.000644995)
(-1.82954e-05 2.83409e-05 0.000633788)
(-2.21311e-06 2.83776e-05 0.00063266)
(-2.64576e-05 2.55177e-05 0.000682025)
(-2.85574e-05 2.61085e-05 0.000664661)
(-1.9036e-05 2.61965e-05 0.000662695)
(-1.78857e-05 2.65732e-05 0.000651819)
(-2.17309e-06 2.66163e-05 0.00065073)
(-3.81603e-05 8.06407e-07 0.000535178)
(-4.13415e-05 9.16413e-07 0.000509935)
(-2.75379e-05 9.12284e-07 0.000506932)
(-2.57626e-05 9.94767e-07 0.00049099)
(-3.04065e-06 9.88216e-07 0.000489318)
(-3.80839e-05 2.25508e-05 0.000536394)
(-4.12737e-05 2.31995e-05 0.000511224)
(-2.74904e-05 2.32687e-05 0.000508232)
(-2.57083e-05 2.36737e-05 0.000492335)
(-3.04884e-06 2.37262e-05 0.000490667)
(-3.74932e-05 2.45553e-05 0.00055072)
(-4.06234e-05 2.52504e-05 0.000526158)
(-2.70638e-05 2.53156e-05 0.000523277)
(-2.53051e-05 2.5742e-05 0.000507815)
(-2.98171e-06 2.57863e-05 0.000506191)
(-3.73681e-05 3.7732e-05 0.000553239)
(-4.05131e-05 3.87953e-05 0.000528817)
(-2.69989e-05 3.89042e-05 0.000525944)
(-2.52376e-05 3.95463e-05 0.000510594)
(-2.99001e-06 3.96079e-05 0.000508981)
(-3.64013e-05 3.52386e-05 0.000576312)
(-3.94513e-05 3.62055e-05 0.000552825)
(-2.6313e-05 3.63291e-05 0.00055009)
(-2.46015e-05 3.69116e-05 0.000535348)
(-2.90915e-06 3.69832e-05 0.000533805)
(-5.3554e-05 1.62467e-06 0.000590601)
(-5.79948e-05 1.71288e-06 0.00055418)
(-3.87707e-05 1.70347e-06 0.000549638)
(-3.62104e-05 1.7449e-06 0.000526978)
(-4.06271e-06 1.71402e-06 0.000524443)
(-5.34429e-05 3.18369e-05 0.000592579)
(-5.78835e-05 3.29144e-05 0.000556295)
(-3.87074e-05 3.30786e-05 0.000551734)
(-3.61549e-05 3.38062e-05 0.000529165)
(-4.09066e-06 3.3863e-05 0.000526629)
(-5.24506e-05 3.45022e-05 0.000613329)
(-5.67528e-05 3.56958e-05 0.000577884)
(-3.7879e-05 3.58612e-05 0.000573431)
(-3.5426e-05 3.66915e-05 0.000551308)
(-4.03816e-06 3.67578e-05 0.000548866)
(-5.22198e-05 5.27801e-05 0.000617338)
(-5.65242e-05 5.45166e-05 0.000582103)
(-3.77117e-05 5.47451e-05 0.00057765)
(-3.52584e-05 5.58823e-05 0.000555634)
(-4.04224e-06 5.60001e-05 0.000553171)
(-5.06716e-05 4.93136e-05 0.000650688)
(-5.47879e-05 5.08617e-05 0.000616886)
(-3.65136e-05 5.10924e-05 0.000612643)
(-3.41713e-05 5.20894e-05 0.000591472)
(-3.93645e-06 5.22054e-05 0.000589146)
(-7.56858e-05 2.6316e-06 0.00051521)
(-8.23171e-05 2.8555e-06 0.000465352)
(-5.47405e-05 2.82558e-06 0.000458788)
(-5.09584e-05 2.98123e-06 0.000426794)
(-5.78893e-06 2.96416e-06 0.000422956)
(-7.54678e-05 4.52786e-05 0.000517989)
(-8.21311e-05 4.69037e-05 0.000468273)
(-5.46205e-05 4.70614e-05 0.000461828)
(-5.08141e-05 4.80039e-05 0.000430049)
(-5.8047e-06 4.81492e-05 0.000426314)
(-7.40138e-05 4.93146e-05 0.000546061)
(-8.05337e-05 5.10588e-05 0.000497744)
(-5.36403e-05 5.12311e-05 0.000491678)
(-4.98705e-05 5.22105e-05 0.00046119)
(-5.65036e-06 5.23283e-05 0.000457672)
(-7.36705e-05 7.51032e-05 0.000551444)
(-8.0214e-05 7.78095e-05 0.000503439)
(-5.34688e-05 7.81285e-05 0.000497431)
(-4.97169e-05 7.9723e-05 0.000467334)
(-5.68388e-06 7.99013e-05 0.000463941)
(-7.12317e-05 6.96128e-05 0.000596507)
(-7.75084e-05 7.20517e-05 0.000550802)
(-5.17273e-05 7.23942e-05 0.000545099)
(-4.80983e-05 7.38461e-05 0.0005164)
(-5.46863e-06 7.40596e-05 0.000513149)
(-0.000104976 4.13927e-06 0.000565562)
(-0.000114436 4.3579e-06 0.000491969)
(-7.73296e-05 4.45796e-06 0.000481258)
(-7.20423e-05 4.69361e-06 0.000436078)
(-8.22465e-06 4.75724e-06 0.000430719)
(-0.000104716 6.2688e-05 0.000570028)
(-0.000114063 6.5306e-05 0.000497015)
(-7.69322e-05 6.59693e-05 0.000486292)
(-7.16693e-05 6.82033e-05 0.000441105)
(-8.15179e-06 6.85789e-05 0.000435596)
(-0.000102289 6.79577e-05 0.000610666)
(-0.000111153 7.08614e-05 0.000539944)
(-7.44323e-05 7.14647e-05 0.00052974)
(-6.94327e-05 7.39768e-05 0.000485623)
(-7.88634e-06 7.43849e-05 0.000480079)
(-0.000101732 0.000103244 0.000619514)
(-0.000110555 0.000107593 0.000549605)
(-7.38167e-05 0.000108184 0.000539587)
(-6.87491e-05 0.00011111 0.000495984)
(-7.76717e-06 0.000111496 0.000490412)
(-9.78271e-05 9.58201e-05 0.000684993)
(-0.000106213 9.97254e-05 0.00061881)
(-7.09162e-05 0.000100274 0.000609605)
(-6.61211e-05 0.000102706 0.000568315)
(-7.53008e-06 0.000102971 0.000563317)
(-0.00015153 6.82984e-06 0.000427646)
(-0.000166648 7.60838e-06 0.000329447)
(-0.000110631 7.55738e-06 0.000317674)
(-0.000101496 7.70379e-06 0.000258614)
(-1.14639e-05 7.53379e-06 0.000251165)
(-0.000150716 9.0382e-05 0.000433671)
(-0.000165893 9.48789e-05 0.000335944)
(-0.00011053 9.55438e-05 0.000323812)
(-0.00010151 9.75486e-05 0.000264818)
(-1.16422e-05 9.75091e-05 0.000257953)
(-0.000146908 9.87997e-05 0.000487829)
(-0.000161484 0.000103648 0.000393475)
(-0.000107961 0.000104526 0.000380906)
(-9.9531e-05 0.000107089 0.000322906)
(-1.15427e-05 0.000107144 0.000316151)
(-0.000145726 0.000149455 0.000499408)
(-0.000160165 0.0001567 0.000405942)
(-0.000107089 0.000158019 0.000393051)
(-9.88911e-05 0.000162441 0.00033463)
(-1.16136e-05 0.000163165 0.000327519)
(-0.000139458 0.000137128 0.000586667)
(-0.00015292 0.000143396 0.000498418)
(-0.000102222 0.000144578 0.000486376)
(-9.43865e-05 0.000148405 0.000431284)
(-1.08163e-05 0.000149208 0.000424602)
(-0.000206348 9.8058e-06 0.000526295)
(-0.000224447 1.04794e-05 0.000381518)
(-0.000148163 1.0206e-05 0.000354774)
(-0.000138553 1.04359e-05 0.00025399)
(-1.61714e-05 1.10653e-05 0.000238754)
(-0.000205595 0.000122872 0.000536835)
(-0.000223962 0.000129335 0.000392573)
(-0.000148059 0.000129203 0.000367629)
(-0.000137529 0.000132497 0.000268549)
(-1.55258e-05 0.000133567 0.000253242)
(-0.0001997 0.000133695 0.000617515)
(-0.000218115 0.00014086 0.000476071)
(-0.000145002 0.000140704 0.000454978)
(-0.000134189 0.000143789 0.000366435)
(-1.51249e-05 0.000143951 0.000352779)
(-0.000198217 0.000202116 0.000636268)
(-0.00021695 0.000212574 0.000497061)
(-0.000145129 0.000213691 0.000475594)
(-0.000134282 0.000219527 0.000391035)
(-1.53748e-05 0.000219986 0.000379229)
(-0.000188944 0.000185936 0.000764397)
(-0.00020654 0.000195209 0.000635161)
(-0.000138051 0.000196644 0.000615893)
(-0.000127896 0.0002025 0.000534169)
(-1.47498e-05 0.000203216 0.000522847)
(-0.000300934 1.69251e-05 0.000269628)
(-0.000338221 1.81936e-05 6.69512e-05)
(-0.000238156 1.98844e-05 2.7698e-05)
(-0.000217514 2.1732e-05 -9.54312e-05)
(-2.72539e-05 2.14529e-05 -0.000117076)
(-0.000299553 0.000181601 0.000283491)
(-0.00033515 0.00018943 8.52844e-05)
(-0.000234551 0.000195746 4.64558e-05)
(-0.000215895 0.000209992 -7.49294e-05)
(-2.75209e-05 0.000211532 -9.64076e-05)
(-0.000292741 0.00019823 0.000387968)
(-0.000324071 0.000208134 0.000203915)
(-0.000217594 0.000212488 0.000167725)
(-0.000201728 0.000229572 4.50787e-05)
(-2.57829e-05 0.000233129 2.5275e-05)
(-0.000289243 0.000296386 0.000416212)
(-0.000320888 0.000315839 0.000234697)
(-0.000213112 0.000318984 0.000203268)
(-0.000195255 0.000330226 8.31753e-05)
(-2.39764e-05 0.000333285 6.37561e-05)
(-0.000272738 0.000269289 0.000585178)
(-0.000301473 0.000285794 0.000414749)
(-0.000203211 0.000289253 0.000385884)
(-0.000187431 0.000296102 0.000280162)
(-2.26953e-05 0.000297443 0.000265492)
(-0.000415411 2.32478e-05 0.000427251)
(-0.000466467 2.83351e-05 0.000119161)
(-0.000310548 2.84635e-05 5.27852e-05)
(-0.00028333 3.04191e-05 -0.000130344)
(-3.83999e-05 3.11721e-05 -0.000171252)
(-0.00041012 0.000241216 0.000451393)
(-0.000461087 0.000266305 0.000150341)
(-0.000308275 0.000269236 8.58339e-05)
(-0.000280396 0.00027301 -9.34001e-05)
(-3.76193e-05 0.000275921 -0.00013156)
(-0.000389844 0.000266417 0.000605361)
(-0.000438442 0.000290276 0.000321254)
(-0.000303842 0.00029752 0.000260963)
(-0.000276645 0.000301896 8.42996e-05)
(-3.56395e-05 0.000304117 5.00285e-05)
(-0.00038571 0.000399394 0.000650115)
(-0.000429976 0.000423489 0.000378795)
(-0.000296654 0.000431934 0.000320597)
(-0.000273799 0.0004547 0.000148086)
(-3.55377e-05 0.000460293 0.000115578)
(-0.000364954 0.000360464 0.000894228)
(-0.000405902 0.00038122 0.000648345)
(-0.000272639 0.000385333 0.000602968)
(-0.000248291 0.000405785 0.000447296)
(-3.02046e-05 0.000411317 0.000421472)
(-0.000618486 4.06159e-05 5.02411e-06)
(-0.000712793 4.88397e-05 -0.000366737)
(-0.000487655 5.23839e-05 -0.000462418)
(-0.000441552 5.80799e-05 -0.000709127)
(-6.87759e-05 6.04875e-05 -0.000768563)
(-0.000609918 0.000359705 4.518e-05)
(-0.000700813 0.000391516 -0.000323134)
(-0.000478285 0.000403917 -0.000412889)
(-0.000433288 0.000424634 -0.000654076)
(-6.63457e-05 0.000432813 -0.000710311)
(-0.000585728 0.000396944 0.000254903)
(-0.000668569 0.000436575 -0.000109251)
(-0.000454536 0.000447239 -0.000189429)
(-0.000412656 0.000471052 -0.000415155)
(-6.06728e-05 0.000480261 -0.000465889)
(-0.000569164 0.000585355 0.000317029)
(-0.000650504 0.000643029 -3.47668e-05)
(-0.000443808 0.000661088 -0.000109897)
(-0.000400265 0.000693327 -0.000325941)
(-5.7158e-05 0.000704834 -0.000370707)
(-0.000526486 0.000521248 0.000630036)
(-0.000592835 0.000563926 0.000314708)
(-0.000404252 0.000580484 0.000251915)
(-0.000368921 0.000604602 3.9566e-05)
(-4.91711e-05 0.000612772 -1.85773e-06)
(-0.000800105 6.28712e-05 0.000159317)
(-0.000934102 7.12607e-05 -0.000425599)
(-0.000652934 7.72399e-05 -0.000610547)
(-0.00058948 8.45901e-05 -0.000999425)
(-9.88346e-05 8.84851e-05 -0.00112033)
(-0.00079113 0.000491109 0.00022594)
(-0.000919345 0.000523801 -0.000341721)
(-0.000639214 0.000542234 -0.00051421)
(-0.000577824 0.000566988 -0.000889842)
(-9.49051e-05 0.0005786 -0.00100092)
(-0.00076618 0.000538267 0.000545661)
(-0.000882959 0.000578646 -3.01373e-06)
(-0.000609749 0.000600515 -0.000155676)
(-0.000553115 0.000630028 -0.000516545)
(-8.75181e-05 0.000643718 -0.000614318)
(-0.000749318 0.000774665 0.000655121)
(-0.000857077 0.000847623 0.000130074)
(-0.000587832 0.000873464 -3.72956e-06)
(-0.000534619 0.00090961 -0.000344827)
(-8.1421e-05 0.000924517 -0.000430084)
(-0.00069129 0.000684451 0.00114057)
(-0.00078416 0.000742479 0.000652638)
(-0.000547783 0.000759298 0.000542403)
(-0.000502079 0.000783961 0.000220383)
(-7.28171e-05 0.000793073 0.000152614)
(-0.00122294 0.000106422 -0.00038616)
(-0.0014829 0.000131915 -0.00116531)
(-0.00106146 0.000147886 -0.00143611)
(-0.00095134 0.0001668 -0.00195407)
(-0.000190577 0.00017897 -0.00213449)
(-0.00119658 0.00074603 -0.000293977)
(-0.00144119 0.00081409 -0.00104378)
(-0.00102638 0.000858784 -0.00129472)
(-0.000920009 0.00090752 -0.00179034)
(-0.000178425 0.00093883 -0.00195545)
(-0.0011524 0.000826096 9.17005e-05)
(-0.00137011 0.00090834 -0.000613142)
(-0.000968043 0.000957694 -0.000834932)
(-0.000871294 0.00101605 -0.00129811)
(-0.000159462 0.00105108 -0.0014411)
(-0.00111134 0.00118048 0.000243023)
(-0.00130955 0.00129888 -0.000418918)
(-0.000918678 0.00135937 -0.000613911)
(-0.000826609 0.00143048 -0.00104786)
(-0.000143473 0.00147201 -0.001171)
(-0.00102983 0.00102207 0.000843429)
(-0.00119122 0.00110358 0.000239586)
(-0.000836477 0.00114458 8.73256e-05)
(-0.000758691 0.00118879 -0.000301314)
(-0.000118009 0.00121498 -0.000395572)
(-0.00160654 0.000154461 -0.000361645)
(-0.00198447 0.000191822 -0.00158074)
(-0.00144168 0.000217615 -0.00213778)
(-0.00128788 0.00024698 -0.00298325)
(-0.000280843 0.000266073 -0.00339916)
(-0.00156735 0.000969006 -0.000185208)
(-0.00192049 0.00107599 -0.00134014)
(-0.00138576 0.00114343 -0.00183887)
(-0.00123858 0.00122297 -0.00262635)
(-0.000261683 0.00127201 -0.00298513)
(-0.00149565 0.00107527 0.000411694)
(-0.00180999 0.00120349 -0.000677826)
(-0.0012947 0.00128131 -0.00110556)
(-0.0011593 0.00137249 -0.00184222)
(-0.000232289 0.00142816 -0.00214302)
(-0.00143462 0.00152667 0.000687818)
(-0.00171437 0.00170071 -0.000317246)
(-0.00121676 0.00179612 -0.000678626)
(-0.00109172 0.00190681 -0.00134433)
(-0.000206391 0.00197046 -0.00158676)
(-0.00131631 0.00130598 0.00160711)
(-0.00154054 0.00142429 0.000683846)
(-0.00108868 0.0014851 0.000407013)
(-0.000985014 0.00155687 -0.000193119)
(-0.000169087 0.00159572 -0.000371316)
(-0.00248317 0.000281973 -0.00100435)
(-0.00325961 0.000371461 -0.0025915)
(-0.00246391 0.000445778 -0.00339223)
(-0.00221275 0.0005224 -0.00452684)
(-0.000607936 0.000591753 -0.00513783)
(-0.00239066 0.00151933 -0.000758575)
(-0.00309539 0.001717 -0.00224514)
(-0.00231253 0.00189102 -0.00295851)
(-0.0020663 0.00204858 -0.00399465)
(-0.000538711 0.002195 -0.00452698)
(-0.00227838 0.00169904 -4.10177e-05)
(-0.00288781 0.00193114 -0.00141266)
(-0.00213236 0.00211785 -0.00201754)
(-0.00190877 0.002298 -0.00296443)
(-0.000461868 0.0024494 -0.00339909)
(-0.00215006 0.00237633 0.000328997)
(-0.00267641 0.00266096 -0.000911831)
(-0.00194567 0.00287239 -0.00141302)
(-0.00173473 0.00308012 -0.00225097)
(-0.000387562 0.00324429 -0.00259843)
(-0.00198273 0.00197095 0.0014058)
(-0.00239175 0.00213828 0.000323325)
(-0.00171335 0.00226662 -4.73369e-05)
(-0.00153698 0.00237909 -0.00076999)
(-0.00029799 0.0024715 -0.00101762)
(-0.00325166 0.000399684 -0.00138153)
(-0.00437328 0.000536545 -0.00394441)
(-0.00337695 0.000649513 -0.0057275)
(-0.00303359 0.000776467 -0.00766566)
(-0.000895137 0.000873953 -0.00924993)
(-0.00310869 0.00193243 -0.000898689)
(-0.0041213 0.00225488 -0.00322278)
(-0.00313519 0.00251818 -0.00472793)
(-0.00280712 0.00278545 -0.00642059)
(-0.000797376 0.00301085 -0.007668)
(-0.00291729 0.0021628 0.000230443)
(-0.00378734 0.00253673 -0.00192197)
(-0.00284641 0.00282673 -0.00316837)
(-0.00254092 0.0031161 -0.00473264)
(-0.000670195 0.00335665 -0.00573424)
(-0.00272135 0.00297399 0.000923638)
(-0.00345713 0.00343743 -0.000960435)
(-0.00255582 0.00376715 -0.00192253)
(-0.00227717 0.00410213 -0.00322837)
(-0.000556932 0.00435286 -0.00395189)
(-0.00243818 0.00242208 0.00259046)
(-0.00299419 0.00270525 0.000918204)
(-0.00218196 0.0029007 0.000224754)
(-0.00195538 0.00309253 -0.000908847)
(-0.000419573 0.00323439 -0.00139346)
(-0.00513545 0.000764076 -0.00179177)
(-0.0076069 0.00109138 -0.00505353)
(-0.00618503 0.00144426 -0.0075455)
(-0.00573528 0.0017652 -0.0102588)
(-0.00219469 0.00217256 -0.012623)
(-0.00479646 0.00313127 -0.00115257)
(-0.0069258 0.0037394 -0.00402849)
(-0.00551019 0.00445019 -0.00611925)
(-0.00500642 0.00498164 -0.0083459)
(-0.00178826 0.00571079 -0.0102536)
(-0.00450533 0.00352115 0.000138812)
(-0.00628765 0.00419323 -0.0024585)
(-0.00494282 0.00492305 -0.00414178)
(-0.00447469 0.00549006 -0.0061301)
(-0.0014662 0.00616538 -0.00755395)
(-0.00409943 0.00473731 0.00101384)
(-0.00552344 0.005502 -0.00118075)
(-0.00421336 0.00626654 -0.00245724)
(-0.00376405 0.00690509 -0.00403643)
(-0.00111371 0.00758639 -0.0050599)
(-0.00371079 0.00369348 0.00285793)
(-0.00475842 0.00408211 0.00100517)
(-0.00354019 0.00448835 0.000130261)
(-0.00315516 0.00478024 -0.00116902)
(-0.000785176 0.00511923 -0.00180907)
(-0.00663751 0.0010378 -0.003042)
(-0.0101292 0.00155804 -0.00830527)
(-0.00858239 0.00207173 -0.0139911)
(-0.00811153 0.00268387 -0.0188937)
(-0.00326718 0.00323726 -0.0254985)
(-0.00609723 0.00386311 -0.00173736)
(-0.00908994 0.00484999 -0.00618644)
(-0.00745247 0.00592207 -0.0105886)
(-0.00694172 0.00691441 -0.0143575)
(-0.00271318 0.00808036 -0.0188962)
(-0.00561471 0.00432895 0.000388158)
(-0.00806968 0.00538423 -0.00373792)
(-0.0065178 0.00648853 -0.00721443)
(-0.00595325 0.00742544 -0.0105951)
(-0.00210058 0.00855052 -0.0139988)
(-0.00500289 0.00569387 0.00197056)
(-0.00692961 0.00690249 -0.00130423)
(-0.00541126 0.00804094 -0.00373734)
(-0.00487991 0.00906515 -0.00619344)
(-0.00158614 0.0101 -0.0083134)
(-0.00436104 0.0043361 0.0048086)
(-0.00572261 0.00497796 0.0019629)
(-0.00435589 0.00558813 0.00038194)
(-0.00389482 0.00607241 -0.00175047)
(-0.00106405 0.00660911 -0.00305608)
(-0.0105944 0.00206792 -0.0023414)
(-0.0185589 0.00320641 -0.00905649)
(-0.0167747 0.00484583 -0.0171273)
(-0.0172435 0.00629544 -0.0246812)
(-0.00880898 0.00877634 -0.0353717)
(-0.00941298 0.00656153 -0.000707304)
(-0.0157793 0.00830656 -0.00594261)
(-0.0136817 0.011227 -0.0120922)
(-0.0133141 0.0132804 -0.0170133)
(-0.0063329 0.0172112 -0.0246601)
(-0.00878176 0.00722887 0.00156755)
(-0.0138924 0.00907495 -0.00313344)
(-0.0117999 0.0117743 -0.00773394)
(-0.0112592 0.0136546 -0.0121126)
(-0.00487651 0.0167494 -0.0171336)
(-0.00749466 0.0091599 0.00346409)
(-0.0112328 0.0112043 -3.19437e-05)
(-0.00910206 0.0138651 -0.00312816)
(-0.00833993 0.0157519 -0.0059533)
(-0.00323822 0.0185321 -0.00905767)
(-0.00665698 0.00663183 0.00635414)
(-0.00918723 0.00746951 0.00345145)
(-0.00725336 0.00875781 0.00155783)
(-0.00659327 0.00939047 -0.000729286)
(-0.00209665 0.0105721 -0.00235966)
(-0.0136188 0.00266799 -0.00404511)
(-0.0249176 0.00466356 -0.0144701)
(-0.0242101 0.00709812 -0.0317106)
(-0.0263501 0.010348 -0.0465948)
(-0.0139942 0.0139597 -0.0768662)
(-0.0115572 0.00777178 -0.000894191)
(-0.0204776 0.0107725 -0.00865505)
(-0.0185239 0.0153142 -0.0205215)
(-0.0195068 0.0194801 -0.0295394)
(-0.0103871 0.0263126 -0.046583)
(-0.0105085 0.00849923 0.00258659)
(-0.017374 0.0112945 -0.0043913)
(-0.0154966 0.0154522 -0.0130999)
(-0.0153517 0.0184862 -0.0205292)
(-0.00713729 0.024156 -0.0317105)
(-0.00865023 0.010481 0.00571361)
(-0.0135241 0.0134896 0.000984859)
(-0.0113322 0.0173356 -0.00438874)
(-0.0108089 0.0204512 -0.00866427)
(-0.00470213 0.0248763 -0.0144756)
(-0.00738005 0.00734221 0.0097637)
(-0.0105194 0.0086124 0.0057044)
(-0.00853551 0.0104666 0.00258292)
(-0.00781204 0.0115208 -0.000905897)
(-0.00270149 0.013573 -0.00405229)
(-0.0214486 0.00521765 -0.000662694)
(-0.0462333 0.0090122 -0.013397)
(-0.0489206 0.0160392 -0.0394574)
(-0.0624086 0.0233472 -0.0651748)
(-0.039217 0.039144 -0.120786)
(-0.0175009 0.0131937 0.00331885)
(-0.0354104 0.0183859 -0.00449489)
(-0.0345754 0.0298381 -0.0212924)
(-0.0393695 0.0393396 -0.0315989)
(-0.0234378 0.0623764 -0.0651404)
(-0.0160419 0.0138371 0.00690979)
(-0.0295835 0.0187164 -0.000332887)
(-0.0279427 0.0279119 -0.0116943)
(-0.0298703 0.034539 -0.0213251)
(-0.0160865 0.0488781 -0.0394402)
(-0.0124189 0.0163412 0.0103539)
(-0.0213374 0.0213023 0.00608153)
(-0.0187528 0.0295525 -0.00032296)
(-0.0184274 0.0353791 -0.00451261)
(-0.00906384 0.0461991 -0.0133956)
(-0.0108765 0.0108419 0.0140195)
(-0.0163722 0.0123842 0.0103367)
(-0.0138641 0.0160115 0.00690086)
(-0.013229 0.0174757 0.00328961)
(-0.0052527 0.0214244 -0.000670711)
(-0.0269086 0.00663909 0.00294344)
(-0.0636838 0.0135506 -0.0151726)
(-0.0759887 0.0252679 -0.0589962)
(-0.107298 0.0441082 -0.11568)
(-0.070313 0.0703417 -0.271977)
(-0.0197819 0.0153422 0.00830197)
(-0.0450809 0.0238268 -0.00219533)
(-0.0456358 0.0430426 -0.0279183)
(-0.0632737 0.0632484 -0.0512221)
(-0.0441531 0.107276 -0.115504)
(-0.01808 0.0155306 0.01277)
(-0.0359773 0.0218722 0.00378993)
(-0.0364878 0.0364206 -0.0121786)
(-0.0430631 0.0455803 -0.0279364)
(-0.0253201 0.0759014 -0.0589456)
(-0.0131458 0.0175885 0.0168264)
(-0.0242009 0.0241591 0.0122222)
(-0.0219276 0.0359299 0.00379609)
(-0.0238718 0.045058 -0.00221184)
(-0.0136121 0.0636174 -0.0151568)
(-0.0112271 0.0111717 0.0205987)
(-0.0176359 0.0130904 0.0168165)
(-0.015579 0.0180187 0.0127749)
(-0.0153815 0.0197337 0.00829712)
(-0.00668314 0.0268529 0.00296821)
(-0.0404563 0.0105774 0.0137827)
(-0.108202 0.0220046 -0.00129835)
(-0.149628 0.047335 -0.0720871)
(-0.277297 0.0891309 -0.184093)
(-0.205841 0.205526 -0.501288)
(-0.0285332 0.0230206 0.0204005)
(-0.0716475 0.0373482 0.0152997)
(-0.0836646 0.076625 -0.0166796)
(-0.12697 0.127094 -0.0296627)
(-0.0894641 0.2773 -0.184125)
(-0.0254534 0.0223658 0.0236095)
(-0.0545442 0.0331521 0.0179317)
(-0.0597076 0.0596648 -0.000127192)
(-0.0766071 0.0836111 -0.0166952)
(-0.0474323 0.149427 -0.0718779)
(-0.017268 0.0241758 0.0267804)
(-0.0343772 0.0343382 0.0252574)
(-0.0332049 0.054518 0.0179314)
(-0.0373801 0.0716295 0.0152631)
(-0.0220964 0.108142 -0.00135161)
(-0.0148443 0.0147993 0.0287392)
(-0.024202 0.017223 0.026761)
(-0.0223877 0.0254214 0.0236048)
(-0.023036 0.0285193 0.0203712)
(-0.0106089 0.0404411 0.0138212)
(-0.0429009 0.013237 0.0395384)
(-0.149172 0.0301999 0.0335311)
(-0.225002 0.0815091 -0.00653134)
(-0.490782 0.127305 -0.127236)
(-0.857422 0.383247 -0.972441)
(-0.0254041 0.0251531 0.0397821)
(-0.0820828 0.042951 0.040463)
(-0.0899367 0.114655 0.018383)
(-0.228746 0.228736 -0.0362)
(-0.230789 0.505435 -0.297958)
(-0.0241461 0.0219099 0.0412781)
(-0.0596792 0.0318179 0.0396809)
(-0.0710884 0.0710049 0.0347148)
(-0.114469 0.0898465 0.0183714)
(-0.0816331 0.225163 -0.00627626)
(-0.0148748 0.0227172 0.040289)
(-0.0330337 0.0329722 0.0420787)
(-0.0319099 0.059627 0.0396939)
(-0.0430492 0.0820463 0.0404039)
(-0.0303555 0.148938 0.0334954)
(-0.0133515 0.0132761 0.0393742)
(-0.0227693 0.0147994 0.0402715)
(-0.021968 0.0240799 0.041285)
(-0.0251495 0.0253631 0.0397604)
(-0.0132855 0.0429367 0.0395922)
(-0.0473669 0.0108293 0.0812441)
(-0.149028 0.0290987 0.108647)
(-0.225181 0.0732566 0.212008)
(-0.800177 0.206763 0.132445)
(-2.99099 0.477845 -1.64424)
(-0.0282414 0.0247565 0.0700356)
(-0.0924917 0.0432992 0.0818768)
(-0.108199 0.114481 0.1378)
(-0.371889 0.243334 0.201088)
(-0.592871 0.91661 0.224991)
(-0.0273157 0.0228746 0.0627755)
(-0.0610464 0.0347487 0.075995)
(-0.0805634 0.0805224 0.106514)
(-0.11421 0.1083 0.137834)
(-0.0736031 0.225693 0.212268)
(-0.0155532 0.0222732 0.0552218)
(-0.0349467 0.0349033 0.061767)
(-0.0348608 0.0610271 0.0759946)
(-0.0433806 0.0924655 0.0818012)
(-0.0291804 0.148779 0.108603)
(-0.0139554 0.0138923 0.0495472)
(-0.0222925 0.01549 0.0551955)
(-0.0229007 0.027277 0.0627577)
(-0.024725 0.028265 0.0699942)
(-0.0108751 0.0474418 0.081249)
(-0.0153631 0.00207069 0.105875)
(-0.0139044 0.00368996 0.136229)
(-0.00771356 0.00654957 0.290305)
(-0.113383 0.0197912 0.579875)
(0.143999 -0.0615035 -6.21083)
(-0.01358 0.00675294 0.0893546)
(-0.0144128 0.0107171 0.110763)
(-0.0211619 0.00609859 0.190763)
(0.0461762 -0.0461687 0.298079)
(0.0780243 -0.164031 0.784965)
(-0.0108354 0.00713648 0.0774795)
(-0.0161567 0.0119207 0.0978425)
(-0.00912155 0.00907253 0.142384)
(-0.00565051 0.0213484 0.190095)
(-0.00663819 0.0090448 0.28959)
(-0.00821335 0.00951585 0.0661026)
(-0.0123783 0.0122902 0.0778507)
(-0.0120889 0.0160872 0.0979936)
(-0.0108598 0.0143068 0.110764)
(-0.00386332 0.0134103 0.136763)
(-0.00759328 0.00749084 0.0561462)
(-0.00958579 0.00811085 0.066047)
(-0.00720983 0.0107511 0.0774519)
(-0.00672606 0.0135731 0.0891904)
(-0.00213509 0.0154491 0.105756)
(-0.0151111 -0.00576701 0.0751353)
(0.0310315 0.00315143 0.0853013)
(-0.00162765 -0.0317754 0.0711201)
(0.302572 -0.11108 -0.300756)
(0.952953 -0.457592 -3.16394)
(-0.00581363 -0.00370235 0.0715095)
(0.00600757 0.00515668 0.085072)
(0.00804102 -0.0321668 0.0841274)
(0.070798 -0.0676554 0.0350774)
(0.113302 -0.298299 -0.300422)
(-0.00600241 -0.00039906 0.0674067)
(0.00371049 0.00196162 0.0775239)
(0.00861475 -0.00917909 0.0852973)