/*--------------------------------*- C++ -*----------------------------------*\
| =========                 |                                                 |
| \\      /  F ield         | OpenFOAM: The Open Source CFD Toolbox           |
|  \\    /   O peration     | Version:  5.x                                   |
|   \\  /    A nd           | Web:      www.OpenFOAM.org                      |
|    \\/     M anipulation  |                                                 |
\*---------------------------------------------------------------------------*/
FoamFile
{
    version     2.0;
    format      ascii;
    class       volVectorField;
    location    "0.018";
    object      U;
}
// * * * * * * * * * * * * * * * * * * * * * * * * * * * * * * * * * * * * * //

dimensions      [0 1 -1 0 0 0 0];

internalField   nonuniform List<vector> 
1560
(
(-8.20356e-07 3.54372e-08 0.000363713)
(-9.23809e-07 3.52155e-08 0.000363125)
(-6.07183e-07 3.26948e-08 0.000363259)
(-5.55123e-07 3.91438e-08 0.000362982)
(-7.40568e-08 3.76608e-08 0.000363046)
(-8.22587e-07 5.0082e-07 0.000363642)
(-9.26456e-07 5.09528e-07 0.000363061)
(-6.07421e-07 5.10896e-07 0.000363194)
(-5.55509e-07 5.20201e-07 0.000362921)
(-7.42229e-08 5.21313e-07 0.000362983)
(-8.11442e-07 5.46026e-07 0.00036387)
(-9.13721e-07 5.5881e-07 0.000363303)
(-5.96512e-07 5.60513e-07 0.000363439)
(-5.44705e-07 5.71331e-07 0.000363174)
(-6.72357e-08 5.72887e-07 0.000363238)
(-8.09565e-07 8.60309e-07 0.00036373)
(-9.11961e-07 8.75279e-07 0.000363167)
(-5.94899e-07 8.78017e-07 0.000363301)
(-5.43136e-07 8.89458e-07 0.000363038)
(-6.66523e-08 8.9159e-07 0.000363101)
(-7.96255e-07 7.59661e-07 0.000364255)
(-8.96006e-07 7.72969e-07 0.000363704)
(-5.82328e-07 7.75823e-07 0.000363842)
(-5.31132e-07 7.8571e-07 0.000363586)
(-6.00565e-08 7.87992e-07 0.000363652)
(-5.30088e-07 -8.05284e-10 -7.66265e-05)
(-7.13068e-07 3.22511e-08 -7.67993e-05)
(-5.41985e-07 4.47549e-08 -7.6874e-05)
(-4.60261e-07 6.44862e-08 -7.69993e-05)
(-1.14702e-07 7.40653e-08 -7.70388e-05)
(-5.21709e-07 3.74675e-07 -7.65879e-05)
(-7.00879e-07 3.9297e-07 -7.67592e-05)
(-5.32442e-07 4.00468e-07 -7.68335e-05)
(-4.50459e-07 4.13454e-07 -7.69589e-05)
(-1.08215e-07 4.20518e-07 -7.69977e-05)
(-5.11499e-07 4.73919e-07 -7.64478e-05)
(-6.87262e-07 4.87622e-07 -7.66192e-05)
(-5.21501e-07 4.93256e-07 -7.66931e-05)
(-4.40211e-07 5.03533e-07 -7.68189e-05)
(-1.02446e-07 5.0856e-07 -7.68578e-05)
(-5.07807e-07 6.53919e-07 -7.63738e-05)
(-6.81534e-07 6.64795e-07 -7.65444e-05)
(-5.1653e-07 6.68944e-07 -7.66176e-05)
(-4.35156e-07 6.7735e-07 -7.6743e-05)
(-9.93969e-08 6.81028e-07 -7.67813e-05)
(-5.00485e-07 4.93659e-07 -7.61906e-05)
(-6.72229e-07 5.00982e-07 -7.6359e-05)
(-5.08945e-07 5.03072e-07 -7.64316e-05)
(-4.28126e-07 5.08658e-07 -7.65558e-05)
(-9.69166e-08 5.10191e-07 -7.6594e-05)
(-1.00163e-06 8.84711e-08 0.000197376)
(-1.17965e-06 8.81215e-08 0.000196665)
(-8.1388e-07 8.69414e-08 0.000196593)
(-7.25417e-07 9.04334e-08 0.000196163)
(-1.09554e-07 9.03314e-08 0.000196127)
(-1.00242e-06 6.83773e-07 0.00019742)
(-1.18048e-06 6.93935e-07 0.000196709)
(-8.13676e-07 6.96208e-07 0.000196635)
(-7.25105e-07 7.05161e-07 0.000196206)
(-1.0875e-07 7.06897e-07 0.000196169)
(-9.9128e-07 7.6556e-07 0.000197827)
(-1.16721e-06 7.79295e-07 0.000197125)
(-8.02655e-07 7.82118e-07 0.000197053)
(-7.14727e-07 7.93068e-07 0.000196631)
(-1.03542e-07 7.952e-07 0.000196595)
(-9.88471e-07 1.12502e-06 0.000197898)
(-1.16391e-06 1.14307e-06 0.0001972)
(-7.99903e-07 1.14714e-06 0.000197128)
(-7.12023e-07 1.16029e-06 0.000196708)
(-1.02773e-07 1.16321e-06 0.000196671)
(-9.73004e-07 9.5108e-07 0.000198575)
(-1.14509e-06 9.66546e-07 0.000197891)
(-7.85426e-07 9.70122e-07 0.000197822)
(-6.98657e-07 9.81199e-07 0.000197411)
(-9.75793e-08 9.83654e-07 0.000197377)
(-1.24894e-06 5.08949e-08 7.37668e-05)
(-1.49661e-06 7.85574e-08 7.29211e-05)
(-1.04386e-06 8.66974e-08 7.27586e-05)
(-9.25605e-07 1.06303e-07 7.22274e-05)
(-1.54134e-07 1.14519e-07 7.21423e-05)
(-1.24046e-06 8.25358e-07 7.38477e-05)
(-1.48536e-06 8.5289e-07 7.30059e-05)
(-1.03485e-06 8.61125e-07 7.28441e-05)
(-9.16546e-07 8.80972e-07 7.23149e-05)
(-1.47578e-07 8.87875e-07 7.22302e-05)
(-1.22103e-06 9.52407e-07 7.43663e-05)
(-1.46084e-06 9.78482e-07 7.35359e-05)
(-1.01578e-06 9.85959e-07 7.3377e-05)
(-8.98854e-07 1.00472e-06 7.28548e-05)
(-1.396e-07 1.01063e-06 7.27713e-05)
(-1.21406e-06 1.40171e-06 7.45213e-05)
(-1.4518e-06 1.43026e-06 7.36959e-05)
(-1.00861e-06 1.43803e-06 7.35381e-05)
(-8.91877e-07 1.45779e-06 7.30188e-05)
(-1.36532e-07 1.46335e-06 7.29358e-05)
(-1.19216e-06 1.17763e-06 7.53388e-05)
(-1.42452e-06 1.19953e-06 7.45317e-05)
(-9.88255e-07 1.20521e-06 7.43785e-05)
(-8.73524e-07 1.22012e-06 7.38705e-05)
(-1.30988e-07 1.22378e-06 7.37896e-05)
(-1.85762e-06 1.74065e-07 8.70288e-05)
(-2.1879e-06 1.7873e-07 8.56516e-05)
(-1.50763e-06 1.78935e-07 8.54125e-05)
(-1.34171e-06 1.83932e-07 8.45524e-05)
(-1.90882e-07 1.85382e-07 8.44293e-05)
(-1.85454e-06 1.28326e-06 8.71582e-05)
(-2.18412e-06 1.30871e-06 8.57832e-05)
(-1.50463e-06 1.31467e-06 8.5544e-05)
(-1.33901e-06 1.33256e-06 8.4685e-05)
(-1.8888e-07 1.33592e-06 8.45608e-05)
(-1.83185e-06 1.43916e-06 8.79867e-05)
(-2.15649e-06 1.46931e-06 8.66325e-05)
(-1.48378e-06 1.47615e-06 8.63979e-05)
(-1.32045e-06 1.49693e-06 8.5552e-05)
(-1.8347e-07 1.50084e-06 8.54297e-05)
(-1.82402e-06 2.09757e-06 8.82171e-05)
(-2.14712e-06 2.13889e-06 8.68709e-05)
(-1.477e-06 2.14867e-06 8.66377e-05)
(-1.31433e-06 2.17606e-06 8.57966e-05)
(-1.82402e-07 2.18157e-06 8.56745e-05)
(-1.79007e-06 1.7787e-06 8.95322e-05)
(-2.10539e-06 1.81265e-06 8.82212e-05)
(-1.44661e-06 1.82089e-06 8.79965e-05)
(-1.28755e-06 1.84338e-06 8.71777e-05)
(-1.75973e-07 1.84796e-06 8.70598e-05)
(-2.64276e-06 2.03147e-07 0.000146073)
(-3.11301e-06 2.2502e-07 0.000144107)
(-2.14312e-06 2.30556e-07 0.000143745)
(-1.90879e-06 2.46726e-07 0.000142517)
(-2.74444e-07 2.53157e-07 0.000142328)
(-2.63201e-06 1.78333e-06 0.000146254)
(-3.09961e-06 1.83384e-06 0.000144297)
(-2.13312e-06 1.84656e-06 0.000143935)
(-1.89974e-06 1.88067e-06 0.000142711)
(-2.68781e-07 1.88828e-06 0.000142522)
(-2.59166e-06 2.01131e-06 0.000147423)
(-3.04977e-06 2.06618e-06 0.000145501)
(-2.09629e-06 2.07966e-06 0.000145148)
(-1.86707e-06 2.11634e-06 0.000143946)
(-2.59606e-07 2.12431e-06 0.00014376)
(-2.57653e-06 2.94717e-06 0.000147762)
(-3.03125e-06 3.01899e-06 0.000145855)
(-2.08296e-06 3.03669e-06 0.000145505)
(-1.8551e-06 3.08356e-06 0.000144311)
(-2.56661e-07 3.09361e-06 0.000144126)
(-2.51909e-06 2.50876e-06 0.000149622)
(-2.96025e-06 2.5662e-06 0.000147772)
(-2.03172e-06 2.5805e-06 0.000147436)
(-1.81016e-06 2.618e-06 0.000146278)
(-2.46914e-07 2.62592e-06 0.0001461)
(-3.84736e-06 3.60983e-07 4.3902e-05)
(-4.51612e-06 3.74083e-07 4.09906e-05)
(-3.09809e-06 3.7566e-07 4.04567e-05)
(-2.75824e-06 3.84216e-07 3.86342e-05)
(-3.76039e-07 3.86224e-07 3.83547e-05)
(-3.83591e-06 2.63288e-06 4.41727e-05)
(-4.5029e-06 2.70248e-06 4.12732e-05)
(-3.08988e-06 2.71793e-06 4.0741e-05)
(-2.75227e-06 2.76166e-06 3.89246e-05)
(-3.73642e-07 2.76764e-06 3.86442e-05)
(-3.77698e-06 2.94711e-06 4.58858e-05)
(-4.43106e-06 3.02778e-06 4.305e-05)
(-3.03891e-06 3.04563e-06 4.25322e-05)
(-2.70853e-06 3.09648e-06 4.07562e-05)
(-3.65581e-07 3.10462e-06 4.04823e-05)
(-3.75433e-06 4.29678e-06 4.63809e-05)
(-4.40436e-06 4.40967e-06 4.35699e-05)
(-3.02117e-06 4.43651e-06 4.30569e-05)
(-2.69329e-06 4.5079e-06 4.12953e-05)
(-3.63894e-07 4.5214e-06 4.10234e-05)
(-3.66286e-06 3.66175e-06 4.91022e-05)
(-4.29134e-06 3.75322e-06 4.63924e-05)
(-2.94069e-06 3.776e-06 4.59044e-05)
(-2.62364e-06 3.83458e-06 4.42079e-05)
(-3.50986e-07 3.8464e-06 4.39491e-05)
(-5.59083e-06 4.96423e-07 0.000162307)
(-6.55859e-06 5.24793e-07 0.000158069)
(-4.49957e-06 5.30322e-07 0.000157277)
(-4.01075e-06 5.48772e-07 0.000154632)
(-5.47711e-07 5.53575e-07 0.000154213)
(-5.568e-06 3.76709e-06 0.000162693)
(-6.53153e-06 3.89327e-06 0.000158478)
(-4.48172e-06 3.92213e-06 0.00015769)
(-3.99657e-06 4.00267e-06 0.000155057)
(-5.43064e-07 4.01593e-06 0.000154639)
(-5.46329e-06 4.21953e-06 0.000165149)
(-6.40355e-06 4.36285e-06 0.000161039)
(-4.39016e-06 4.39559e-06 0.000160275)
(-3.91694e-06 4.48705e-06 0.000157705)
(-5.28373e-07 4.50356e-06 0.000157299)
(-5.42312e-06 6.16368e-06 0.000165867)
(-6.35546e-06 6.36154e-06 0.0001618)
(-4.35752e-06 6.40913e-06 0.000161044)
(-3.8886e-06 6.53547e-06 0.000158499)
(-5.24156e-07 6.56059e-06 0.000158096)
(-5.26335e-06 5.26466e-06 0.000169782)
(-6.1581e-06 5.42443e-06 0.00016588)
(-4.21623e-06 5.46409e-06 0.000165168)
(-3.76548e-06 5.56725e-06 0.000162726)
(-5.01846e-07 5.58853e-06 0.000162347)
(-8.1392e-06 7.57077e-07 3.95e-05)
(-9.54604e-06 7.92919e-07 3.32978e-05)
(-6.5356e-06 7.97697e-07 3.21363e-05)
(-5.82265e-06 8.1796e-07 2.82557e-05)
(-7.88617e-07 8.21098e-07 2.76379e-05)
(-8.10416e-06 5.4753e-06 4.00598e-05)
(-9.50602e-06 5.672e-06 3.38984e-05)
(-6.51149e-06 5.7155e-06 3.27427e-05)
(-5.80356e-06 5.83447e-06 2.88842e-05)
(-7.85143e-07 5.85342e-06 2.82675e-05)
(-7.94033e-06 6.12154e-06 4.35864e-05)
(-9.30584e-06 6.3496e-06 3.76142e-05)
(-6.37313e-06 6.39997e-06 3.65008e-05)
(-5.68473e-06 6.53831e-06 3.27644e-05)
(-7.65508e-07 6.56227e-06 3.21701e-05)
(-7.87349e-06 8.92994e-06 4.46198e-05)
(-9.22757e-06 9.2515e-06 3.87224e-05)
(-6.32278e-06 9.32971e-06 3.76231e-05)
(-5.64125e-06 9.52958e-06 3.3929e-05)
(-7.60695e-07 9.56955e-06 3.3341e-05)
(-7.61513e-06 7.62734e-06 5.02447e-05)
(-8.90606e-06 7.8857e-06 4.46378e-05)
(-6.09506e-06 7.95249e-06 4.36134e-05)
(-5.44489e-06 8.11603e-06 4.01095e-05)
(-7.25546e-07 8.15101e-06 3.95629e-05)
(-1.18739e-05 1.0774e-06 0.000149821)
(-1.39228e-05 1.14321e-06 0.000140777)
(-9.54176e-06 1.15338e-06 0.000139027)
(-8.5092e-06 1.19127e-06 0.000133385)
(-1.15541e-06 1.1964e-06 0.000132438)
(-1.18098e-05 7.85341e-06 0.000150641)
(-1.38491e-05 8.2097e-06 0.000141667)
(-9.49592e-06 8.28667e-06 0.00013993)
(-8.47187e-06 8.51137e-06 0.000134332)
(-1.15027e-06 8.54821e-06 0.000133394)
(-1.15137e-05 8.77948e-06 0.00015571)
(-1.34895e-05 9.18687e-06 0.000147032)
(-9.24009e-06 9.276e-06 0.000145369)
(-8.24766e-06 9.53189e-06 0.000139952)
(-1.11417e-06 9.57717e-06 0.000139058)
(-1.13979e-05 1.28223e-05 0.000157227)
(-1.33526e-05 1.33855e-05 0.00014868)
(-9.1509e-06 1.35222e-05 0.00014704)
(-8.17069e-06 1.3881e-05 0.000141697)
(-1.10441e-06 1.39538e-05 0.000140815)
(-1.09443e-05 1.09639e-05 0.000165321)
(-1.27897e-05 1.14174e-05 0.000157246)
(-8.7446e-06 1.15328e-05 0.000155737)
(-7.81603e-06 1.18282e-05 0.000150689)
(-1.04158e-06 1.18914e-05 0.000149879)
(-1.73033e-05 1.59223e-06 4.82601e-05)
(-2.03408e-05 1.69791e-06 3.50461e-05)
(-1.39269e-05 1.71425e-06 3.25403e-05)
(-1.24117e-05 1.77789e-06 2.43203e-05)
(-1.72424e-06 1.78963e-06 2.29734e-05)
(-1.71965e-05 1.13642e-05 4.94334e-05)
(-2.02176e-05 1.19277e-05 3.63434e-05)
(-1.38462e-05 1.20569e-05 3.38402e-05)
(-1.23388e-05 1.24007e-05 2.56828e-05)
(-1.71235e-06 1.24734e-05 2.43334e-05)
(-1.67337e-05 1.27079e-05 5.66291e-05)
(-1.96482e-05 1.33626e-05 4.40864e-05)
(-1.34539e-05 1.35103e-05 4.1683e-05)
(-1.19952e-05 1.39028e-05 3.38726e-05)
(-1.64921e-06 1.39834e-05 3.25855e-05)
(-1.65344e-05 1.85408e-05 5.87972e-05)
(-1.94153e-05 1.94657e-05 4.64729e-05)
(-1.3306e-05 1.96984e-05 4.40968e-05)
(-1.18657e-05 2.0268e-05 3.63864e-05)
(-1.63261e-06 2.0391e-05 3.51018e-05)
(-1.57984e-05 1.58298e-05 7.03271e-05)
(-1.84906e-05 1.65658e-05 5.88243e-05)
(-1.26517e-05 1.67649e-05 5.66668e-05)
(-1.13027e-05 1.72275e-05 4.9504e-05)
(-1.52772e-06 1.7334e-05 4.83432e-05)
(-2.52663e-05 2.27523e-06 0.000124741)
(-2.96436e-05 2.46285e-06 0.000105412)
(-2.02676e-05 2.47423e-06 0.000101505)
(-1.80762e-05 2.57297e-06 8.96787e-05)
(-2.48473e-06 2.57352e-06 8.76342e-05)
(-2.50764e-05 1.62225e-05 0.000126521)
(-2.94433e-05 1.72501e-05 0.000107411)
(-2.01566e-05 1.74295e-05 0.00010352)
(-1.79787e-05 1.80638e-05 9.17395e-05)
(-2.48432e-06 1.81604e-05 8.96855e-05)
(-2.42268e-05 1.81433e-05 0.000136897)
(-2.84366e-05 1.93164e-05 0.000118632)
(-1.94539e-05 1.95327e-05 0.000114937)
(-1.73452e-05 2.02356e-05 0.000103555)
(-2.38678e-06 2.03457e-05 0.000101546)
(-2.38896e-05 2.6521e-05 0.000140146)
(-2.80538e-05 2.81243e-05 0.000122275)
(-1.92374e-05 2.85069e-05 0.00011864)
(-1.71657e-05 2.95134e-05 0.000107454)
(-2.37527e-06 2.97125e-05 0.000105462)
(-2.26052e-05 2.26521e-05 0.000156714)
(-2.64507e-05 2.39365e-05 0.000140174)
(-1.80649e-05 2.42735e-05 0.000136933)
(-1.61396e-05 2.51227e-05 0.000126592)
(-2.18961e-06 2.53114e-05 0.000124818)
(-3.68958e-05 3.39676e-06 5.43001e-05)
(-4.35781e-05 3.72042e-06 2.62361e-05)
(-2.96601e-05 3.75153e-06 2.08159e-05)
(-2.62827e-05 3.8595e-06 2.76959e-06)
(-3.74773e-06 3.85921e-06 -6.0959e-07)
(-3.65669e-05 2.35199e-05 5.68214e-05)
(-4.32198e-05 2.51475e-05 2.90739e-05)
(-2.95178e-05 2.54885e-05 2.36501e-05)
(-2.61734e-05 2.6277e-05 6.09333e-06)
(-3.74784e-06 2.63853e-05 2.77976e-06)
(-3.52505e-05 2.6333e-05 7.14045e-05)
(-4.16094e-05 2.8226e-05 4.51481e-05)
(-2.85306e-05 2.86299e-05 3.98823e-05)
(-2.53859e-05 2.96177e-05 2.3702e-05)
(-3.63986e-06 2.97594e-05 2.08763e-05)
(-3.46523e-05 3.83594e-05 7.60422e-05)
(-4.09228e-05 4.10097e-05 5.03981e-05)
(-2.81261e-05 4.1696e-05 4.51587e-05)
(-2.50439e-05 4.33065e-05 2.9137e-05)
(-3.60829e-06 4.36644e-05 2.63069e-05)
(-3.25697e-05 3.26297e-05 9.94046e-05)
(-3.82729e-05 3.47122e-05 7.60857e-05)
(-2.62339e-05 3.53101e-05 7.14588e-05)
(-2.34176e-05 3.66261e-05 5.69292e-05)
(-3.28609e-06 3.6954e-05 5.44129e-05)
(-5.37234e-05 4.83222e-06 8.95583e-05)
(-6.31299e-05 5.33351e-06 4.7718e-05)
(-4.37342e-05 5.33921e-06 3.77905e-05)
(-3.95017e-05 5.92785e-06 1.17976e-05)
(-5.83231e-06 5.99013e-06 6.42476e-06)
(-5.32121e-05 3.33268e-05 9.37165e-05)
(-6.26166e-05 3.61621e-05 5.26624e-05)
(-4.31372e-05 3.64959e-05 4.28641e-05)
(-3.88491e-05 3.89962e-05 1.70334e-05)
(-5.77017e-06 3.96463e-05 1.17914e-05)
(-5.08537e-05 3.73641e-05 0.000115141)
(-5.99607e-05 4.06406e-05 7.65415e-05)
(-4.09001e-05 4.10413e-05 6.78698e-05)
(-3.63513e-05 4.32793e-05 4.29246e-05)
(-5.18644e-06 4.38728e-05 3.78418e-05)
(-4.9895e-05 5.45229e-05 0.000122468)
(-5.89393e-05 5.90638e-05 8.506e-05)
(-4.04985e-05 6.00853e-05 7.6548e-05)
(-3.60175e-05 6.27427e-05 5.27318e-05)
(-5.17935e-06 6.32512e-05 4.77802e-05)
(-4.62588e-05 4.63496e-05 0.000156453)
(-5.43982e-05 4.99858e-05 0.000122512)
(-3.72214e-05 5.09446e-05 0.000115191)
(-3.31856e-05 5.33034e-05 9.38251e-05)
(-4.67995e-06 5.38109e-05 8.96591e-05)
(-7.932e-05 7.59769e-06 4.58096e-05)
(-9.5349e-05 8.7062e-06 -1.45778e-05)
(-6.55804e-05 8.86551e-06 -2.80171e-05)
(-5.76484e-05 9.13298e-06 -6.49274e-05)
(-9.07983e-06 9.259e-06 -7.25636e-05)
(-7.81957e-05 4.91024e-05 5.19062e-05)
(-9.40752e-05 5.3971e-05 -7.55511e-06)
(-6.51467e-05 5.55679e-05 -2.07845e-05)
(-5.72461e-05 5.7404e-05 -5.73929e-05)
(-8.95401e-06 5.78023e-05 -6.49249e-05)
(-7.43977e-05 5.5085e-05 8.229e-05)
(-8.88833e-05 6.06236e-05 2.73926e-05)
(-6.21474e-05 6.23138e-05 1.4037e-05)
(-5.5414e-05 6.53161e-05 -2.06963e-05)
(-8.68535e-06 6.57482e-05 -2.79331e-05)
(-7.25922e-05 7.96741e-05 9.29359e-05)
(-8.68461e-05 8.69832e-05 3.9845e-05)
(-6.04542e-05 8.90203e-05 2.74019e-05)
(-5.38117e-05 9.421e-05 -7.45881e-06)
(-8.52501e-06 9.54847e-05 -1.44903e-05)
(-6.69996e-05 6.71035e-05 0.000139418)
(-7.95372e-05 7.26961e-05 9.30082e-05)
(-5.49209e-05 7.45015e-05 8.23724e-05)
(-4.89497e-05 7.82943e-05 5.20822e-05)
(-7.42093e-06 7.94172e-05 4.59661e-05)
(-0.000114977 1.09888e-05 3.64456e-05)
(-0.000136961 1.24098e-05 -4.70177e-05)
(-9.40837e-05 1.26219e-05 -6.89347e-05)
(-8.40482e-05 1.35076e-05 -0.000124217)
(-1.34227e-05 1.36671e-05 -0.000137928)
(-0.000113523 6.98072e-05 4.65796e-05)
(-0.000135312 7.81325e-05 -3.61932e-05)
(-9.29749e-05 7.855e-05 -5.71882e-05)
(-8.29896e-05 8.32274e-05 -0.000110969)
(-1.32606e-05 8.42768e-05 -0.00012424)
(-0.000106553 7.83938e-05 9.13231e-05)
(-0.000128218 8.80406e-05 1.10492e-05)
(-8.89888e-05 8.92277e-05 -8.06241e-06)
(-7.83214e-05 9.32133e-05 -5.71004e-05)
(-1.23758e-05 9.43074e-05 -6.88748e-05)
(-0.000103759 0.000111654 0.000107426)
(-0.000124477 0.000124684 3.08802e-05)
(-8.78022e-05 0.000128425 1.10454e-05)
(-7.79098e-05 0.000135526 -3.61049e-05)
(-1.21615e-05 0.000137155 -4.69576e-05)
(-9.33691e-05 9.35327e-05 0.000176056)
(-0.000111447 0.000103922 0.000107492)
(-7.81474e-05 0.000106717 9.13957e-05)
(-6.95919e-05 0.000113695 4.67411e-05)
(-1.07425e-05 0.000115134 3.65748e-05)
(-0.000164071 1.78143e-05 1.40209e-05)
(-0.000200737 1.95952e-05 -0.000109127)
(-0.00014278 2.06749e-05 -0.000145625)
(-0.000126642 2.24399e-05 -0.000228127)
(-2.27302e-05 2.29997e-05 -0.000249636)
(-0.000162231 0.00010398 2.85339e-05)
(-0.00019785 0.000112038 -9.18463e-05)
(-0.000139923 0.00011644 -0.000126959)
(-0.000124298 0.000124521 -0.000207503)
(-2.21666e-05 0.000126856 -0.000228135)
(-0.000155857 0.000115931 9.22749e-05)
(-0.000188275 0.000127697 -2.15385e-05)
(-0.000130297 0.000130547 -5.16723e-05)
(-0.000116226 0.00014018 -0.000126823)
(-2.04065e-05 0.000143031 -0.000145506)
(-0.000150271 0.000164413 0.00011575)
(-0.000183233 0.000183432 6.98177e-06)
(-0.000127439 0.000188485 -2.1531e-05)
(-0.000111815 0.000198058 -9.17029e-05)
(-1.93221e-05 0.000200941 -0.000109004)
(-0.000136572 0.000136742 0.000213563)
(-0.000164203 0.000150442 0.00011587)
(-0.000115672 0.000156038 9.2388e-05)
(-0.000103771 0.000162404 2.88112e-05)
(-1.75286e-05 0.000164238 1.42448e-05)
(-0.000239993 2.55925e-05 -4.59982e-05)
(-0.000296618 2.9773e-05 -0.000229381)
(-0.000213084 3.13661e-05 -0.000290549)
(-0.000188059 3.42051e-05 -0.000413983)
(-3.48617e-05 3.52347e-05 -0.00045311)
(-0.000235731 0.000148061 -2.39858e-05)
(-0.000290816 0.000165721 -0.000201149)
(-0.000208631 0.000172503 -0.000258763)
(-0.000184166 0.000184531 -0.000377964)
(-3.38262e-05 0.000188407 -0.000413984)
(-0.000222069 0.000165609 6.88252e-05)
(-0.000272175 0.000186868 -9.54424e-05)
(-0.000194273 0.000194656 -0.000147142)
(-0.000172155 0.000209013 -0.000258645)
(-3.09876e-05 0.000213438 -0.000290439)
(-0.000214148 0.00023295 0.000107828)
(-0.000261767 0.000262101 -5.00134e-05)
(-0.000186486 0.000272495 -9.54424e-05)
(-0.000165383 0.000291171 -0.000201025)
(-2.93917e-05 0.000296916 -0.000229269)
(-0.00019249 0.000192774 0.000249898)
(-0.00023263 0.000214432 0.000107934)
(-0.000165205 0.00022234 6.89081e-05)
(-0.000147735 0.000236038 -2.37754e-05)
(-2.52325e-05 0.000240252 -4.58206e-05)
(-0.000350205 3.9933e-05 -4.7744e-05)
(-0.000445304 4.79105e-05 -0.00031784)
(-0.000327382 5.25442e-05 -0.000413424)
(-0.000289204 5.85179e-05 -0.000595195)
(-6.18144e-05 6.21933e-05 -0.000657422)
(-0.000342074 0.000218803 -1.51823e-05)
(-0.000432643 0.000245977 -0.000274554)
(-0.000316737 0.000259847 -0.000364459)
(-0.00027952 0.00027986 -0.000537228)
(-5.81337e-05 0.000289527 -0.000595277)
(-0.000322634 0.000247744 0.000110425)
(-0.000404258 0.000278832 -0.000127948)
(-0.000293498 0.000293867 -0.000206209)
(-0.000259524 0.000317119 -0.000364212)
(-5.21657e-05 0.000327746 -0.000413271)
(-0.000310479 0.000345497 0.0001645)
(-0.000386517 0.000386822 -5.71713e-05)
(-0.00027845 0.00040455 -0.000127985)
(-0.000245641 0.000432944 -0.000274332)
(-4.752e-05 0.000445577 -0.000317712)
(-0.000280646 0.000280924 0.000355206)
(-0.000345205 0.000310757 0.00016471)
(-0.00024738 0.000322898 0.000110595)
(-0.0002185 0.000342333 -1.47626e-05)
(-3.95473e-05 0.000350437 -4.74362e-05)
(-0.000514163 5.83289e-05 -0.000197599)
(-0.000662323 7.32154e-05 -0.000604436)
(-0.000490438 8.04837e-05 -0.000789246)
(-0.000432058 9.23205e-05 -0.00107593)
(-9.69479e-05 9.75143e-05 -0.00120814)
(-0.000499038 0.00030623 -0.000137674)
(-0.000640116 0.000355612 -0.000525063)
(-0.000471304 0.000379718 -0.000691211)
(-0.000414984 0.000415516 -0.000960955)
(-9.17495e-05 0.000432559 -0.0010761)
(-0.000464079 0.000345291 4.26123e-05)
(-0.000588831 0.000404249 -0.000306525)
(-0.000430535 0.000431128 -0.000450447)
(-0.000379217 0.000471907 -0.000690991)
(-7.9912e-05 0.000491002 -0.000789179)
(-0.000439219 0.000477749 0.000137275)
(-0.000554273 0.00055478 -0.000185525)
(-0.000403646 0.000589322 -0.000306573)
(-0.00035511 0.000640644 -0.000524896)
(-7.26464e-05 0.000662776 -0.000604414)
(-0.000385931 0.000386427 0.000406496)
(-0.000477259 0.000439715 0.000137436)
(-0.000344677 0.000464559 4.27402e-05)
(-0.000305767 0.000499546 -0.000137336)
(-5.77695e-05 0.000514605 -0.00019739)
(-0.000763299 0.000100108 -0.000153513)
(-0.00103699 0.000127465 -0.000741815)
(-0.000798873 0.000150781 -0.00101506)
(-0.000708105 0.000173625 -0.00144259)
(-0.00019393 0.000194414 -0.00164129)
(-0.000735412 0.000459016 -7.2646e-05)
(-0.000986219 0.000543888 -0.000621367)
(-0.000752626 0.000598647 -0.000871898)
(-0.000664406 0.0006648 -0.00126103)
(-0.000173151 0.000708495 -0.00144279)
(-0.000677189 0.000522691 0.000170273)
(-0.000897352 0.000618368 -0.000321158)
(-0.000677962 0.000678503 -0.000526881)
(-0.000598257 0.000753175 -0.000871453)
(-0.000150293 0.000799426 -0.00101485)
(-0.000638323 0.000709406 0.000295606)
(-0.000830396 0.000830814 -0.000143759)
(-0.000617819 0.000897772 -0.000321254)
(-0.000543482 0.000986637 -0.000621006)
(-0.000126952 0.00103741 -0.000741697)
(-0.000553913 0.000554353 0.000656948)
(-0.000708986 0.000638763 0.00029596)
(-0.000522151 0.000677631 0.000170522)
(-0.000458631 0.000735842 -7.19206e-05)
(-9.95647e-05 0.000763719 -0.000153083)
(-0.00111183 0.000139519 -0.000471822)
(-0.00152393 0.000193959 -0.00138094)
(-0.00119121 0.000223921 -0.00194451)
(-0.0010583 0.000274159 -0.00262724)
(-0.000295398 0.00029623 -0.00311416)
(-0.00105651 0.000630016 -0.000313766)
(-0.00143942 0.000776269 -0.00115198)
(-0.00111096 0.000867898 -0.00163101)
(-0.000985882 0.000986656 -0.00224364)
(-0.000273319 0.001059 -0.00262773)
(-0.000963348 0.000713539 3.98952e-05)
(-0.00128604 0.000881851 -0.000696547)
(-0.000980823 0.000981765 -0.00109885)
(-0.000867192 0.00111192 -0.00163059)
(-0.000223068 0.00119209 -0.00194452)
(-0.00088558 0.000964461 0.000268362)
(-0.00117118 0.00117194 -0.000382085)
(-0.000880887 0.00128677 -0.000696753)
(-0.000775552 0.00144023 -0.00115183)
(-0.000193128 0.00152461 -0.00138121)
(-0.000752682 0.000753536 0.000767059)
(-0.000963721 0.000886434 0.000268626)
(-0.000712553 0.000964178 3.99979e-05)
(-0.000629372 0.00105738 -0.000313276)
(-0.000138675 0.00111259 -0.000471704)
(-0.00168721 0.000258663 -0.000265963)
(-0.00250978 0.000356748 -0.00157376)
(-0.00204517 0.000464719 -0.00238432)
(-0.00187777 0.00055746 -0.00347965)
(-0.000680656 0.000681271 -0.00418911)
(-0.00158721 0.000970737 -6.89998e-05)
(-0.00230356 0.00122828 -0.00122351)
(-0.00184428 0.00144432 -0.00194022)
(-0.00166114 0.00166146 -0.00284673)
(-0.000556952 0.00187815 -0.00347995)
(-0.00142552 0.00110481 0.000384489)
(-0.00203618 0.00138825 -0.000611198)
(-0.001612 0.00161276 -0.00116549)
(-0.00144393 0.00184498 -0.00193956)
(-0.00046413 0.00204595 -0.00238407)
(-0.00129916 0.00143662 0.000666302)
(-0.00179558 0.00179605 -0.000167371)
(-0.00138755 0.0020367 -0.000611374)
(-0.00122794 0.00230404 -0.00122299)
(-0.000356214 0.00251032 -0.00157369)
(-0.00106044 0.00106115 0.00131153)
(-0.0014361 0.00129987 0.000666849)
(-0.00110405 0.00142627 0.000384859)
(-0.000970338 0.00158798 -6.78672e-05)
(-0.000258015 0.00168803 -0.000265408)
(-0.00244113 0.000337022 -0.000900499)
(-0.00364244 0.000544698 -0.00286248)
(-0.00309707 0.00066839 -0.00464721)
(-0.00286311 0.000907537 -0.00641715)
(-0.00100459 0.00100562 -0.00847411)
(-0.00223018 0.00128046 -0.000464844)
(-0.00331077 0.00173883 -0.00219695)
(-0.00273415 0.00208672 -0.003574)
(-0.00252562 0.00252675 -0.00503295)
(-0.000906365 0.00286406 -0.0064183)
(-0.00197557 0.00144882 0.00018779)
(-0.00283613 0.00193797 -0.00127621)
(-0.00230915 0.00231058 -0.00238441)
(-0.00208577 0.00273563 -0.00357332)
(-0.000667193 0.00309834 -0.00464751)
(-0.00173299 0.00189157 0.000716144)
(-0.00244894 0.00245008 -0.00048608)
(-0.00193649 0.00283724 -0.00127662)
(-0.00173787 0.00331205 -0.00219682)
(-0.000543488 0.00364343 -0.00286317)
(-0.0014081 0.00140951 0.00157807)
(-0.00189046 0.0017344 0.000716444)
(-0.00144725 0.00197696 0.000187631)
(-0.00127963 0.00223168 -0.00046436)
(-0.000335649 0.00244238 -0.000900906)
(-0.00368319 0.000695181 -0.000197178)
(-0.00625676 0.00102273 -0.00309972)
(-0.00559995 0.00153882 -0.00554901)
(-0.00570477 0.001942 -0.00876136)
(-0.0027374 0.00273831 -0.0115791)
(-0.00334923 0.00205905 0.000272024)
(-0.00541294 0.00281455 -0.0020404)
(-0.00468031 0.00370716 -0.00409493)
(-0.00450549 0.00450534 -0.0062888)
(-0.00194177 0.00570486 -0.00876148)
(-0.00291458 0.0022858 0.00109407)
(-0.00460856 0.00309911 -0.000839456)
(-0.00390913 0.00391015 -0.00228521)
(-0.00370707 0.00468114 -0.00409418)
(-0.00153825 0.00560118 -0.00554868)
(-0.00252145 0.00282701 0.00167482)
(-0.00378846 0.00378883 0.000238028)
(-0.00309828 0.00460892 -0.000839709)
(-0.00281449 0.00541324 -0.00203984)
(-0.00102237 0.00625719 -0.00309975)
(-0.00193673 0.00193773 0.00272007)
(-0.00282664 0.00252246 0.00167548)
(-0.00228485 0.00291559 0.00109448)
(-0.0020589 0.00335035 0.000273455)
(-0.00069482 0.00368429 -0.000196619)
(-0.00539295 0.000806733 -0.00112756)
(-0.00899452 0.00160469 -0.00522913)
(-0.00875871 0.00212274 -0.0108911)
(-0.00889293 0.00338114 -0.0161104)
(-0.00382409 0.00382448 -0.0260941)
(-0.00458283 0.00257168 -1.90403e-05)
(-0.00767796 0.00399907 -0.00337994)
(-0.00698251 0.00535042 -0.00715972)
(-0.00719202 0.00719378 -0.0108385)
(-0.00337966 0.00889421 -0.016113)
(-0.00394208 0.00285156 0.00104385)
(-0.00621562 0.00421635 -0.00157607)
(-0.00556379 0.00556571 -0.00446965)
(-0.00534914 0.00698456 -0.00715862)
(-0.00212139 0.00876006 -0.0108918)
(-0.0031947 0.00351768 0.00213549)
(-0.00496362 0.00496516 0.000178234)
(-0.0042143 0.00621714 -0.00157671)
(-0.00399788 0.00767992 -0.00337999)
(-0.00160316 0.00899573 -0.00523051)
(-0.00247096 0.00247304 0.00340157)
(-0.00351616 0.00319677 0.00213574)
(-0.00284922 0.00394414 0.00104354)
(-0.00257071 0.0045852 -1.85215e-05)
(-0.000804846 0.0053948 -0.00112856)
(-0.00786094 0.00180514 0.000943864)
(-0.0160212 0.00287262 -0.00514796)
(-0.0164823 0.00527236 -0.0123812)
(-0.0209092 0.00721617 -0.0237237)
(-0.0127242 0.0127269 -0.0361177)
(-0.00677109 0.00423042 0.00196372)
(-0.0125542 0.00646772 -0.00203188)
(-0.0121394 0.0101287 -0.007516)
(-0.0134583 0.0134568 -0.0128294)
(-0.00721733 0.0209086 -0.0237233)
(-0.00558146 0.00444035 0.00327219)
(-0.0101224 0.00665732 7.9057e-05)
(-0.00949199 0.00949347 -0.00331694)
(-0.0101293 0.0121402 -0.00751532)
(-0.00527164 0.0164847 -0.0123799)
(-0.00451348 0.0051849 0.00430523)
(-0.00750089 0.00750086 0.00225944)
(-0.00665654 0.0101225 7.87622e-05)
(-0.0064684 0.012554 -0.0020317)
(-0.0028729 0.0160213 -0.00514818)
(-0.00322589 0.00322714 0.00561371)
(-0.00518485 0.00451473 0.00430563)
(-0.00443913 0.00558279 0.00327239)
(-0.00423095 0.00677278 0.00196493)
(-0.00180494 0.00786242 0.000944428)
(-0.011592 0.0018267 0.000733133)
(-0.0223182 0.00472168 -0.00662701)
(-0.0273334 0.00698915 -0.0227342)
(-0.0326157 0.0142845 -0.0410604)
(-0.0162749 0.0162696 -0.0962361)
(-0.00865287 0.0049 0.00298136)
(-0.0171573 0.00922552 -0.00239227)
(-0.0177801 0.0144124 -0.0110619)
(-0.023395 0.0233979 -0.0210035)
(-0.0142829 0.0326183 -0.0410646)
(-0.00719224 0.00519298 0.00439265)
(-0.0128048 0.00850758 0.000742928)
(-0.0131578 0.0131601 -0.00520482)
(-0.0144098 0.0177824 -0.011061)
(-0.00698848 0.0273341 -0.0227357)
(-0.00527896 0.00585921 0.0060368)
(-0.00919026 0.00919191 0.00363107)
(-0.00850535 0.0128065 0.000742464)
(-0.00922426 0.0171598 -0.00239284)
(-0.00472017 0.0223187 -0.00662878)
(-0.00380324 0.00380572 0.00724268)
(-0.00585749 0.00528144 0.00603675)
(-0.00518982 0.0071948 0.0043924)
(-0.00489866 0.00865629 0.00298175)
(-0.00182474 0.0115946 0.000732295)
(-0.0153723 0.00405426 0.00669647)
(-0.0394906 0.00711051 -0.00302206)
(-0.0509249 0.0169592 -0.0220779)
(-0.0949142 0.0273637 -0.0714925)
(-0.0689032 0.0689169 -0.130868)
(-0.0122498 0.00789001 0.00839965)
(-0.0265985 0.0138372 0.00406707)
(-0.0307559 0.0276582 -0.00657784)
(-0.0434599 0.043455 -0.0173705)
(-0.027371 0.094912 -0.0714974)
(-0.00930441 0.00749614 0.009512)
(-0.0197208 0.0126814 0.00636492)
(-0.021298 0.0212998 0.00119537)
(-0.0276603 0.0307561 -0.00657563)
(-0.0169584 0.0509297 -0.022071)
(-0.00696544 0.0080354 0.0104151)
(-0.0127959 0.0127953 0.00904257)
(-0.0126812 0.0197206 0.00636419)
(-0.0138392 0.0265977 0.00406561)
(-0.00711242 0.0394914 -0.00302389)
(-0.00445764 0.00445884 0.0109695)
(-0.00803559 0.00696663 0.0104148)
(-0.00749448 0.00930595 0.00951196)
(-0.00789114 0.0122525 0.00839955)
(-0.00405451 0.0153747 0.00669843)
(-0.0215 0.00352858 0.0119257)
(-0.0510722 0.0118189 0.00721695)
(-0.095877 0.0225718 -0.0154865)
(-0.199224 0.0714484 -0.0928759)
(-0.160183 0.0892511 -0.346005)
(-0.0130838 0.00771453 0.0136112)
(-0.0321322 0.0186089 0.00934439)
(-0.0391889 0.0376686 0.00063865)
(-0.0890601 0.0890599 -0.0275334)
(-0.0714455 0.199219 -0.0928745)
(-0.0104041 0.007208 0.0139452)
(-0.0211199 0.0134821 0.0126804)
(-0.0260979 0.0261017 0.00831629)
(-0.0376592 0.0391897 0.000635802)
(-0.0225725 0.0958804 -0.0154892)
(-0.00668358 0.00731658 0.0144272)
(-0.0132404 0.013241 0.013839)
(-0.0134814 0.0211215 0.0126808)
(-0.0186087 0.0321324 0.00934323)
(-0.0118182 0.0510678 0.00721643)
(-0.00437222 0.00437435 0.0139962)
(-0.0073149 0.00668571 0.0144261)
(-0.00720462 0.0104074 0.0139445)
(-0.00771119 0.0130885 0.0136092)
(-0.00352793 0.0215065 0.0119241)
(-0.020228 0.00573861 0.0281156)
(-0.0663086 0.00924721 0.0412824)
(-0.101274 0.0335353 0.0678461)
(-0.321937 0.0606491 -0.016382)
(-0.821768 0.161213 -0.542474)
(-0.0166165 0.00990979 0.0257784)
(-0.0395417 0.0192932 0.0310333)
(-0.0666177 0.0512831 0.0480306)
(-0.118554 0.118543 0.058691)
(-0.26334 0.360468 -0.0746899)
(-0.0106087 0.00831289 0.0227194)
(-0.0253462 0.0171754 0.0284364)
(-0.033315 0.0333143 0.036305)
(-0.0512881 0.0666174 0.0480349)
(-0.0335408 0.101275 0.0678605)
(-0.00757059 0.00808659 0.0209432)
(-0.014542 0.0145408 0.0237268)
(-0.0171764 0.0253454 0.0284348)