/*--------------------------------*- C++ -*----------------------------------*\
| =========                 |                                                 |
| \\      /  F ield         | OpenFOAM: The Open Source CFD Toolbox           |
|  \\    /   O peration     | Version:  5.x                                   |
|   \\  /    A nd           | Web:      www.OpenFOAM.org                      |
|    \\/     M anipulation  |                                                 |
\*---------------------------------------------------------------------------*/
FoamFile
{
    version     2.0;
    format      ascii;
    class       surfaceScalarField;
    location    "0.072";
    object      phi;
}
// * * * * * * * * * * * * * * * * * * * * * * * * * * * * * * * * * * * * * //

dimensions      [0 3 -1 0 0 0 0];

internalField   nonuniform List<scalar> 
4261
(
2.81213e-08
2.73224e-08
-1.46669e-07
1.06397e-07
2.52666e-08
-1.51834e-07
1.59404e-07
2.22869e-08
-1.26256e-07
2.08377e-07
2.09825e-08
-1.22264e-07
1.79464e-08
-4.27033e-08
2.60638e-08
1.0562e-07
-1.51834e-07
1.04488e-07
1.0371e-07
-1.56862e-07
1.57757e-07
1.00485e-07
-1.31458e-07
2.06936e-07
9.91536e-08
-1.2734e-07
9.55804e-08
-4.82191e-08
2.30831e-08
1.58672e-07
-1.26281e-07
1.01263e-07
1.57025e-07
-1.31485e-07
1.54628e-07
1.53895e-07
-1.06765e-07
2.03908e-07
1.52671e-07
-1.02788e-07
1.48922e-07
-2.48041e-08
2.17776e-08
2.07726e-07
-1.22325e-07
9.99317e-08
2.06284e-07
-1.27403e-07
1.53405e-07
2.03255e-07
-1.02823e-07
2.02768e-07
2.02115e-07
-9.87966e-08
1.9839e-07
-2.12551e-08
1.87395e-08
-4.28718e-08
9.63573e-08
-4.83905e-08
1.49655e-07
-2.49469e-08
1.99043e-07
-2.13635e-08
5.43354e-08
-8.53258e-09
-8.95926e-09
-1.97781e-07
1.05899e-08
-1.00155e-08
-1.96295e-07
1.10837e-08
-1.14567e-08
-1.5174e-07
9.63123e-09
-1.23632e-08
-1.45727e-07
-1.36181e-08
-7.08756e-08
-9.58198e-09
1.02556e-08
-1.96364e-07
9.49657e-09
9.15808e-09
-1.95103e-07
1.00845e-08
7.57383e-09
-1.51063e-07
8.89573e-09
6.70504e-09
-1.45206e-07
5.26694e-09
-7.08617e-08
-1.10277e-08
1.08845e-08
-1.51879e-07
7.90847e-09
9.8826e-09
-1.51133e-07
8.60169e-09
8.40201e-09
-1.08272e-07
7.70523e-09
7.67121e-09
-1.02843e-07
6.33353e-09
-2.99826e-08
-1.19327e-08
9.58232e-09
-1.45917e-07
7.04057e-09
8.84541e-09
-1.45325e-07
7.8718e-09
7.656e-09
-1.02894e-07
7.20196e-09
7.1524e-09
-9.75934e-08
6.03677e-09
-2.52377e-08
-1.31885e-08
-7.11256e-08
5.60192e-09
-7.10427e-08
6.53392e-09
-3.00956e-08
6.08684e-09
-2.53013e-08
4.51073e-08
3.21969e-08
3.13798e-08
-3.5167e-07
1.08669e-07
2.89869e-08
-3.49839e-07
1.51148e-07
2.5295e-08
-2.70899e-07
1.88302e-07
2.37317e-08
-2.59535e-07
2.01584e-08
-1.25561e-07
2.98042e-08
1.07903e-07
-3.49936e-07
1.06437e-07
1.0567e-07
-3.48408e-07
1.492e-07
1.01717e-07
-2.70236e-07
1.86675e-07
1.00171e-07
-2.59106e-07
9.59988e-08
-1.25977e-07
2.61102e-08
1.50475e-07
-2.71108e-07
1.02483e-07
1.48527e-07
-2.70349e-07
1.45377e-07
1.44703e-07
-1.94137e-07
1.83128e-07
1.43292e-07
-1.83702e-07
1.38981e-07
-5.31591e-08
2.45466e-08
1.8775e-07
-2.59822e-07
1.00937e-07
1.86121e-07
-2.59297e-07
1.43966e-07
1.82574e-07
-1.8378e-07
1.81898e-07
1.81342e-07
-1.73561e-07
1.77186e-07
-4.39039e-08
2.097e-08
-1.25954e-07
9.67631e-08
-1.26277e-07
1.39654e-07
-5.33466e-08
1.77741e-07
-4.40151e-08
8.21345e-08
2.61077e-08
2.54975e-08
-4.90975e-07
9.26307e-08
2.36897e-08
-4.85843e-07
1.28064e-07
2.06619e-08
-3.74956e-07
1.57897e-07
1.92804e-08
-3.57822e-07
1.59337e-08
-1.77906e-07
2.43036e-08
9.21047e-08
-4.86003e-07
9.07613e-08
9.02317e-08
-4.81396e-07
1.2632e-07
8.65787e-08
-3.71698e-07
1.56399e-07
8.51037e-08
-3.54993e-07
8.08768e-08
-1.76339e-07
2.1271e-08
1.27653e-07
-3.7526e-07
8.71056e-08
1.25906e-07
-3.71844e-07
1.2257e-07
1.22157e-07
-2.65165e-07
1.52807e-07
1.20753e-07
-2.49574e-07
1.16212e-07
-7.4783e-08
1.98908e-08
1.57637e-07
-3.5824e-07
8.56322e-08
1.56136e-07
-3.55254e-07
1.21168e-07
1.52544e-07
-2.49688e-07
1.51561e-07
1.51297e-07
-2.34484e-07
1.46831e-07
-6.10386e-08
1.65396e-08
-1.78421e-07
8.14023e-08
-1.76699e-07
1.16625e-07
-7.49976e-08
1.47094e-07
-6.11405e-08
1.07082e-07
6.49149e-08
6.39271e-08
-7.27968e-07
1.7966e-07
6.0515e-08
-7.19059e-07
2.40576e-07
5.45846e-08
-5.53197e-07
2.91356e-07
5.21916e-08
-5.25691e-07
4.6121e-08
-2.60572e-07
6.15053e-08
1.78756e-07
-7.19274e-07
1.76332e-07
1.75425e-07
-7.11118e-07
2.37569e-07
1.68649e-07
-5.46984e-07
2.88787e-07
1.66124e-07
-5.20128e-07
1.58575e-07
-2.56929e-07
5.55703e-08
2.39806e-07
-5.53607e-07
1.69554e-07
2.36796e-07
-5.47182e-07
2.30757e-07
2.29984e-07
-3.87687e-07
2.8231e-07
2.27581e-07
-3.62568e-07
2.1951e-07
-1.0543e-07
5.31781e-08
2.9076e-07
-5.26257e-07
1.67031e-07
2.88187e-07
-5.20482e-07
2.28356e-07
2.8171e-07
-3.62723e-07
2.80153e-07
2.79551e-07
-3.38234e-07
2.7163e-07
-8.32872e-08
4.71008e-08
-2.61278e-07
1.59477e-07
-2.57428e-07
2.20281e-07
-1.05731e-07
2.72232e-07
-8.34354e-08
1.63242e-07
9.24597e-08
9.14887e-08
-1.03218e-06
2.38398e-07
8.7854e-08
-1.01682e-06
3.16773e-07
8.11668e-08
-7.81335e-07
3.81415e-07
7.84202e-08
-7.39601e-07
7.09518e-08
-3.63387e-07
8.88301e-08
2.37541e-07
-1.01712e-06
2.34657e-07
2.33794e-07
-1.00287e-06
3.13254e-07
2.25522e-07
-7.69919e-07
3.78304e-07
2.2243e-07
-7.2917e-07
2.12494e-07
-3.55873e-07
8.21354e-08
3.16072e-07
-7.81877e-07
2.26381e-07
3.12547e-07
-7.70164e-07
3.04553e-07
3.03848e-07
-5.44167e-07
3.69797e-07
3.00778e-07
-5.06142e-07
2.8975e-07
-1.42079e-07
7.93912e-08
3.80929e-07
-7.40359e-07
2.23292e-07
3.77813e-07
-7.29631e-07
3.01486e-07
3.69305e-07
-5.06357e-07
3.6694e-07
3.66444e-07
-4.69335e-07
3.55389e-07
-1.0879e-07
7.19133e-08
-3.64303e-07
2.13349e-07
-3.56498e-07
2.90454e-07
-1.42459e-07
3.55883e-07
-1.08959e-07
2.38737e-07
1.51079e-07
1.4969e-07
-1.47888e-06
3.63622e-07
1.43957e-07
-1.45225e-06
4.75172e-07
1.32821e-07
-1.1124e-06
5.63675e-07
1.28425e-07
-1.04663e-06
1.16271e-07
-5.09074e-07
1.45352e-07
3.62373e-07
-1.45266e-06
3.57699e-07
3.56442e-07
-1.42768e-06
4.6961e-07
3.42704e-07
-1.09169e-06
5.58753e-07
3.37621e-07
-1.02749e-06
3.21348e-07
-4.94537e-07
1.34206e-07
4.74128e-07
-1.11312e-06
3.43956e-07
4.68559e-07
-1.09201e-06
4.55229e-07
4.54179e-07
-7.66895e-07
5.4474e-07
4.49074e-07
-7.07085e-07
4.31024e-07
-1.88656e-07
1.29813e-07
5.6291e-07
-1.04764e-06
3.38876e-07
5.57981e-07
-1.0281e-06
4.50127e-07
5.43966e-07
-7.07373e-07
5.39965e-07
5.39188e-07
-6.49266e-07
5.21186e-07
-1.36722e-07
1.17645e-07
-5.10291e-07
3.22594e-07
-4.95362e-07
4.32071e-07
-1.89165e-07
5.21962e-07
-1.36947e-07
3.55339e-07
2.29169e-07
2.27583e-07
-2.10707e-06
5.26187e-07
2.20435e-07
-2.06244e-06
6.83336e-07
2.06065e-07
-1.57734e-06
8.05804e-07
2.00331e-07
-1.47523e-06
1.83729e-07
-7.07381e-07
2.2203e-07
5.24785e-07
-2.063e-06
5.18569e-07
5.17156e-07
-2.02092e-06
6.75954e-07
4.98659e-07
-1.54165e-06
7.99119e-07
4.91717e-07
-1.44202e-06
4.6856e-07
-6.81433e-07
2.07646e-07
6.82185e-07
-1.57828e-06
5.00064e-07
6.74792e-07
-1.54204e-06
6.5587e-07
6.54711e-07
-1.07873e-06
7.79306e-07
6.47476e-07
-9.86256e-07
6.21008e-07
-2.47716e-07
2.01915e-07
8.05008e-07
-1.47657e-06
4.93127e-07
7.98311e-07
-1.4428e-06
6.4864e-07
7.78496e-07
-9.86646e-07
7.72382e-07
7.71566e-07
-8.97073e-07
7.44927e-07
-1.68334e-07
1.85294e-07
-7.08968e-07
4.69956e-07
-6.82484e-07
6.22164e-07
-2.48376e-07
7.4574e-07
-1.68609e-07
5.28691e-07
3.46326e-07
3.44168e-07
-3.00661e-06
7.66663e-07
3.3351e-07
-2.93059e-06
9.85548e-07
3.10431e-07
-2.23428e-06
1.14824e-06
3.01224e-07
-2.07241e-06
2.74468e-07
-9.78291e-07
3.3568e-07
7.64748e-07
-2.93135e-06
7.54676e-07
7.52748e-07
-2.85912e-06
9.73743e-07
7.21984e-07
-2.17224e-06
1.13739e-06
7.10162e-07
-2.01458e-06
6.71821e-07
-9.32541e-07
3.1258e-07
9.83968e-07
-2.23552e-06
7.23903e-07
9.72149e-07
-2.17274e-06
9.40507e-07
9.38915e-07
-1.51224e-06
1.10455e-06
9.26343e-07
-1.36645e-06
8.82663e-07
-3.20108e-07
3.03377e-07
1.14713e-06
-2.07419e-06
7.12087e-07
1.13627e-06
-2.01561e-06
9.27942e-07
1.10343e-06
-1.36698e-06
1.09237e-06
1.09123e-06
-1.22636e-06
1.04743e-06
-1.96869e-07
2.76592e-07
-9.80395e-07
6.73727e-07
-9.33914e-07
8.8425e-07
-3.20988e-07
1.04856e-06
-1.97227e-07
7.81763e-07
5.24441e-07
5.21788e-07
-4.30392e-06
1.12369e-06
5.07125e-07
-4.17478e-06
1.43949e-06
4.76034e-07
-3.18054e-06
1.6643e-06
4.62945e-07
-2.92176e-06
4.25136e-07
-1.35769e-06
5.09795e-07
1.12136e-06
-4.17584e-06
1.10701e-06
1.10466e-06
-4.05384e-06
1.42262e-06
1.06298e-06
-3.07476e-06
1.64868e-06
1.04568e-06
-2.82334e-06
9.90789e-07
-1.27929e-06
4.78675e-07
1.43758e-06
-3.18219e-06
1.06531e-06
1.42069e-06
-3.07537e-06
1.37546e-06
1.37354e-06
-2.13291e-06
1.60224e-06
1.35458e-06
-1.90211e-06
1.28992e-06
-4.11119e-07
4.65593e-07
1.66302e-06
-2.92415e-06
1.04802e-06
1.64738e-06
-2.82469e-06
1.35652e-06
1.60093e-06
-1.90284e-06
1.58383e-06
1.5825e-06
-1.68156e-06
1.51801e-06
-2.19843e-07
4.27741e-07
-1.36048e-06
9.93105e-07
-1.28107e-06
1.29183e-06
-4.12284e-07
1.51933e-06
-2.20291e-07
1.16439e-06
7.79937e-07
7.76334e-07
-6.16854e-06
1.63044e-06
7.54796e-07
-5.95061e-06
2.0706e-06
7.02584e-07
-4.51713e-06
2.36614e-06
6.80878e-07
-4.10149e-06
6.17167e-07
-1.86627e-06
7.58422e-07
1.62729e-06
-5.9521e-06
1.60334e-06
1.60016e-06
-5.74408e-06
2.04207e-06
1.52504e-06
-4.33591e-06
2.33918e-06
1.49452e-06
-3.93405e-06
1.39796e-06
-1.7335e-06
7.06167e-07
2.06801e-06
-4.51935e-06
1.52821e-06
2.03946e-06
-4.33667e-06
1.95971e-06
1.9571e-06
-2.99643e-06
2.25769e-06
1.92282e-06
-2.62835e-06
1.8112e-06
-5.17531e-07
6.84467e-07
2.36441e-06
-4.10473e-06
1.49769e-06
2.33741e-06
-3.93583e-06
1.92544e-06
2.25591e-06
-2.62937e-06
2.2237e-06
2.22191e-06
-2.27887e-06
2.11049e-06
-2.18659e-07
6.20697e-07
-1.87002e-06
1.4011e-06
-1.73582e-06
1.8138e-06
-5.19104e-07
2.11228e-06
-2.19234e-07
1.71372e-06
1.18371e-06
1.17909e-06
-8.90667e-06
2.40042e-06
1.14401e-06
-8.52009e-06
3.04626e-06
1.07461e-06
-6.47636e-06
3.44156e-06
1.04019e-06
-5.78816e-06
9.5061e-07
-2.58662e-06
1.14867e-06
2.39643e-06
-8.52225e-06
2.3578e-06
2.35377e-06
-8.16292e-06
3.00215e-06
2.25931e-06
-6.16492e-06
3.40025e-06
2.21008e-06
-5.50199e-06
2.07702e-06
-2.36098e-06
1.07919e-06
3.04299e-06
-6.47937e-06
2.26332e-06
2.99884e-06
-6.16582e-06
2.88924e-06
2.88594e-06
-4.24893e-06
3.29044e-06
2.82992e-06
-3.64935e-06
2.66828e-06
-6.37135e-07
1.04479e-06
3.43946e-06
-5.79263e-06
2.2141e-06
3.39809e-06
-5.50434e-06
2.83324e-06
3.28826e-06
-3.65079e-06
3.23582e-06
3.23362e-06
-3.0851e-06
3.07663e-06
-1.65381e-07
9.5512e-07
-2.5917e-06
2.08098e-06
-2.364e-06
2.67157e-06
-6.39259e-07
3.07882e-06
-1.66103e-07
2.56488e-06
1.75742e-06
1.75103e-06
-1.28768e-05
3.51285e-06
1.70626e-06
-1.22404e-05
4.41641e-06
1.57936e-06
-9.25903e-06
4.91875e-06
1.52201e-06
-8.12796e-06
1.35963e-06
-3.52922e-06
1.7127e-06
3.50734e-06
-1.22435e-05
3.44793e-06
3.44238e-06
-1.16342e-05
4.33826e-06
3.243e-06
-8.71884e-06
4.84435e-06
3.15798e-06
-7.644e-06
2.90158e-06
-3.15163e-06
1.58573e-06
4.4119e-06
-9.2632e-06
3.24852e-06
4.3337e-06
-8.71988e-06
4.12128e-06
4.11671e-06
-5.99536e-06
4.63311e-06
4.01584e-06
-5.019e-06
3.71816e-06
-7.54606e-07
1.52837e-06
4.91585e-06
-8.13421e-06
3.16351e-06
4.84139e-06
-7.64713e-06
4.02042e-06
4.63013e-06
-5.02108e-06
4.53276e-06
4.52975e-06
-4.11131e-06
4.23708e-06
-5.55118e-09
1.36587e-06
-3.53626e-06
2.90705e-06
-3.15563e-06
3.7227e-06
-7.5753e-07
4.24007e-06
-6.46761e-09
3.779e-06
2.75162e-06
2.74306e-06
-1.89425e-05
5.26868e-06
2.63274e-06
-1.77111e-05
6.62359e-06
2.46836e-06
-1.34569e-05
7.23509e-06
2.35951e-06
-1.1495e-05
2.1309e-06
-4.85092e-06
2.64137e-06
5.26155e-06
-1.77162e-05
5.13164e-06
5.12437e-06
-1.6616e-05
6.48733e-06
4.91028e-06
-1.25164e-05
7.10738e-06
4.74293e-06
-1.06474e-05
4.40172e-06
-4.20319e-06
2.47677e-06
6.61774e-06
-1.34629e-05
4.9175e-06
6.48139e-06
-1.25176e-05
6.20554e-06
6.19961e-06
-8.57268e-06
6.83782e-06
6.00509e-06
-6.9134e-06
5.58059e-06
-7.95001e-07
2.36794e-06
7.23157e-06
-1.15041e-05
4.75017e-06
7.10369e-06
-1.06516e-05
6.01106e-06
6.83411e-06
-6.91643e-06
6.65319e-06
6.6494e-06
-5.3977e-06
6.25793e-06
4.11535e-07
2.13908e-06
-4.86073e-06
4.40883e-06
-4.20844e-06
5.58647e-06
-7.99024e-07
6.26168e-06
4.10398e-07
5.75356e-06
4.44564e-06
4.43321e-06
-2.85167e-05
8.15507e-06
4.19253e-06
-2.601e-05
9.93605e-06
3.75409e-06
-1.94572e-05
1.04991e-05
3.51152e-06
-1.60594e-05
3.05236e-06
-6.44314e-06
4.2052e-06
8.14508e-06
-2.60184e-05
7.88344e-06
7.87312e-06
-2.39748e-05
9.64445e-06
7.20863e-06
-1.77319e-05
1.02536e-05
6.8826e-06
-1.46276e-05
6.14566e-06
-5.36598e-06
3.76627e-06
9.92794e-06
-1.94662e-05
7.21893e-06
9.63613e-06
-1.77332e-05
8.98849e-06
8.98011e-06
-1.21137e-05
9.67151e-06
8.60638e-06
-9.32017e-06
7.76001e-06
-6.43162e-07
3.52346e-06
1.04941e-05
-1.60727e-05
6.89281e-06
1.02485e-05
-1.46333e-05
8.61481e-06
9.66636e-06
-9.32463e-06
9.33387e-06
9.32859e-06
-6.83895e-06
8.53603e-06
1.2987e-06
3.06395e-06
-6.45743e-06
6.1557e-06
-5.37294e-06
7.7683e-06
-6.48761e-07
8.54126e-06
1.29728e-06
8.64147e-06
8.91154e-06
8.8926e-06
-4.73774e-05
1.44478e-05
7.72055e-06
-3.98096e-05
1.62423e-05
6.72909e-06
-2.85602e-05
1.60654e-05
5.89701e-06
-2.23914e-05
5.01722e-06
-8.37281e-06
7.73958e-06
1.44363e-05
-3.98302e-05
1.3268e-05
1.32552e-05
-3.50378e-05
1.54216e-05
1.20344e-05
-2.51908e-05
1.55589e-05
1.08752e-05
-1.97431e-05
9.69923e-06
-6.46352e-06
6.74329e-06
1.62326e-05
-2.85722e-05
1.20449e-05
1.5412e-05
-2.51916e-05
1.43652e-05
1.43547e-05
-1.67541e-05
1.47411e-05
1.33673e-05
-1.21881e-05
1.20493e-05
2.10317e-07
5.91041e-06
1.60603e-05
-2.24098e-05
1.08875e-05
1.55527e-05
-1.97511e-05
1.33782e-05
1.47347e-05
-1.21953e-05
1.39795e-05
1.39729e-05
-8.0458e-06
1.28982e-05
3.35845e-06
5.03126e-06
-8.39245e-06
9.71188e-06
-6.47329e-06
1.206e-05
2.02274e-07
1.29048e-05
3.35669e-06
1.36434e-05
1.33371e-05
1.33138e-05
-7.52082e-05
2.46572e-05
1.30819e-05
-6.48858e-05
2.76113e-05
1.12103e-05
-4.35194e-05
2.44737e-05
9.49543e-06
-2.95134e-05
7.71863e-06
-9.83707e-06
1.31054e-05
2.46343e-05
-6.49156e-05
2.33656e-05
2.3345e-05
-5.5561e-05
2.51366e-05
1.87894e-05
-3.45409e-05
2.30486e-05
1.69911e-05
-2.51507e-05
1.41425e-05
-6.72238e-06
1.12347e-05
2.7596e-05
-4.35493e-05
1.88081e-05
2.51206e-05
-3.45406e-05
2.15226e-05
2.15109e-05
-2.21901e-05
2.10668e-05
1.97317e-05
-1.4473e-05
1.6914e-05
2.6835e-06
9.51548e-06
2.4465e-05
-2.95423e-05
1.70072e-05
2.30397e-05
-2.51618e-05
1.97462e-05
2.10594e-05
-1.44828e-05
1.96937e-05
1.96848e-05
-7.94635e-06
1.73509e-05
7.50765e-06
7.73696e-06
-9.86625e-06
1.41578e-05
-6.73534e-06
1.69282e-05
2.67171e-06
1.73598e-05
7.50522e-06
2.10181e-05
1.96466e-05
1.96261e-05
-0.000115763
3.29865e-05
1.83081e-05
-9.72638e-05
4.16091e-05
1.71424e-05
-7.02152e-05
4.01023e-05
1.5637e-05
-4.465e-05
1.2983e-05
-9.27972e-06
1.83321e-05
3.2967e-05
-9.7299e-05
3.14305e-05
3.14084e-05
-8.17597e-05
3.98459e-05
3.09214e-05
-5.67353e-05
3.60406e-05
2.7083e-05
-3.27912e-05
2.2462e-05
-4.53523e-06
1.71669e-05
4.15855e-05
-7.02473e-05
3.0945e-05
3.98229e-05
-5.67331e-05
3.49822e-05
3.4966e-05
-3.02719e-05
3.21306e-05
3.06467e-05
-1.51851e-05
2.57829e-05
8.2089e-06
1.56641e-05
4.00974e-05
-4.47073e-05
2.71054e-05
3.60323e-05
-3.28125e-05
3.06615e-05
3.21237e-05
-1.51967e-05
2.91676e-05
2.9157e-05
-4.96261e-06
2.55437e-05
1.51397e-05
1.3006e-05
-9.32015e-06
2.24813e-05
-4.54979e-06
2.58009e-05
8.19362e-06
2.55547e-05
1.51367e-05
3.1582e-05
2.51913e-05
2.51681e-05
-0.000167486
4.17316e-05
2.31916e-05
-0.000137789
5.08107e-05
2.08391e-05
-0.000101098
5.00464e-05
1.91132e-05
-6.40022e-05
1.49769e-05
-1.06033e-05
2.32145e-05
4.17053e-05
-0.000137821
3.88864e-05
3.88637e-05
-0.000113104
4.77614e-05
3.57237e-05
-8.0495e-05
4.70178e-05
3.44791e-05
-4.74134e-05
2.65818e-05
-2.68531e-06
2.08514e-05
5.07865e-05
-0.000101125
3.5735e-05
4.7741e-05
-8.0494e-05
4.47029e-05
4.4693e-05
-4.82092e-05
4.24633e-05
3.90649e-05
-1.75314e-05
3.17451e-05
1.42134e-05
1.91227e-05
5.00321e-05
-6.40606e-05
3.44861e-05
4.70055e-05
-4.74405e-05
3.90832e-05
4.24494e-05
-1.75502e-05
3.76641e-05
3.76493e-05
-2.12772e-06
3.10788e-05
2.43979e-05
1.49993e-05
-1.06606e-05
2.66065e-05
-2.71046e-06
3.17687e-05
1.41899e-05
3.10943e-05
2.4393e-05
4.22389e-05
4.52862e-05
4.52584e-05
-0.000259827
6.82622e-05
3.89267e-05
-0.000200677
7.9336e-05
3.40178e-05
-0.000147519
7.26516e-05
2.80834e-05
-8.68136e-05
2.30825e-05
-1.42973e-05
3.89601e-05
6.82306e-05
-0.000200711
6.03674e-05
6.03329e-05
-0.000155917
7.17056e-05
5.4273e-05
-0.000112088
6.69519e-05
4.64011e-05
-6.09775e-05
3.86747e-05
7.2102e-07
3.40472e-05
7.93016e-05
-0.00014755
5.43042e-05
7.16732e-05
-0.000112091
6.52301e-05
6.51999e-05
-7.00619e-05
6.17489e-05
5.69867e-05
-2.46357e-05
4.73417e-05
2.15183e-05
2.81182e-05
7.26151e-05
-8.6879e-05
4.64329e-05
6.69284e-05
-6.10103e-05
5.70178e-05
6.17325e-05
-2.46678e-05
5.29102e-05
5.28905e-05
6.07622e-06
4.84621e-05
3.53428e-05
2.31334e-05
-1.44165e-05
3.87143e-05
6.88522e-07
4.73727e-05
2.14909e-05
4.84807e-05
3.53357e-05
6.19908e-05
6.70425e-05
6.7003e-05
-0.000395838
0.000100836
5.77571e-05
-0.000293404
0.000113221
4.88803e-05
-0.000210242
9.96477e-05
3.98331e-05
-0.000114662
3.17961e-05
-1.95922e-05
5.78091e-05
0.00010079
-0.000293446
8.81806e-05
8.81315e-05
-0.000216663
0.000101093
7.7001e-05
-0.000153121
9.09469e-05
6.39291e-05
-7.49278e-05
5.19349e-05
5.60564e-06
4.89211e-05
0.000113175
-0.000210287
7.70454e-05
0.000101049
-0.000153133
8.96215e-05
8.95807e-05
-9.52178e-05
8.22543e-05
7.59427e-05
-2.92821e-05
6.3307e-05
3.1244e-05
3.98785e-05
9.96145e-05
-0.000114751
6.39765e-05
9.09181e-05
-7.49774e-05
7.59844e-05
8.22255e-05
-2.93205e-05
7.17213e-05
7.16932e-05
1.45889e-05
6.28306e-05
5.2955e-05
3.18359e-05
-1.97459e-05
5.19821e-05
5.54523e-06
6.33483e-05
3.1204e-05
6.28585e-05
5.29431e-05
8.93297e-05
0.000152195
0.000152133
-0.00070315
0.000199099
0.000113265
-0.000455067
0.000202612
9.3e-05
-0.000308855
0.000161614
6.81007e-05
-0.000143883
5.23299e-05
-1.89179e-05
0.000113367
0.000199039
-0.000455135
0.000158466
0.000158392
-0.000306888
0.000169558
0.000135687
-0.000206901
0.000138925
0.000103065
-7.92586e-05
8.65214e-05
1.6701e-05
9.30663e-05
0.000202556
-0.000308929
0.000135752
0.000169499
-0.000206925
0.000148935
0.000148881
-0.000121595
0.000128018
0.000118782
-2.40823e-05
0.000101052
5.56584e-05
6.81682e-05
0.000161574
-0.000144006
0.000103134
0.000138888
-7.93319e-05
0.000118838
0.000127981
-2.41242e-05
0.00010737
0.000107337
3.75021e-05
9.44263e-05
9.08323e-05
5.23892e-05
-1.91198e-05
8.6581e-05
1.6612e-05
0.000101105
5.55999e-05
9.44588e-05
9.08189e-05
0.000138065
0.00024309
0.000243021
-0.00119194
0.000309691
0.000183821
-0.000707294
0.000305237
0.000141294
-0.000447802
0.000233473
9.94153e-05
-0.000173892
7.10104e-05
-6.42611e-06
0.000183954
0.000309604
-0.000707396
0.000241085
0.000240992
-0.000421189
0.000247201
0.000197051
-0.000268774
0.00019624
0.00014489
-7.37719e-05
0.00011342
4.33113e-05
0.000141375
0.000305147
-0.000447902
0.000197137
0.000247115
-0.000268811
0.000209838
0.000209759
-0.000147004
0.000173574
0.000161978
-4.90636e-06
0.000130121
9.57403e-05
9.95029e-05
0.000233381
-0.00017404
0.000144982
0.000196173
-7.38681e-05
0.000162055
0.000173516
-4.95534e-06
0.000140167
0.000140116
8.12513e-05
0.000118014
0.000145663
7.10992e-05
-6.71249e-06
0.000113514
4.3177e-05
0.000130197
9.56688e-05
0.000118066
0.000145647
0.000201246
0.00063878
0.000638584
-0.00247573
0.000695992
0.000400954
-0.00116902
0.000593973
0.000293207
-0.000643112
0.000406353
0.000174301
-0.000164083
0.000125594
4.90943e-05
0.000401366
0.000695872
-0.00116913
0.000464192
0.000463997
-0.000547058
0.00043475
0.000365373
-0.000311497
0.000316199
0.000236531
-1.74507e-05
0.000181133
0.000124882
0.000293402
0.000593883
-0.000643268
0.000365544
0.000434635
-0.000311591
0.000361563
0.000361437
-0.000139087
0.000277655
0.000253944
6.15883e-05
0.00019789
0.00018856
0.000174491
0.000406227
-0.000164211
0.000236691
0.000316118
-1.75516e-05
0.000254061
0.000277563
6.1548e-05
0.000204022
0.000203941
0.000181294
0.000170022
0.000248052
0.000125695
4.87246e-05
0.000181266
0.000124667
0.000198006
0.00018846
0.000170105
0.000248023
0.000304807
0.00107294
0.00107295
-0.004621
0.00110886
0.000678784
-0.0018815
0.000889602
0.000442597
-0.000868605
0.000568881
0.000254506
-0.000100621
0.000162123
0.000157599
0.000678985
0.00110869
-0.00188165
0.00070856
0.000708471
-0.000606321
0.000612127
0.000518344
-0.000290812
0.00041502
0.000313644
0.000120519
0.000222608
0.000254809
0.00044269
0.000889409
-0.000868734
0.000518469
0.000612019
-0.000290918
0.000486223
0.000486104
-7.46012e-05
0.00034947
0.000316842
0.000195144
0.000235893
0.000319139
0.00025461
0.000568598
-0.00010067
0.000313767
0.000414857
0.000120453
0.000316957
0.000349327
0.000195134
0.000245612
0.000245498
0.000323982
0.000197813
0.000377938
0.00016224
0.000157113
0.000222722
0.000254526
0.000236025
0.000318968
0.000197936
0.000377867
0.000428642
0.00317822
0.00317778
-0.00369342
-0.00262497
-0.00262409
-0.0020527
0.00277231
0.00147811
-0.000950505
-0.000589699
-0.000810989
-0.000619218
0.00168848
0.000836768
-0.000631423
0.000952182
0.000409043
0.000220357
0.00023714
0.000430356
0.00147947
0.00277231
-0.000950408
-0.000811281
-0.000588708
-0.000619147
0.00139097
0.00139054
-0.000430246
0.00103179
0.000928908
-2.37729e-05
0.000635284
0.000476833
0.000449234
0.000316514
0.000506289
0.000837165
0.00168837
-0.000631402
0.000929184
0.00103163
-2.40312e-05
0.000765299
0.000765066
0.000253125
0.000514394
0.000447768
0.000475114
0.000320935
0.000549413
0.000409248
0.00095187
0.000220683
0.000477037
0.000635048
0.000449247
0.000447956
0.000514135
0.000475147
0.000326307
0.000326127
0.000567273
0.00025816
0.000578971
0.000237409
0.000429837
0.000316829
0.000505901
0.000321194
0.000549214
0.000258367
0.00057888
0.000601087
0.00199273
0.00199379
-0.00171258
-0.00213876
-0.0019169
-0.00191696
-0.00219214
0.0017888
0.000617781
-0.00116313
0.00250509
0.00134801
0.00102826
-0.00128368
-0.00130315
-0.00154321
-0.00138304
0.00125671
0.000529246
0.000941929
0.000284905
0.000898502
-0.00219318
0.000617108
0.00178749
-0.00116433
0.00204197
0.00204152
0.000363927
-0.000696639
-0.000671853
-0.000966832
-0.000628472
-0.00069657
-0.000672312
-0.000967273
-0.000628391
0.000367044
0.000367165
0.000316465
0.00118034
0.00123013
0.000955735
0.000708516
0.000531876
0.00091843
0.000340312
0.000855481
0.00134775
0.00250411
0.00102697
-0.0012822
-0.00130247
-0.0015428
-0.00138269
0.00123014
0.00117984
0.000955252
0.000887337
0.000887096
0.000938964
0.000565716
0.000461502
0.000867108
0.000327228
0.000837828
0.000529271
0.00125593
0.000942127
0.000531915
0.000708057
0.000918387
0.000461654
0.000565361
0.000867143
0.000328877
0.000328654
0.000832898
0.000257698
0.000791994
0.000285172
0.00089785
0.000340658
0.00085489
0.000327544
0.00083756
0.000257972
0.000791866
0.000773343
0.00441082
0.000118547
0.000118626
-0.00464541
-0.00170203
0.000204801
0.000304475
-9.62093e-05
0.00128912
0.00280934
0.00139946
0.00315502
-0.0019937
-0.00163029
-0.00151536
-0.00122513
0.00142551
0.000564061
0.00175318
0.000288728
0.00143967
-0.00170164
0.000204784
0.000305866
-9.61606e-05
0.0012895
-0.0012822
-0.00129483
0.00103639
0.00103689
0.000867677
0.00144484
0.00144022
0.0023248
-0.000802506
-0.00071884
-0.000667991
-0.000665331
0.000845206
0.000585158
0.00149697
0.000362377
0.00128102
0.00140126
0.00280849
0.0031517
-0.00199427
-0.00162987
-0.00151594
-0.00122437
0.00144096
0.00144451
0.00232402
-0.000802065
-0.00071848
-0.000667429
-0.000665004
0.00102588
0.0010253
0.00176896
0.000632798
0.000507929
0.00133742
0.000341598
0.00115585
0.000563874
0.00142468
0.00175321
0.000585265
0.000844593
0.00149691
0.000508137
0.000632219
0.00133735
0.00035393
0.000353642
0.00114139
0.000268609
0.00102711
0.000289348
0.00143942
0.000363078
0.00128053
0.000342179
0.00115563
0.000269026
0.00102709
0.000942817
0.00487086
2.04499e-05
2.0248e-05
-0.004913
-0.000140699
0.00100475
-1.76088e-05
-0.00124423
0.000384143
0.00103847
0.000621262
0.00326827
-0.00105401
-0.000707172
-5.04327e-05
6.49964e-05
0.000633566
0.000299409
0.00186499
0.000149233
0.0015923
-0.000140379
0.0010023
-1.74634e-05
-0.00124109
0.000383699
0.000389306
0.000388275
0.0028431
2.71246e-05
-0.000376268
0.000295349
-6.19285e-05
2.7225e-05
-0.000373598
0.000290888
-6.15305e-05
-0.00108355
-0.000755968
-0.000756219
-0.000792204
0.0004384
0.000548464
0.0023485
0.000344624
0.000284306
0.00160584
0.000187405
0.00138984
0.000624791
0.00103925
0.00327013
-0.0010543
-0.000706612
-5.69993e-05
6.54446e-05
0.000550293
0.000438178
0.00234861
0.000430811
0.000430549
0.00200636
0.000321315
0.000247216
0.00148401
0.000191788
0.00128002
0.000299107
0.000632843
0.00186534
0.000284252
0.000343945
0.001606
0.000247385
0.000320625
0.00148414
0.000191032
0.000190772
0.00125419
0.000167431
0.00112061
0.000150618
0.00159289
0.000188329
0.00139019
0.000192237
0.0012802
0.00016786
0.00112061
0.00101637
-0.000691982
-0.000691898
-0.0188541
0.00508533
0.00507604
0.00507593
0.00500486
-0.000976937
-0.000759674
-0.00188773
0.00146361
0.001678
0.000725147
0.00117933
0.00179495
-0.000393949
-0.00023066
-0.000291667
-0.000687867
-0.00117102
-0.000464327
0.000301236
-0.000178583
0.00216253
0.000154983
0.000174636
0.0018262
-2.80708e-05
0.00143128
-0.000764712
-0.000978767
-0.00188787
0.00146221
0.00167738
0.000724333
0.00117875
0.00179575
-0.000231154
-0.000391292
-0.000292194
-0.00117118
-0.000688054
-0.000464465
-0.000194091
-0.000193354
0.00170615
0.000102504
-6.65182e-05
0.00193984
0.000143641
0.000153009
0.00158634
3.24543e-05
0.00132161
-0.000177701
0.000299818
0.00216322
-6.54246e-05
0.000102509
0.00194047
7.13219e-05
7.05537e-05
0.00173254
0.000136728
0.000118949
0.00145266
6.29846e-05
0.00123482
0.000173805
0.000153847
0.00182586
0.000153007
0.000143011
0.00158629
0.000119093
0.000136052
0.00145256
0.000108148
0.000107859
0.00127622
9.05195e-05
0.00111896
-2.72518e-05
0.00143192
3.33018e-05
0.0013221
6.36139e-05
0.00123508
9.09434e-05
0.00111913
0.00100644
0.00473917
6.7534e-05
6.7539e-05
-0.00487852
-0.000195347
0.000291833
0.000317648
-0.000144731
-0.00056625
-0.000419898
-0.000455426
-0.000422842
-0.000161473
-0.000157642
6.10799e-05
-0.000111922
0.00234891
-0.000111771
0.000176049
-0.000148881
-4.97482e-05
-8.8442e-06
1.89017e-05
0.00187438
-5.82865e-05
0.00134627
-0.000195308
0.000317838
0.000291789
-0.000144705
-0.000566247
-0.000419892
-0.000455388
-0.000422812
-0.000161481
-0.000157594
4.04918e-06
3.34888e-06
0.000716865
-0.000257078
3.44645e-05
-0.000498353
0.000135345
-0.000257236
3.43093e-05
-0.000498348
0.000135345
0.000716849
0.000716835
0.000719758
-1.54118e-06
-0.000172527
0.00200604
-4.55971e-05
6.50504e-06
0.00164279
-6.04969e-05
0.00123493
-0.000110581
6.06379e-05
0.00234913
-0.000111614
0.000176235
-0.000148734
-4.95072e-05
-0.000171436
-1.76998e-06
0.00200645
-0.000137769
-0.000138376
0.00166472
-3.13803e-05
-3.97956e-05
0.00139257
-4.04902e-05
0.00113733
1.89059e-05
-9.44867e-06
0.00187416
6.83235e-06
-4.61781e-05
0.00164278
-3.94751e-05
-3.20277e-05
0.00139252
-1.3442e-05
-1.37653e-05
0.00122416
1.13794e-05
0.00103973
-5.77208e-05
0.00134672
-5.99942e-05
0.00123536
-4.01799e-05
0.00113744
1.16923e-05
0.00103973
0.000932721
0.00492159
1.30167e-05
1.30014e-05
-0.00494736
-0.000404736
0.000305944
0.000554643
1.43341e-05
-0.000488459
-0.000661878
-0.000380321
0.00228199
-0.000133401
8.44432e-05
0.000540854
0.000625615
-0.000347845
-0.000122739
0.00168757
-0.000119592
0.00120875
-0.000404728
0.000305904
1.43044e-05
0.000554624
-0.000488391
-1.52162e-05
-1.52174e-05
-0.000156417
-0.000156506
0.00095773
5.90691e-06
3.15016e-05
1.38434e-05
5.9031e-06
3.14967e-05
1.38389e-05
-0.000536213
-0.000392332
0.00188066
0.000157626
0.000173292
0.000187858
0.00015483
-0.000276695
-0.00019561
0.00145614
-0.000117711
0.00111253
-0.000380033
-0.000662213
0.00228213
-0.000133306
8.44371e-05
0.000540911
0.000625652
-0.000392002
-0.000536391
0.00188079
0.000157742
0.000173405
0.000187955
0.000154919
-0.000315728
-0.00031595
0.00151206
-0.000181688
-0.000193861
0.00125678
-0.00011213
0.00100476
-0.000122742
-0.000348329
0.0016875
-0.000195532
-0.000277034
0.00145621
-0.000193807
-0.000181961
0.0012568
-0.000129719
-0.000129813
0.00109603
-5.58251e-05
0.000927869
-0.000119278
0.00120912
-0.000117353
0.00111286
-0.000111884
0.00100496
-5.56189e-05
0.000927941
0.000813927
0.00498703
-7.78484e-05
-7.78607e-05
-0.00482646
0.000722552
-0.00161542
-0.000803961
-0.00127595
0.000732208
0.000775038
0.000760979
0.000564907
-6.32152e-05
0.000278789
-0.000112949
-0.00206942
-0.000961539
0.00126546
0.000863862
0.000971298
0.0011887
0.00101965
-0.00102274
-0.000354968
0.00099625
-0.000221685
0.000858997
0.000722559
-0.000803953
-0.00161544
-0.00127587
0.000732213
0.000775042
0.000760982
0.000564865
0.000278751
-6.32278e-05
-0.000112961
-0.00220568
-0.00220585
0.00117342
0.00094356
0.000507922
0.00108931
0.000521843
0.000943531
0.000507886
0.00108926
0.000521757
-0.000717516
-0.000717558
-0.000717561
-0.000734323
-0.0013995
-0.00103044
0.00114338
-0.000732835
-0.000480939
0.000915442
-0.000248198
0.000828713
-0.000961394
-0.0020696
0.00126561
0.00086391
0.000971312
0.00118871
0.00101966
-0.00103028
-0.00139968
0.0011435
-0.000774779
-0.000774924
0.00100105
-0.000452045
-0.000433938
0.000887048
-0.000223841
0.000760842
-0.000354921
-0.00102295
0.000996278
-0.000480864
-0.000733021
0.000915495
-0.000433837
-0.000452214
0.000887068
-0.000289759
-0.000289874
0.000807884
-0.00013455
0.000732391
-0.000221516
0.000859305
-0.000247997
0.000828956
-0.000223655
0.000760995
-0.000134413
0.000732463
0.000651071
-0.00666515
-0.00666519
-0.0211198
0.0116611
0.00868337
0.00868335
0.00541622
-0.00390387
-0.0024481
-0.00224737
0.00118033
0.000143651
0.000394134
0.000206655
-0.00193243
-0.000978163
0.000264626
-0.00107075
-0.00035999
0.000490189
-0.000239049
0.000519521
-0.00244806
-0.00390393
-0.00224734
0.0011803
0.000394117
0.000143658
0.000206643
-0.00193714
-0.00193724
0.000151646
-0.00123018
-0.00103093
0.000489188
-0.000734685
-0.000471341
0.000531303
-0.00027828
0.000556219
-0.00097807
-0.00193255
0.000264783
-0.00103082
-0.00123026
0.000489264
-0.000788092
-0.000788187
0.000515572
-0.000496973
-0.000437936