/*--------------------------------*- C++ -*----------------------------------*\
| =========                 |                                                 |
| \\      /  F ield         | OpenFOAM: The Open Source CFD Toolbox           |
|  \\    /   O peration     | Version:  5.x                                   |
|   \\  /    A nd           | Web:      www.OpenFOAM.org                      |
|    \\/     M anipulation  |                                                 |
\*---------------------------------------------------------------------------*/
FoamFile
{
    version     2.0;
    format      ascii;
    class       volScalarField;
    location    "0.072";
    object      phiIB;
}
// * * * * * * * * * * * * * * * * * * * * * * * * * * * * * * * * * * * * * //

dimensions      [0 2 -1 0 0 0 0];

internalField   nonuniform List<scalar> 
1539
(
-0.000220018
-0.000220019
-0.000220036
-0.000220048
-0.000220113
-0.000220018
-0.00022002
-0.000220037
-0.000220049
-0.000220114
-0.000220036
-0.000220037
-0.000220053
-0.000220065
-0.000220128
-0.000220047
-0.000220049
-0.000220065
-0.000220077
-0.00022014
-0.000220112
-0.000220113
-0.000220128
-0.000220139
-0.0002202
-0.000440516
-0.000440515
-0.000440521
-0.000440535
-0.000440541
-0.000440515
-0.000440515
-0.00044052
-0.000440534
-0.00044054
-0.00044052
-0.00044052
-0.000440525
-0.000440539
-0.000440544
-0.000440534
-0.000440533
-0.000440539
-0.000440552
-0.000440557
-0.00044054
-0.000440539
-0.000440544
-0.000440556
-0.00044056
-0.00102831
-0.00102831
-0.00102834
-0.00102837
-0.00102845
-0.00102831
-0.00102831
-0.00102834
-0.00102837
-0.00102845
-0.00102834
-0.00102834
-0.00102836
-0.0010284
-0.00102848
-0.00102837
-0.00102837
-0.0010284
-0.00102843
-0.00102851
-0.00102845
-0.00102845
-0.00102848
-0.00102851
-0.00102858
-0.00133654
-0.00133654
-0.00133657
-0.00133662
-0.00133669
-0.00133654
-0.00133655
-0.00133658
-0.00133662
-0.00133669
-0.00133657
-0.00133658
-0.00133661
-0.00133665
-0.00133672
-0.00133662
-0.00133662
-0.00133665
-0.00133669
-0.00133676
-0.00133669
-0.00133669
-0.00133672
-0.00133676
-0.00133683
-0.001885
-0.00188501
-0.00188506
-0.00188513
-0.00188527
-0.00188501
-0.00188501
-0.00188507
-0.00188514
-0.00188528
-0.00188506
-0.00188507
-0.00188512
-0.00188519
-0.00188532
-0.00188513
-0.00188514
-0.00188519
-0.00188525
-0.00188538
-0.00188527
-0.00188527
-0.00188532
-0.00188538
-0.00188551
-0.0022335
-0.00223351
-0.00223359
-0.00223368
-0.00223386
-0.00223351
-0.00223352
-0.0022336
-0.00223369
-0.00223387
-0.00223359
-0.0022336
-0.00223367
-0.00223376
-0.00223393
-0.00223368
-0.00223369
-0.00223376
-0.00223385
-0.00223402
-0.00223386
-0.00223387
-0.00223393
-0.00223402
-0.00223418
-0.00274619
-0.00274621
-0.00274633
-0.00274646
-0.00274674
-0.00274621
-0.00274623
-0.00274634
-0.00274648
-0.00274675
-0.00274632
-0.00274634
-0.00274645
-0.00274658
-0.00274684
-0.00274646
-0.00274647
-0.00274658
-0.0027467
-0.00274696
-0.00274673
-0.00274674
-0.00274684
-0.00274696
-0.00274721
-0.003124
-0.00312404
-0.0031242
-0.00312439
-0.00312478
-0.00312403
-0.00312407
-0.00312423
-0.00312442
-0.0031248
-0.0031242
-0.00312422
-0.00312438
-0.00312457
-0.00312494
-0.00312439
-0.00312442
-0.00312457
-0.00312475
-0.00312511
-0.00312477
-0.00312479
-0.00312493
-0.00312511
-0.00312546
-0.00360909
-0.00360913
-0.00360937
-0.00360964
-0.0036102
-0.00360913
-0.00360917
-0.00360941
-0.00360968
-0.00361022
-0.00360937
-0.00360941
-0.00360963
-0.00360989
-0.00361042
-0.00360964
-0.00360967
-0.00360989
-0.00361014
-0.00361067
-0.00361019
-0.00361022
-0.00361042
-0.00361066
-0.00361116
-0.00400629
-0.00400637
-0.00400671
-0.00400711
-0.0040079
-0.00400637
-0.00400644
-0.00400677
-0.00400716
-0.00400795
-0.00400671
-0.00400677
-0.00400709
-0.00400747
-0.00400824
-0.0040071
-0.00400716
-0.00400747
-0.00400784
-0.00400859
-0.00400789
-0.00400794
-0.00400823
-0.00400859
-0.00400931
-0.00447013
-0.00447022
-0.00447071
-0.00447124
-0.00447237
-0.00447022
-0.00447031
-0.00447079
-0.00447132
-0.00447243
-0.0044707
-0.00447079
-0.00447124
-0.00447176
-0.00447283
-0.00447124
-0.00447132
-0.00447175
-0.00447226
-0.00447331
-0.00447236
-0.00447243
-0.00447282
-0.00447331
-0.00447429
-0.00487732
-0.0048775
-0.00487819
-0.00487899
-0.00488061
-0.00487749
-0.00487766
-0.00487834
-0.00487912
-0.00488071
-0.00487819
-0.00487834
-0.00487899
-0.00487975
-0.0048813
-0.00487898
-0.00487912
-0.00487975
-0.00488048
-0.00488198
-0.00488059
-0.0048807
-0.00488129
-0.00488198
-0.00488342
-0.00532289
-0.0053231
-0.00532407
-0.0053251
-0.00532733
-0.0053231
-0.00532328
-0.00532423
-0.00532524
-0.00532744
-0.00532406
-0.00532423
-0.0053251
-0.00532607
-0.00532817
-0.00532509
-0.00532524
-0.00532607
-0.005327
-0.00532904
-0.00532731
-0.00532743
-0.00532816
-0.00532903
-0.00533092
-0.00573035
-0.00573075
-0.00573204
-0.00573342
-0.00573653
-0.00573074
-0.00573107
-0.00573229
-0.00573364
-0.00573667
-0.00573203
-0.00573229
-0.00573345
-0.00573472
-0.00573766
-0.00573341
-0.00573363
-0.00573471
-0.00573592
-0.00573877
-0.00573651
-0.00573666
-0.00573765
-0.00573876
-0.00574146
-0.00615749
-0.0061575
-0.00615891
-0.00616001
-0.00616369
-0.0061575
-0.00615763
-0.00615902
-0.00616005
-0.00616372
-0.0061589
-0.00615902
-0.00616013
-0.00616115
-0.00616465
-0.00615999
-0.00616004
-0.00616114
-0.0061622
-0.00616567
-0.00616367
-0.00616371
-0.00616464
-0.00616566
-0.00616884
-0.00655977
-0.00655604
-0.0065548
-0.00655447
-0.00655841
-0.00655604
-0.00655441
-0.00655426
-0.00655422
-0.00655818
-0.00655479
-0.00655426
-0.00655481
-0.00655495
-0.00655908
-0.00655445
-0.00655421
-0.00655494
-0.0065555
-0.00655976
-0.00655839
-0.00655817
-0.00655906
-0.00655976
-0.0065639
-0.00696686
-0.00696137
-0.00695138
-0.00694614
-0.0069488
-0.00696136
-0.00695524
-0.00694706
-0.00694437
-0.00694778
-0.00695138
-0.00694706
-0.0069453
-0.00694429
-0.00694808
-0.00694612
-0.00694436
-0.00694429
-0.00694339
-0.00694761
-0.00694877
-0.00694776
-0.00694807
-0.0069476
-0.00695181
-0.00728981
-0.0072884
-0.00728643
-0.00728184
-0.00728357
-0.00728838
-0.00728628
-0.00728347
-0.00727863
-0.00728128
-0.00728642
-0.00728347
-0.00727842
-0.00727632
-0.00728135
-0.00728181
-0.00727862
-0.0072763
-0.00727506
-0.00728116
-0.00728353
-0.00728126
-0.00728133
-0.00728114
-0.00728988
-0.00754714
-0.00754989
-0.00755512
-0.00755791
-0.00756565
-0.00754988
-0.00755165
-0.00755587
-0.00755777
-0.00756589
-0.00755509
-0.00755585
-0.00755852
-0.00755896
-0.00756864
-0.00755787
-0.00755772
-0.00755893
-0.00756112
-0.0075742
-0.00756559
-0.00756583
-0.00756858
-0.00757418
-0.00759151
-0.00767849
-0.00769239
-0.00771121
-0.00773297
-0.00775761
-0.00769233
-0.00770322
-0.00771947
-0.00773851
-0.00776082
-0.00771109
-0.00771941
-0.00773377
-0.00774985
-0.00777375
-0.00773283
-0.0077384
-0.0077498
-0.00776247
-0.00778996
-0.00775748
-0.00776069
-0.00777366
-0.00778992
-0.00781419
-0.00776168
-0.00779117
-0.00782191
-0.00786118
-0.00790683
-0.00779111
-0.00781278
-0.00783746
-0.0078706
-0.00791091
-0.00782175
-0.00783736
-0.0078591
-0.00788781
-0.00792569
-0.00786096
-0.00787043
-0.00788773
-0.00791119
-0.00794447
-0.00790654
-0.00791066
-0.00792553
-0.00794439
-0.00797159
-0.00773938
-0.00777999
-0.00782378
-0.00789174
-0.00796636
-0.00777989
-0.0078174
-0.00785211
-0.0079082
-0.00797512
-0.00782353
-0.00785193
-0.00788356
-0.00793208
-0.00798853
-0.00789138
-0.0079079
-0.00793195
-0.00796726
-0.00800808
-0.00796587
-0.00797472
-0.00798826
-0.00800795
-0.00804328
-0.00772325
-0.00782374
-0.00786284
-0.00794396
-0.00802206
-0.00782389
-0.00788725
-0.00790498
-0.00796695
-0.00803184
-0.00786267
-0.00790476
-0.00793001
-0.0079806
-0.00803904
-0.00794366
-0.0079666
-0.00798047
-0.00801352
-0.00805665
-0.0080215
-0.00803129
-0.00803868
-0.00805645
-0.00809272
-0.00772875
-0.00779521
-0.0078524
-0.00790778
-0.00801139
-0.00779515
-0.00783523
-0.00787028
-0.00792779
-0.00801044
-0.00785204
-0.00786984
-0.00790173
-0.00794715
-0.00801646
-0.00790724
-0.00792719
-0.00794699
-0.00797838
-0.00803326
-0.00801047
-0.00800951
-0.0080159
-0.00803295
-0.00808217
-0.00725746
-0.00769139
-0.00773595
-0.00790422
-0.00799507
-0.00769181
-0.00791165
-0.00785492
-0.00795807
-0.00801755
-0.00773545
-0.00785429
-0.00787066
-0.00794916
-0.0080201
-0.00790368
-0.00795737
-0.00794902
-0.00800055
-0.00804792
-0.0079939
-0.00801633
-0.00801939
-0.00804748
-0.00809281
-0.00748051
-0.00779973
-0.00783225
-0.00782877
-0.00800113
-0.00779989
-0.00783712
-0.00784477
-0.00785823
-0.00798671
-0.00783207
-0.00784391
-0.00787157
-0.0078853
-0.00799907
-0.00782785
-0.00785705
-0.00788515
-0.00792531
-0.00801034
-0.00799928
-0.00798457
-0.00799798
-0.00800961
-0.00807907
-0.00485787
-0.0071347
-0.00740554
-0.00772122
-0.00787631
-0.00713646
-0.00764402
-0.00756916
-0.00782605
-0.00790798
-0.00740252
-0.00756723
-0.00765331
-0.00781186
-0.00791313
-0.00771932
-0.00782457
-0.00781177
-0.00790542
-0.00796003
-0.00787312
-0.00790511
-0.0079118
-0.00795913
-0.00801444
4.50474e-06
-0.00703642
-0.00779045
-0.00776769
-0.00794808
-0.00702853
-0.00724043
-0.00769262
-0.00776012
-0.00790127
-0.0077896
-0.00769339
-0.00778507
-0.00778977
-0.00792851
-0.0077645
-0.00775938
-0.00778991
-0.00783179
-0.00792288
-0.00794477
-0.00789792
-0.00792698
-0.00792158
-0.0080019
-0.00911015
-0.00857941
-0.00792688
-0.00771397
-0.00786431
-0.00856448
-0.00788052
-0.00779371
-0.0077654
-0.00784907
-0.0079191
-0.00778881
-0.00772731
-0.00777265
-0.00780994
-0.0077106
-0.00776461
-0.00777366
-0.007779
-0.00782872
-0.00785731
-0.00784359
-0.00780791
-0.00782697
-0.00784985
-0.00684076
-0.00734051
-0.00751328
-0.0075856
-0.00783522
-0.00734223
-0.00748264
-0.00749954
-0.00765067
-0.00776204
-0.00751051
-0.00749743
-0.00766352
-0.00768271
-0.00779649
-0.00758296
-0.00764973
-0.00768296
-0.00770829
-0.00777842
-0.00782993
-0.00775778
-0.00779447
-0.00777685
-0.00783546
-0.00409803
-0.00550594
-0.00699832
-0.00751842
-0.00747237
-0.00550431
-0.00714093
-0.00733545
-0.00746006
-0.00751299
-0.00699543
-0.00733324
-0.00732605
-0.00748195
-0.00749161
-0.00751605
-0.00745864
-0.00748189
-0.00749427
-0.00752231
-0.00746772
-0.00750928
-0.00748969
-0.00752091
-0.00753753
-0.00769051
-0.0081578
-0.00784287
-0.00764558
-0.00764789
-0.00815703
-0.00732463
-0.00766146
-0.00759581
-0.00760136
-0.00784122
-0.00766019
-0.00764473
-0.00759821
-0.0075935
-0.007644
-0.00759484
-0.00759812
-0.00756746
-0.00756844
-0.00764457
-0.00759869
-0.00759213
-0.00756751
-0.00757531
-0.00848488
-0.00784852
-0.00728319
-0.00720955
-0.00718811
-0.0078478
-0.00729792
-0.00722202
-0.00718879
-0.00717312
-0.00728157
-0.00722094
-0.00720294
-0.00717926
-0.00716391
-0.00720803
-0.00718777
-0.00717899
-0.00716093
-0.00714754
-0.00718553
-0.00717109
-0.00716281
-0.00714691
-0.00713449
-0.00696963
-0.00737579
-0.00721569
-0.00719988
-0.00725669
-0.00737535
-0.00741406
-0.00725293
-0.0072306
-0.00723192
-0.00721468
-0.0072523
-0.00725311
-0.00721149
-0.00722808
-0.00719878
-0.00722984
-0.00721122
-0.00720018
-0.00719895
-0.00725486
-0.0072305
-0.00722723
-0.00719847
-0.00719211
-0.00655656
-0.0065777
-0.00648028
-0.00649965
-0.00650097
-0.00657743
-0.00656482
-0.00651813
-0.00650894
-0.00648408
-0.00647971
-0.00651779
-0.00651714
-0.00648351
-0.0064645
-0.0064989
-0.00650841
-0.00648329
-0.00645011
-0.00642632
-0.00649972
-0.00648311
-0.00646391
-0.006426
-0.00640734
-0.00600079
-0.0060884
-0.00601076
-0.00599558
-0.00603027
-0.00608822
-0.00608054
-0.00601909
-0.00601765
-0.00603646
-0.00601043
-0.00601893
-0.00601564
-0.006023
-0.00604023
-0.00599521
-0.0060174
-0.00602289
-0.00602908
-0.00603678
-0.00602965
-0.00603596
-0.00603989
-0.00603658
-0.00603647
-0.00463557
-0.00464547
-0.00458835
-0.00456466
-0.00455136
-0.00464536
-0.00462827
-0.00458579
-0.00456197
-0.00455437
-0.00458818
-0.0045857
-0.00456451
-0.00454928
-0.00455969
-0.00456445
-0.00456184
-0.00454922
-0.00456252
-0.00457561
-0.00455099
-0.00455412
-0.00455952
-0.0045755
-0.00458534
-0.00402298
-0.00396778
-0.00385956
-0.00375854
-0.00373577
-0.00396772
-0.00390949
-0.00381099
-0.00374794
-0.00372626
-0.00385947
-0.00381093
-0.00374915
-0.00372182
-0.00371203
-0.00375834
-0.00374782
-0.00372177
-0.00371039
-0.00370439
-0.00373544
-0.00372604
-0.00371188
-0.0037043
-0.00369996
-0.00176844
-0.00179194
-0.0017901
-0.00167286
-0.00164424
-0.00179191
-0.00179105
-0.00173594
-0.00164408
-0.00163523
-0.00179005
-0.00173588
-0.00166072
-0.00162408
-0.00162465
-0.0016727
-0.00164399
-0.00162405
-0.00161443
-0.00161681
-0.001644
-0.00163507
-0.00162455
-0.00161676
-0.00161678
-0.00115515
-0.00106628
-0.000947533
-0.000895585
-0.000865982
-0.00106622
-0.000996906
-0.0009188
-0.000884571
-0.000860163
-0.000947357
-0.000918727
-0.00088571
-0.000866626
-0.000850519
-0.000895463
-0.0008845
-0.000866602
-0.000858108
-0.000846184
-0.00086586
-0.000860063
-0.000850453
-0.000846141
-0.00084167
-0.00625237
-0.00625149
-0.00722119
-0.00628779
-0.00507228
-0.00507141
-0.00706507
-0.00864858
-0.00864761
-0.00754345
-0.0093471
-0.00879953
-0.00879886
-0.00768032
-0.00821452
-0.00821395
-0.00740486
-0.0073007
-0.00698116
-0.00698084
-0.0066354
-0.00732508
-0.00731864
-0.00729573
-0.00588463
-0.00600075
-0.00600005
-0.00646936
-0.00730514
-0.00759579
-0.00725802
-0.0075131
-0.00715516
-0.00751565
-0.00691973
-0.00759545
-0.00730421
-0.0072574
-0.00751246
-0.00751533
-0.00715429
-0.00691912
-0.0097278
-0.00971667
-0.00838131
-0.00870037
-0.00724874
-0.00725213
-0.00653769
-0.00787063
-0.00830794
-0.00830774
-0.00846615
-0.00820178
-0.00818903
-0.00818885
-0.00819223
-0.00843292
-0.00799444
-0.00748323
-0.00829898
-0.00726851
-0.00840942
-0.00819206
-0.00843253
-0.00799407
-0.0074827
-0.00829879
-0.00726817
-0.00840907
-0.00797169
-0.00797278
-0.00716491
-0.00816733
-0.00863203
-0.00842961
-0.00842645
-0.00797686
-0.00828113
-0.00772506
-0.00857305
-0.00719599
-0.00810338
-0.00698437
-0.00827891
-0.00797316
-0.00772615
-0.00857763
-0.00810508
-0.00719056
-0.00698043
-0.00833924
-0.00794937
-0.00794918
-0.00671139
-0.00827304
-0.0076345
-0.00763432
-0.0088081
-0.00677658
-0.00818499
-0.00855412
-0.00831792
-0.00812767
-0.00870726
-0.00880994
-0.00678241
-0.00818467
-0.00855176
-0.00831437
-0.00812766
-0.00870125
-0.0076738
-0.00767669
-0.00878114
-0.00867186
-0.00757538
-0.00823247
-0.00823233
-0.00932191
-0.0090689
-0.00917292
-0.00917268
-0.00886426
-0.00914914
-0.0091489
-0.00792059
-0.00764208
-0.00764447
-0.00847028
-0.00762772
-0.00793691
-0.00759145
-0.00764182
-0.00791911
-0.00764343
-0.00846952
-0.00793656
-0.00762684
-0.00759097
-0.00919279
-0.00964091
-0.00918499
-0.00849292
-0.00943654
-0.00893853
-0.00913867
-0.00919251
-0.00964011
-0.00918452
-0.00849248
-0.00943598
-0.0089383
-0.00913812
-0.00698231
-0.00698417
-0.00722386
-0.00872352
-0.0105913
-0.010591
-0.00834331
-0.0090148
-0.00934809
-0.00934437
-0.00901013
-0.00951577
-0.00908946
-0.00908524
-0.0092088
-0.00975955
-0.00960744
-0.00887753
-0.00962668
-0.0086242
-0.00964362
-0.00920953
-0.00975121
-0.00960516
-0.00886446
-0.00962364
-0.00862409
-0.00963999
-0.00964621
-0.00804477
-0.00836224
-0.008362
-0.00848141
-0.00848114
-0.0091291
-0.00949237
-0.00873297
-0.0087316
-0.00796277
-0.0100764
-0.0085407
-0.00853941
-0.009031
-0.00794384
-0.00794362
-0.00858123
-0.00827135
-0.00878179
-0.00878155
-0.0093763
-0.00848458
-0.00828843
-0.0105
-0.00896679
-0.010144
-0.00918376
-0.00937601
-0.00848407
-0.00828767
-0.0104991
-0.00896657
-0.0101433
-0.0091832
-0.00819227
-0.00771868
-0.00834334
-0.00819581
-0.00755033
-0.00804592
-0.00813117
-0.00819146
-0.00834278
-0.00771778
-0.0081951
-0.00754962
-0.0080451
-0.0081302
-0.0091572
-0.00915512
-0.00956537
-0.00894913
-0.00746498
-0.00819463
-0.00819218
-0.00740052
-0.00741888
-0.00741638
-0.00871626
-0.00809125
-0.0081415
-0.00771579
-0.00741663
-0.00740142
-0.00741816
-0.00872527
-0.00813915
-0.0080775
-0.00770922
-0.00849896
-0.00914712
-0.00885206
-0.00748743
-0.00845278
-0.00832354
-0.00775924
-0.00849407
-0.00913081
-0.0088582
-0.00748566
-0.00845246
-0.00832603
-0.00775071
-0.009951
-0.00983075
-0.0102024
-0.0105682
-0.00828196
-0.00796577
-0.00961329
-0.00994832
-0.00983005
-0.0102005
-0.0105618
-0.00828037
-0.00796367
-0.00960715
-0.00994226
-0.00829439
-0.00829404
-0.00813061
-0.00909334
-0.00865967
-0.00865938
-0.00904674
-0.00904718
-0.0108642
-0.00952796
-0.00774104
-0.00880326
-0.00880584
-0.00484165
-0.00449123
-0.00648489
-0.00648469
-0.00669587
-0.00428678
-0.00428653
-0.00767216
-0.00635458
-0.00776384
-0.00738216
-0.00700848
-0.00676637
-0.00730198
-0.00635356
-0.00766957
-0.00776228
-0.00738142
-0.00676654
-0.00700856
-0.00730257
-0.00767176
-0.00828212
-0.00832062
-0.00759734
-0.00823279
-0.00787709
-0.00804739
-0.00828147
-0.0076708
-0.00831971
-0.00759651
-0.00823193
-0.00787613
-0.00804629
-0.00460401
-0.00515548
-0.00723091
-0.0058838
-0.0061794
-0.0070961
-0.0039315
-0.00460366
-0.0051549
-0.00723046
-0.00588314
-0.00617901
-0.00709577
-0.00393087
-0.00594408
-0.00594162
-0.00665986
-0.000581262
-0.00557173
-0.00557199
-0.0067931
-0.00653277
-0.00124526
-0.00124547
-0.00475127
-0.00398859
-0.00578523
-0.00578398
-0.00784923
-0.00453559
-0.00739066
-0.00607173
-0.00548282
-0.00702534
-0.00832639
-0.00784359
-0.00453254
-0.00738685
-0.00607858
-0.00544864
-0.0070356
-0.00832203
-0.00857168
-0.00810461
-0.00787213
-0.00932446
-0.00909307
-0.00759022
-0.0076664
-0.00856975
-0.00810904
-0.00787228
-0.00931812
-0.00908206
-0.0075948
-0.00766952
-0.00455619
-0.00697528
-0.00732564
-0.00732534
-0.00650722
-0.00650697
-0.00578128
-0.00683346
-0.00718369
-0.00719094
-0.00748963
-0.00593961
-0.00804113
-0.00804716
-0.00430338
-0.00454401
-0.00454373
-0.00344436
-0.00539436
-0.0037473
-0.00374703
-0.00362728
-0.0046006
-0.00676015
-0.00537803
-0.00524014
-0.00577384
-0.00305288
-0.00362667
-0.0045998
-0.00675937
-0.00537716
-0.00523948
-0.0057731
-0.00305192
-0.00619753
-0.00654674
-0.00704219
-0.00616788
-0.00676388
-0.00694386
-0.00670552
-0.00619745
-0.00704162
-0.00654581
-0.00616789
-0.0067632
-0.00694369
-0.00670522
-0.00234654
-0.00234779
-0.00225829
-0.00479654
-0.00236996
-0.00370988
-0.00370499
-0.00700082
-0.00729592
-0.00709896
-0.00654412
-0.00749458
-0.00689416
-0.0075572
-0.00729355
-0.00700089
-0.00709737
-0.00653647
-0.00689229
-0.00749219
-0.00755348
-0.00680022
-0.00827914
-0.00782143
-0.00751975
-0.00725235
-0.00718743
-0.00737572
-0.00678575
-0.00828182
-0.00782062
-0.00752198
-0.00725091
-0.00718736
-0.00737699
-0.00286492
-0.00584536
-0.00368226
-0.00583412
-0.00644046
-0.00647192
-0.00550131
-0.0028478
-0.00586784
-0.0036771
-0.00585244
-0.00643388
-0.00646455
-0.00549625
-0.00765527
-0.00765827
-0.00757106
-0.00780717
-0.00787536
-0.00787401
-0.00745779
-0.00463612
-0.0065278
-0.00652769
-0.00664895
-0.00547783
-0.00595766
-0.00595752
-0.00855725
-0.00763453
-0.00791352
-0.00802564
-0.00827011
-0.00801902
-0.00778108
-0.00855834
-0.00763227
-0.00791301
-0.00802242
-0.00826942
-0.00802026
-0.00778101
-0.0077497
-0.00774939
-0.00786225
-0.0078301
-0.00754798
-0.00754781
-0.00731944
-0.00747764
-0.00774274
-0.00783603
-0.00780629
-0.0081593
-0.00773013
-0.00750294
-0.00747721
-0.00774237
-0.00783585
-0.00780569
-0.00815886
-0.00772953
-0.00750255
-0.00653696
-0.00653522
-0.0048547
-0.00678969
-0.00632439
-0.00681408
-0.00680387
)
;

boundaryField
{
    inlet
    {
        type            fixedValue;
        value           uniform 0;
    }
    wall
    {
        type            zeroGradient;
    }
    outlet
    {
        type            fixedValue;
        value           uniform 0;
    }
    procBoundary3to1
    {
        type            processor;
        value           nonuniform List<scalar> 
317
(
-0.000220025
-0.000220027
-0.000220045
-0.000220057
-0.000220123
-0.000440521
-0.000440521
-0.000440528
-0.000440541
-0.000440548
-0.00102832
-0.00102832
-0.00102835
-0.00102839
-0.00102847
-0.00133655
-0.00133656
-0.00133659
-0.00133664
-0.00133671
-0.00188502
-0.00188503
-0.00188509
-0.00188516
-0.0018853
-0.00223352
-0.00223354
-0.00223362
-0.00223372
-0.0022339
-0.00274622
-0.00274625
-0.00274637
-0.0027465
-0.00274678
-0.00312404
-0.00312408
-0.00312425
-0.00312445
-0.00312483
-0.00360914
-0.00360919
-0.00360943
-0.00360971
-0.00361027
-0.00400635
-0.00400643
-0.00400678
-0.00400719
-0.00400799
-0.0044702
-0.0044703
-0.0044708
-0.00447134
-0.00447248
-0.00487741
-0.0048776
-0.00487831
-0.00487912
-0.00488075
-0.005323
-0.00532322
-0.00532421
-0.00532525
-0.00532751
-0.0057305
-0.00573091
-0.00573223
-0.00573363
-0.00573676
-0.00615766
-0.00615768
-0.00615914
-0.00616025
-0.00616399
-0.00655983
-0.00655621
-0.00655517
-0.00655487
-0.00655885
-0.00696702
-0.00696151
-0.00695161
-0.0069465
-0.00694936
-0.00729028
-0.00728888
-0.00728694
-0.00728236
-0.00728431
-0.00754798
-0.00755075
-0.00755634
-0.00755926
-0.00756713
-0.00767976
-0.00769383
-0.00771286
-0.00773459
-0.00775897
-0.00776308
-0.00779245
-0.00782402
-0.00786312
-0.00790956
-0.00774128
-0.00778267
-0.00782678
-0.00789466
-0.00796975
-0.00772495
-0.00782451
-0.00786631
-0.00794672
-0.00802722
-0.00773134
-0.00779872
-0.00785621
-0.00791183
-0.00801768
-0.00725705
-0.00768979
-0.00774319
-0.00790876
-0.00800727
-0.00748562
-0.00780308
-0.00783742
-0.00783275
-0.00801131
-0.00486359
-0.00712639
-0.00741997
-0.0077271
-0.00789565
4.63937e-05
-0.00703168
-0.00777056
-0.00776247
-0.0079635
-0.00911888
-0.00858572
-0.00794504
-0.00773231
-0.00788967
-0.00686389
-0.00739975
-0.00753571
-0.00758644
-0.00785184
-0.00409313
-0.0054749
-0.00702059
-0.0075275
-0.00748664
-0.00769337
-0.00814695
-0.00784809
-0.0076507
-0.00764831
-0.00847322
-0.00785958
-0.00727983
-0.00721819
-0.00719102
-0.00698021
-0.00736862
-0.00722819
-0.00720109
-0.00725771
-0.00652208
-0.00658419
-0.00646963
-0.00650232
-0.00650036
-0.00601051
-0.00608222
-0.00601157
-0.00599445
-0.00602848
-0.00462672
-0.00464602
-0.00458482
-0.00456348
-0.00455048
-0.00402381
-0.00396647
-0.00385474
-0.00375735
-0.00373608
-0.00176847
-0.00179134
-0.0017841
-0.00167191
-0.00164475
-0.00115371
-0.00106746
-0.000956135
-0.000898785
-0.00086746
-0.00628777
-0.00502171
-0.00625243
-0.00934249
-0.00879589
-0.00865089
-0.00726585
-0.00697346
-0.00820764
-0.00589412
-0.00601985
-0.00736226
-0.00752088
-0.00717424
-0.00730945
-0.00870276
-0.00724918
-0.00971942
-0.00846038
-0.00818752
-0.00829944
-0.00842956
-0.00840903
-0.00748764
-0.00797516
-0.00843854
-0.00863845
-0.00850671
-0.00723356
-0.00797913
-0.00832405
-0.00870939
-0.0088045
-0.00916722
-0.00914737
-0.00906827
-0.00845176
-0.00764981
-0.0078886
-0.00963352
-0.00913826
-0.00917408
-0.00872771
-0.0105843
-0.00698861
-0.00902115
-0.00910478
-0.00935776
-0.00976532
-0.00964653
-0.00889313
-0.00858239
-0.00878367
-0.00794991
-0.00849664
-0.00918692
-0.0104885
-0.00771414
-0.00812139
-0.00819146
-0.0091606
-0.00819793
-0.0074649
-0.00872044
-0.00812948
-0.00738651
-0.00911878
-0.00776094
-0.008438
-0.00828635
-0.00962272
-0.00995133
-0.00648554
-0.00428552
-0.00448985
-0.0073695
-0.00702769
-0.00769386
-0.00829995
-0.00802557
-0.00765624
-0.00514913
-0.00390513
-0.00722711
-0.00053013
-0.00555326
-0.00592143
-0.00473921
-0.00578203
-0.00124101
-0.00452959
-0.00832437
-0.00604222
-0.00808334
-0.00761747
-0.00934773
-0.0034422
-0.00375974
-0.00453817
-0.00459275
-0.00304203
-0.00537001
-0.00653571
-0.00669393
-0.00617641
-0.00234843
-0.00369245
-0.00233285
-0.0065331
-0.00750121
-0.00699295
-0.00826073
-0.00735914
-0.00723655
-0.00643022
-0.00548164
-0.00283828
)
;
    }
    procBoundary3to2
    {
        type            processor;
        value           nonuniform List<scalar> 
317
(
-0.000220025
-0.000220026
-0.000220045
-0.000220056
-0.000220122
-0.000440521
-0.000440521
-0.000440527
-0.00044054
-0.000440547
-0.00102832
-0.00102832
-0.00102835
-0.00102839
-0.00102847
-0.00133655
-0.00133656
-0.00133659
-0.00133664
-0.00133671
-0.00188502
-0.00188503
-0.00188509
-0.00188516
-0.0018853
-0.00223352
-0.00223354
-0.00223362
-0.00223371
-0.00223389
-0.00274622
-0.00274624
-0.00274636
-0.0027465
-0.00274678
-0.00312404
-0.00312408
-0.00312424
-0.00312444
-0.00312483
-0.00360914
-0.00360918
-0.00360943
-0.0036097
-0.00361026
-0.00400635
-0.00400643
-0.00400678
-0.00400718
-0.00400798
-0.0044702
-0.0044703
-0.00447079
-0.00447133
-0.00447247
-0.00487741
-0.00487759
-0.0048783
-0.00487911
-0.00488074
-0.005323
-0.00532321
-0.0053242
-0.00532524
-0.00532749
-0.0057305
-0.0057309
-0.00573222
-0.00573361
-0.00573674
-0.00615766
-0.00615767
-0.00615913
-0.00616024
-0.00616397
-0.00655984
-0.00655621
-0.00655516
-0.00655485
-0.00655883
-0.00696704
-0.00696151
-0.00695161
-0.00694648
-0.00694932
-0.00729026
-0.00728884
-0.0072869
-0.00728231
-0.00728424
-0.00754789
-0.00755064
-0.00755623
-0.00755912
-0.00756699
-0.00767961
-0.0076936
-0.00771261
-0.00773432
-0.00775875
-0.00776287
-0.00779214
-0.00782366
-0.00786271
-0.00790912
-0.007741
-0.00778206
-0.00782618
-0.00789396
-0.00796904
-0.00772477
-0.00782449
-0.00786593
-0.00794606
-0.00802639
-0.00773086
-0.00779717
-0.00785545
-0.00791059
-0.00801623
-0.00725736
-0.00769169
-0.00774273
-0.00790776
-0.00800551
-0.00748547
-0.00779661
-0.00783902
-0.00783014
-0.0080085
-0.00486411
-0.00712749
-0.00741724
-0.00772368
-0.00789083
4.661e-05
-0.00702791
-0.00779368
-0.00775677
-0.00796056
-0.00911592
-0.00856453
-0.00792518
-0.00772612
-0.00787677
-0.00686318
-0.00739666
-0.00752849
-0.0075835
-0.00784362
-0.00409342
-0.00547279
-0.00701336
-0.00752409
-0.0074795
-0.00769321
-0.00814609
-0.00784518
-0.00764882
-0.00764365
-0.00847308
-0.00785853
-0.00727703
-0.00721597
-0.0071874
-0.0069796
-0.00736761
-0.00722647
-0.00719943
-0.00725517
-0.00652166
-0.00658349
-0.00646858
-0.00650113
-0.0064986
-0.00601022
-0.00608175
-0.00601095
-0.00599379
-0.00602756
-0.00462654
-0.00464573
-0.00458448
-0.00456309
-0.00454994
-0.00402371
-0.00396628
-0.00385451
-0.003757
-0.00373563
-0.00176842
-0.00179124
-0.00178382
-0.00167166
-0.00164446
-0.00115369
-0.00106742
-0.000956047
-0.00089869
-0.00086733
-0.00625201
-0.00502086
-0.00628767
-0.00864988
-0.00879507
-0.00934233
-0.00820692
-0.00697281
-0.00726551
-0.00735289
-0.0060224
-0.0058963
-0.00730816
-0.00717298
-0.00751986
-0.00971763
-0.00726027
-0.00870296
-0.00829909
-0.00818718
-0.00846021
-0.00748697
-0.00840852
-0.00842902
-0.00863607
-0.00843392
-0.00797907
-0.00795604
-0.00721653
-0.00853365
-0.00881194
-0.00870247
-0.00831923
-0.00906808
-0.00914695
-0.00916682
-0.00788654
-0.00764881
-0.00845082
-0.00917347
-0.00913756
-0.00963262
-0.00698828
-0.0105889
-0.008726
-0.00935077
-0.00909753
-0.00901817
-0.00887418
-0.00964374
-0.00975382
-0.00794954
-0.00878325
-0.00858221
-0.0104876
-0.00918622
-0.00849602
-0.00819051
-0.00812023
-0.00771304
-0.00746336
-0.00819273
-0.00915698
-0.00738432
-0.00809304
-0.00872006
-0.00844805
-0.00774939
-0.00912263
-0.00994718
-0.0096066
-0.008279
-0.00448993
-0.00428536
-0.00648526
-0.0076893
-0.0070288
-0.00736893
-0.00765508
-0.00802421
-0.00829892
-0.00722664
-0.00390472
-0.00514879
-0.0059206
-0.00556297
-0.000529676
-0.00124011
-0.0057809
-0.00473875
-0.00606
-0.00832279
-0.00452598
-0.00930757
-0.00764895
-0.00810085
-0.0045382
-0.0037601
-0.00344293
-0.00536975
-0.00304162
-0.0045923
-0.00617722
-0.00669439
-0.00653482
-0.002335
-0.00369271
-0.00234812
-0.00699081
-0.00749146
-0.00653236
-0.00724645
-0.00736806
-0.00827216
-0.0028384
-0.0054846
-0.00642979
)
;
    }
}


// ************************************************************************* //
