/*--------------------------------*- C++ -*----------------------------------*\
| =========                 |                                                 |
| \\      /  F ield         | OpenFOAM: The Open Source CFD Toolbox           |
|  \\    /   O peration     | Version:  5.x                                   |
|   \\  /    A nd           | Web:      www.OpenFOAM.org                      |
|    \\/     M anipulation  |                                                 |
\*---------------------------------------------------------------------------*/
FoamFile
{
    version     2.0;
    format      ascii;
    class       volScalarField;
    location    "0.057";
    object      interFace;
}
// * * * * * * * * * * * * * * * * * * * * * * * * * * * * * * * * * * * * * //

dimensions      [0 0 0 0 0 0 0];

internalField   nonuniform List<scalar> 
1560
(
0
0
0
0
0
0
0
0
0
0
0
0
0
0
0
0
0
0
0
0
0
0
0
0
0
0
0
0
0
0
0
0
0
0
0
0
0
0
0
0
0
0
0
0
0
0
0
0
0
0
0
0
0
0
0
0
0
0
0
0
0
0
0
0
0
0
0
0
0
0
0
0
0
0
0
0
0
0
0
0
0
0
0
0
0
0
0
0
0
0
0
0
0
0
0
0
0
0
0
0
0
0
0
0
0
0
0
0
0
0
0
0
0
0
0
0
0
0
0
0
0
0
0
0
0
0
0
0
0
0
0
0
0
0
0
0
0
0
0
0
0
0
0
0
0
0
0
0
0
0
0
0
0
0
0
0
0
0
0
0
0
0
0
0
0
0
0
0
0
0
0
0
0
0
0
0
0
0
0
0
0
0
0
0
0
0
0
0
0
0
0
0
0
0
0
0
0
0
0
0
0
0
0
0
0
0
0
0
0
0
0
0
0
0
0
0
0
0
0
0
0
0
0
0
0
0
0
0
0
0
0
0
0
0
0
0
0
0
0
0
0
0
0
0
0
0
0
0
0
0
0
0
0
0
0
0
0
0
0
0
0
0
0
0
0
0
0
0
0
0
0
0
0
0
0
0
0
0
0
0
0
0
0
0
0
0
0
0
0
0
0
0
0
0
0
0
0
0
0
0
0
0
0
0
0
0
0
0
0
0
0
0
0
0
0
0
0
0
0
0
0
0
0
0
0
0
0
0
0
0
0
0
0
0
0
0
0
0
0
0
0
0
0
0
0
0
0
0
0
0
0
0
0
0
0
0
0
0
0
0
0
0
0
0
0
0
0
0
0
0
0
0
0
0
0
0
0
0
0
0
0
0
0
0
0
0
0
0
0
0
0
0
0
0
0
0
0
0
0
0
0
0
0
0
0
0
0
0
0
0
0
0
0
0
0
0
0
0
0
0
0
0
0
0
0
0
0
0
0
0
0
0
0
0
0
0
0
0
0
0
0
0
0
0
0
0
0
0
0
0
0
0
0
0
0
0
0
0
0
0
0
0
0
0
0
0
0
0
0
0
0
0
0
0
0
0
0
0
0
0
0
0
0
0
0
0
0
0
0
0
0
0
0
0
0
0
0
0
0
0
0
0
0
0
0
0
0
0
0
0
0
0
0
0
0
0
0
0
0
0
0
0
0
0
0
0
0
0
0
0
0
0
0
0
0
0
0
0
0
0
0
0
0
0
0
0
0
0
0
0
0
0
0
0
0
0
0
0
0
0
0
0
0
0
0
0
0
0
0
0
0
0
0
0
0
0
0
0
0
0
0
0
0
0
0
0
0
0
0
0
0
0
0
0
0
0
0
0
0
0
0
0
0
0
0
0
0
0
0
0
0
0
0
0
0
0
0
0
0
0
0
0
0
0
0
0
0
0
0
0
0
0
0
0
0
0
0
0
0
0
0
0
0
0
0
0
0
0
0
0
0
0
0
0
0
0
0
0
0
0
0
0
0
0
0
0
0
0
0
0
0
0
0
0
0
0
0
0
0
0
0
0
0
0
0
0
0
0
0
0
0
0
0
0
0
0
0
0
0
0
0.239497
0.687848
0
0
0
0.687856
0
0
0
0
0
0
0
0
0
0
0
0
0
0
0
0
0
0
0
0.0258939
0.474245
0
0
0
0.474253
0
0
0
0
0
0
0
0
0
0
0
0
0
0
0
0
0
0
0
0.529419
0
0
0
0
0
0
0
0
0
0
0
0
0
0
0
0
0
0
0
0
0
0
0
0
0.523715
0.993798
0
0
0
0.9938
0
0
0
0
0
0
0
0
0
0
0
0
0
0
0
0
0
0
0
0.0249477
0.473301
0
0
0
0.473303
0
0
0
0
0
0
0
0
0
0
0
0
0
0
0
0
0
0
0
0.243309
0.892675
0
0
0
0.892677
0
0
0
0
0
0
0
0
0
0
0
0
0
0
0
0
0
0
0
0
0
0
0
0
0
0
0
0
0
0
0
0
0
0
0
0
0
0
0
0
0
0
0
0
0
0
0
0
0
0
0
0
0
0
0
0
0
0
0
0
0
0
0
0
0
0
0
0
0
0
0
0
0
0
0
0
0
0
0
0
0
0
0
0
0
0
0
0
0
0
0
0
0
0
0
0
0
0
0
0
0
0
0
0
0
0
0
0
0
0
0
0
0
0
0
0
0
0
0
0
0
0
0
0
0
0
0
0
0
0
0
0
0
0
0
0
0
0
0
0
0
0
0
0
0
0
0
0
0
0
0
0
0
0
0
0
0
0
0
0
0
0
0
0
0
0
0
0
0
0.855791
0.855795
0
0.92929
0
0
0
0.792749
0.792751
0
0.0824086
0.351443
0.351445
0.620479
0.293982
0.293984
0.563018
0.121488
0.390522
0.390524
0.659559
0.512344
0.512345
0.78138
0.777605
0.956961
0.956962
0
0
0
0
0
0
0
0
0
0
0
0
0
0
0
0.294926
0.294932
0.563965
0.336307
0.60534
0.605346
0.874378
0.857068
0.574276
0.574278
0.767352
0.619135
0.812209
0.812211
0.499667
0.288167
0.288168
0.409951
0.333025
0.454809
0.454809
0.589345
0.377845
0.557202
0.678985
0.422703
0.723844
0.544487
0.589346
0.377846
0.557203
0.678987
0.422704
0.723845
0.544488
0.381164
0.381166
0.426023
0.277732
0.188016
0.232873
0.232875
0
0.743284
0
0.828204
0
0
0
0.743286
0
0
0.828212
0
0
0
0.470842
0.650199
0.515701
0.367409
0.457048
0.501907
0.32255
0.470846
0.650203
0.515703
0.367411
0.457054
0.501911
0.322554
0.679024
0.646881
0.646881
0.948022
0.512382
0.813522
0.813523
0.739878
0.73988
0.60538
0.457089
0.726087
0.591587
0.591589
0.134203
0.0444874
0.166346
0.166346
0.211204
0.089345
0.0893456
0
0.742337
0
0.569842
0
0.82839
0
0.742338
0
0
0.569844
0.828391
0
0
0.223881
0.313522
0.256024
0.435381
0.35838
0.300882
0.179023
0.223882
0.313523
0.256025
0.435382
0.358381
0.300883
0.179024
0.50853
0.508536
0.777568
0.0120639
0.281096
0.281102
0.550135
0.17426
0.0707509
0.0707529
0.0845445
0.11561
0.129401
0.129403
0.263938
0.160428
0.339785
0.353577
0.205287
0.398436
0.219079
0.26394
0.160432
0.339789
0.353583
0.205289
0.39844
0.219083
0.31356
0.582558
0.525059
0.52506
0.448059
0.448059
0.390561
0.353617
0.429465
0.429467
0.622616
0.294967
0.488116
0.488118
0.102023
0.0698053
0.0698058
0.0123073
0.114663
0.0571649
0.0571654
0.492841
0.793981
0.6147
0.537699
0.83884
0.761839
0.716981
0.492843
0.614702
0.793984
0.537701
0.838842
0.761841
0.716984
0.191701
0.159483
0.33884
0.281342
0.204342
0.3262
0.146843
0.191702
0.159485
0.338841
0.281343
0.204342
0.326201
0.146844
0.0569209
0.0569229
0.10178
0.13277
0.0430544
0.0879114
0.0879134
0
0.924583
0
0.460415
0
0.729454
0
0.924587
0
0
0.460423
0.729456
0
0
0.519104
0.532896
0.577755
0.801894
0.698384
0.743243
0.757035
0.51911
0.532904
0.577761
0.801902
0.698394
0.743251
0.757045
0.28138
0.428519
0.428519
0.550378
0.29402
0.415878
0.415879
0.146598
0.325955
0.191457
0.222448
0.312087
0.356946
0.177589
0.146602
0.325959
0.191459
0.22245
0.312093
0.35695
0.177593
0.415635
0.415637
0.281137
0.312127
0.581125
0.446625
0.446627
0.274406
0.18469
0.127266
0.127267
0.172124
0.229548
0.229548
0
0
0
0.530762
0
0.878951
0
0
0
0
0.530764
0.878953
0
0
0.697441
0.518159
0.460661
0.742299
0.505519
0.729659
0.684801
0.518161
0.697444
0.460663
0.742301
0.505521
0.729661
0.684803
0.364084
0.453724
0.216944
0.396301
0.498583
0.261802
0.319226
0.364084
0.453726
0.216945
0.396302
0.498584
0.261803
0.319227
0
0
0
0.404949
0.673982
0.673988
0.89685
0.208581
0.284354
0.284356
0.118865
0.329213
0.163722
0.163724
0.298259
0.374031
0.553389
0.387898
0.41889
0.432757
0.2534
0.298261
0.374036
0.553393
0.387904
0.418892
0.432761
0.253404
0.505274
0.684554
0.729413
0.491406
0.536264
0.760404
0.715545
0.50528
0.684564
0.729421
0.491414
0.536271
0.760412
0.715555
0.453763
0.72276
0.48598
0.48598
0.588261
0.588262
0.351481
0.387938
0.643068
0.64307
0.656937
0.50857
0.522436
0.522438
0
0
0
0
0
0
0
0.608784
0.801934
0.667434
0.891573
0.967423
0.832923
0
0.608788
0.801936
0.667438
0.891579
0.967427
0.832929
0
0.421508
0.568572
0.568573
0.331792
0.61343
0.37665
0.37665
0
0
0
0
0
0
0
0.594954
0.953593
0.819093
0.760444
0.625944
0.850083
0.984583
0.594958
0.953597
0.819099
0.760446
0.625948
0.850089
0.984587
0
0
0
0
0
0
0
0.511186
0.65825
0.837607
0.600826
0.703108
0.645685
0.466328
0.511186
0.658251
0.837608
0.600828
0.703109
0.645686
0.466329
0.607838
0.966477
0.729697
0.831978
0.595198
0.819337
0.953837
0.607839
0.966478
0.729697
0.831979
0.595199
0.819339
0.953838
0.633044
0.754902
0.57562
0.677902
0.79976
0.902041
0.857183
0.633046
0.575622
0.754905
0.677903
0.799762
0.902044
0.857186
0.449806
0.449808
0.494665
0.704938
0.615222
0.660079
0.660081
0
0
0
0
0
0
0
0
0
0
0
0
0
0
0.732707
0.567217
0.612076
0.836215
0.911987
0.956846
0.791356
0.732713
0.567225
0.612082
0.836223
0.911997
0.956854
0.791366
0.539484
0.718841
0.584343
0.794615
0.884254
0.929113
0.749756
0.539488
0.718845
0.584345
0.794617
0.88426
0.929117
0.74976
0.600865
0.927286
0.927286
0.869862
0.792787
0.735363
0.735364
)
;

boundaryField
{
    inlet
    {
        type            calculated;
        value           uniform 0;
    }
    wall
    {
        type            calculated;
        value           uniform 0;
    }
    outlet
    {
        type            calculated;
        value           uniform 0;
    }
    procBoundary3to1
    {
        type            processor;
        value           uniform 0;
    }
    procBoundary3to2
    {
        type            processor;
        value           uniform 0;
    }
}


// ************************************************************************* //
