/*--------------------------------*- C++ -*----------------------------------*\
| =========                 |                                                 |
| \\      /  F ield         | OpenFOAM: The Open Source CFD Toolbox           |
|  \\    /   O peration     | Version:  5.x                                   |
|   \\  /    A nd           | Web:      www.OpenFOAM.org                      |
|    \\/     M anipulation  |                                                 |
\*---------------------------------------------------------------------------*/
FoamFile
{
    version     2.0;
    format      ascii;
    class       volScalarField;
    location    "0.057";
    object      phiIB;
}
// * * * * * * * * * * * * * * * * * * * * * * * * * * * * * * * * * * * * * //

dimensions      [0 2 -1 0 0 0 0];

internalField   nonuniform List<scalar> 
1560
(
-0.000103877
-0.000103876
-0.000103888
-0.000103891
-0.000103928
-0.000103876
-0.000103876
-0.000103888
-0.000103891
-0.000103928
-0.000103888
-0.000103888
-0.0001039
-0.000103903
-0.00010394
-0.000103891
-0.000103891
-0.000103903
-0.000103905
-0.000103942
-0.000103928
-0.000103928
-0.00010394
-0.000103942
-0.000103979
-0.000203208
-0.000203208
-0.000203212
-0.000203218
-0.000203228
-0.000203208
-0.000203208
-0.000203213
-0.000203219
-0.000203229
-0.000203212
-0.000203213
-0.000203218
-0.000203224
-0.000203234
-0.000203218
-0.000203219
-0.000203224
-0.00020323
-0.00020324
-0.000203228
-0.000203229
-0.000203234
-0.00020324
-0.00020325
-0.000482592
-0.000482593
-0.00048261
-0.000482624
-0.000482673
-0.000482593
-0.000482595
-0.000482613
-0.000482627
-0.000482675
-0.00048261
-0.000482613
-0.000482631
-0.000482645
-0.000482693
-0.000482624
-0.000482627
-0.000482645
-0.00048266
-0.000482708
-0.000482673
-0.000482675
-0.000482693
-0.000482707
-0.000482755
-0.00062998
-0.000629982
-0.000630002
-0.00063002
-0.000630067
-0.000629982
-0.000629985
-0.000630005
-0.000630024
-0.00063007
-0.000630002
-0.000630005
-0.000630025
-0.000630044
-0.00063009
-0.00063002
-0.000630024
-0.000630044
-0.000630062
-0.000630108
-0.000630067
-0.00063007
-0.00063009
-0.000630108
-0.000630154
-0.000883496
-0.0008835
-0.000883532
-0.00088356
-0.000883638
-0.0008835
-0.000883506
-0.000883537
-0.000883566
-0.000883643
-0.000883532
-0.000883537
-0.000883569
-0.000883597
-0.000883674
-0.00088356
-0.000883566
-0.000883597
-0.000883625
-0.000883701
-0.000883638
-0.000883643
-0.000883674
-0.000883701
-0.000883776
-0.00105569
-0.0010557
-0.00105574
-0.00105578
-0.00105588
-0.0010557
-0.0010557
-0.00105575
-0.00105579
-0.00105589
-0.00105574
-0.00105575
-0.00105579
-0.00105583
-0.00105593
-0.00105578
-0.00105579
-0.00105583
-0.00105587
-0.00105597
-0.00105588
-0.00105589
-0.00105593
-0.00105597
-0.00105607
-0.00128869
-0.0012887
-0.00128876
-0.00128882
-0.00128897
-0.0012887
-0.00128871
-0.00128878
-0.00128883
-0.00128898
-0.00128876
-0.00128878
-0.00128884
-0.00128889
-0.00128903
-0.00128882
-0.00128883
-0.00128889
-0.00128894
-0.00128909
-0.00128897
-0.00128898
-0.00128903
-0.00128909
-0.00128922
-0.00147631
-0.00147632
-0.00147641
-0.00147648
-0.00147669
-0.00147632
-0.00147634
-0.00147642
-0.0014765
-0.0014767
-0.00147641
-0.00147642
-0.00147651
-0.00147658
-0.00147679
-0.00147648
-0.0014765
-0.00147658
-0.00147665
-0.00147686
-0.00147669
-0.0014767
-0.00147679
-0.00147686
-0.00147705
-0.00169613
-0.00169615
-0.00169627
-0.00169638
-0.00169666
-0.00169615
-0.00169617
-0.00169629
-0.0016964
-0.00169668
-0.00169627
-0.00169629
-0.00169641
-0.00169651
-0.00169679
-0.00169638
-0.0016964
-0.00169651
-0.00169661
-0.00169689
-0.00169666
-0.00169668
-0.00169679
-0.00169689
-0.00169716
-0.00189187
-0.00189189
-0.00189206
-0.0018922
-0.0018926
-0.00189189
-0.00189191
-0.00189208
-0.00189222
-0.00189262
-0.00189206
-0.00189208
-0.00189225
-0.00189238
-0.00189278
-0.0018922
-0.00189222
-0.00189238
-0.00189252
-0.00189291
-0.0018926
-0.00189262
-0.00189278
-0.00189291
-0.00189329
-0.00210319
-0.00210322
-0.00210345
-0.00210364
-0.00210421
-0.00210322
-0.00210326
-0.00210348
-0.00210367
-0.00210423
-0.00210345
-0.00210348
-0.00210371
-0.00210389
-0.00210444
-0.00210364
-0.00210367
-0.00210389
-0.00210408
-0.00210462
-0.00210421
-0.00210423
-0.00210444
-0.00210462
-0.00210513
-0.00230167
-0.00230169
-0.00230199
-0.00230222
-0.002303
-0.00230169
-0.00230171
-0.00230201
-0.00230224
-0.00230302
-0.00230199
-0.00230201
-0.00230231
-0.00230254
-0.0023033
-0.00230222
-0.00230224
-0.00230254
-0.00230276
-0.00230352
-0.002303
-0.00230302
-0.0023033
-0.00230352
-0.00230424
-0.00250627
-0.00250626
-0.00250662
-0.00250687
-0.00250794
-0.00250626
-0.00250625
-0.00250662
-0.00250689
-0.00250795
-0.00250661
-0.00250662
-0.00250698
-0.00250725
-0.00250829
-0.00250687
-0.00250689
-0.00250725
-0.00250754
-0.00250856
-0.00250794
-0.00250795
-0.00250829
-0.00250856
-0.00250951
-0.00270343
-0.00270329
-0.00270359
-0.00270367
-0.00270504
-0.00270329
-0.00270318
-0.00270349
-0.00270362
-0.00270498
-0.00270359
-0.00270349
-0.00270384
-0.00270402
-0.00270538
-0.00270367
-0.00270362
-0.00270402
-0.00270426
-0.00270561
-0.00270504
-0.00270498
-0.00270538
-0.00270561
-0.0027069
-0.00290136
-0.0029007
-0.00290011
-0.00289962
-0.00290125
-0.0029007
-0.00290009
-0.00289975
-0.00289942
-0.00290107
-0.00290011
-0.00289975
-0.00289987
-0.00289976
-0.00290142
-0.00289962
-0.00289942
-0.00289976
-0.00289987
-0.00290159
-0.00290125
-0.00290107
-0.00290142
-0.00290159
-0.0029032
-0.00309444
-0.00309214
-0.00309004
-0.00308838
-0.00308958
-0.00309214
-0.00309035
-0.0030891
-0.00308758
-0.00308904
-0.00309004
-0.00308911
-0.00308865
-0.0030876
-0.00308933
-0.00308838
-0.00308758
-0.0030876
-0.00308714
-0.0030891
-0.00308958
-0.00308904
-0.00308933
-0.0030891
-0.0030911
-0.00327024
-0.00326901
-0.00326679
-0.00326377
-0.00326426
-0.00326901
-0.00326764
-0.00326493
-0.00326237
-0.00326349
-0.00326679
-0.00326493
-0.00326327
-0.00326187
-0.00326385
-0.00326377
-0.00326237
-0.00326187
-0.00326113
-0.00326358
-0.00326426
-0.00326349
-0.00326385
-0.00326358
-0.00326648
-0.00341483
-0.00341489
-0.00341684
-0.00341684
-0.00341881
-0.00341489
-0.00341483
-0.00341666
-0.00341652
-0.00341834
-0.00341684
-0.00341666
-0.00341719
-0.00341643
-0.00341906
-0.00341684
-0.00341652
-0.00341643
-0.00341561
-0.00341926
-0.00341881
-0.00341834
-0.00341906
-0.00341926
-0.00342431
-0.00351254
-0.00351486
-0.00351967
-0.00352348
-0.00352989
-0.00351486
-0.00351676
-0.00352134
-0.00352488
-0.00353061
-0.00351967
-0.00352134
-0.00352592
-0.00352842
-0.00353436
-0.00352348
-0.00352488
-0.00352842
-0.00352984
-0.00353746
-0.0035299
-0.00353062
-0.00353436
-0.00353746
-0.00354676
-0.00357985
-0.00358489
-0.00359453
-0.00360361
-0.00361839
-0.00358489
-0.00358885
-0.00359737
-0.00360545
-0.00361851
-0.00359453
-0.00359737
-0.00360479
-0.00361181
-0.003624
-0.00360361
-0.00360545
-0.00361181
-0.00361665
-0.00362932
-0.00361839
-0.00361852
-0.003624
-0.00362932
-0.00364021
-0.00357578
-0.00359121
-0.0036086
-0.00362959
-0.00365599
-0.00359121
-0.00360173
-0.00361647
-0.00363446
-0.00365851
-0.0036086
-0.00361647
-0.00362974
-0.00364504
-0.00366683
-0.00362959
-0.00363446
-0.00364504
-0.0036563
-0.00367484
-0.00365599
-0.00365851
-0.00366684
-0.00367485
-0.00369018
-0.00361417
-0.00362563
-0.00364371
-0.00366432
-0.00369467
-0.00362562
-0.0036362
-0.00365081
-0.00366897
-0.00369601
-0.00364372
-0.00365082
-0.00366396
-0.0036789
-0.00370421
-0.00366432
-0.00366897
-0.0036789
-0.00369082
-0.0037126
-0.00369468
-0.00369602
-0.00370421
-0.0037126
-0.00373078
-0.00354587
-0.00357347
-0.00358988
-0.00362989
-0.0036769
-0.00357347
-0.00359216
-0.00360749
-0.00364054
-0.00368313
-0.00358989
-0.00360749
-0.00362446
-0.00365314
-0.0036904
-0.00362989
-0.00364055
-0.00365314
-0.00367243
-0.00369983
-0.00367691
-0.00368314
-0.0036904
-0.00369984
-0.00372392
-0.00358297
-0.00362518
-0.00364082
-0.00367386
-0.00371826
-0.00362517
-0.00365416
-0.00365784
-0.00368446
-0.00371908
-0.00364083
-0.00365785
-0.00366911
-0.00368901
-0.0037227
-0.00367386
-0.00368447
-0.00368901
-0.00370031
-0.00372559
-0.00371827
-0.0037191
-0.00372271
-0.0037256
-0.00374759
-0.00345877
-0.00352194
-0.00353173
-0.00360132
-0.00364635
-0.00352193
-0.00356458
-0.00356928
-0.00361374
-0.0036511
-0.00353174
-0.00356929
-0.00357962
-0.00361877
-0.00365661
-0.00360132
-0.00361374
-0.00361876
-0.00363692
-0.00366828
-0.00364637
-0.00365113
-0.00365663
-0.00366829
-0.00369777
-0.00332348
-0.00364403
-0.00353638
-0.00362619
-0.00366059
-0.00364406
-0.00371838
-0.00361146
-0.00365301
-0.00367274
-0.0035364
-0.00361149
-0.00359881
-0.00363381
-0.00367951
-0.00362619
-0.00365302
-0.0036338
-0.00366073
-0.00369026
-0.00366063
-0.00367277
-0.00367952
-0.00369028
-0.00372085
-0.00361358
-0.00332951
-0.00344275
-0.00349831
-0.00352043
-0.0033295
-0.00345646
-0.00345039
-0.00350984
-0.00354162
-0.00344275
-0.00345043
-0.0034401
-0.00350442
-0.00356012
-0.0034983
-0.00350984
-0.0035044
-0.00354576
-0.00358658
-0.00352047
-0.00354166
-0.00356013
-0.0035866
-0.00363074
0.000198491
-0.00330824
-0.00298888
-0.0035811
-0.00351567
-0.00330826
-0.00362174
-0.00334255
-0.0035851
-0.00356834
-0.00298889
-0.00334258
-0.00333007
-0.00352279
-0.00358157
-0.00358114
-0.00358512
-0.00352277
-0.00359414
-0.00361492
-0.0035157
-0.00356837
-0.00358158
-0.00361494
-0.00365267
0.00435621
-0.00190261
-0.00336142
-0.00346096
-0.00343748
-0.00190267
-0.00278639
-0.00327817
-0.00343562
-0.0034247
-0.0033613
-0.00327821
-0.0033272
-0.00340153
-0.00346587
-0.00346099
-0.00343565
-0.00340151
-0.00346415
-0.00348728
-0.0034375
-0.00342475
-0.00346589
-0.00348731
-0.00353555
-0.00563622
-0.00511353
-0.00370652
-0.0035729
-0.00360906
-0.00511349
-0.00369972
-0.00357955
-0.00351354
-0.00356371
-0.00370644
-0.00357956
-0.00355917
-0.00355668
-0.00355454
-0.00357291
-0.00351357
-0.00355667
-0.00356026
-0.00356934
-0.00360904
-0.00356373
-0.00355455
-0.00356936
-0.00357446
-0.00603156
-0.00265139
-0.00382928
-0.00330416
-0.00339461
-0.00265135
-0.00259774
-0.00317073
-0.00325622
-0.0033302
-0.00382932
-0.00317077
-0.00331685
-0.00333472
-0.00337069
-0.00330413
-0.00325621
-0.00333471
-0.00336985
-0.00338356
-0.00339461
-0.00333023
-0.0033707
-0.00338357
-0.00340981
-0.000662174
-0.000132505
-0.00331385
-0.00331877
-0.00345875
-0.000132633
-0.00290937
-0.00327845
-0.00334408
-0.00341955
-0.00331383
-0.00327849
-0.00339163
-0.00340498
-0.00342908
-0.00331874
-0.00334408
-0.00340497
-0.0034346
-0.00344047
-0.00345874
-0.00341956
-0.00342908
-0.00344048
-0.00344113
-0.00246386
-0.00368176
-0.00347298
-0.00329624
-0.00328307
-0.00368175
-0.00293786
-0.00327323
-0.00325262
-0.0032348
-0.003473
-0.00327323
-0.0032897
-0.00325098
-0.00324119
-0.00329621
-0.00325261
-0.00325097
-0.00324734
-0.00323286
-0.00328306
-0.00323479
-0.00324119
-0.00323287
-0.00322928
-0.00557158
-0.00401262
-0.00354902
-0.00338249
-0.00342355
-0.00401262
-0.00346868
-0.00341774
-0.00339369
-0.00338013
-0.003549
-0.00341774
-0.00342862
-0.00337929
-0.0033596
-0.00338247
-0.00339368
-0.00337928
-0.00336522
-0.00334367
-0.00342353
-0.00338013
-0.0033596
-0.00334368
-0.00332002
-0.00297962
-0.00277921
-0.00322879
-0.0028928
-0.00305956
-0.0027792
-0.00303217
-0.00298479
-0.00295392
-0.00300586
-0.00322878
-0.00298479
-0.00307481
-0.0029879
-0.00299024
-0.00289279
-0.00295391
-0.0029879
-0.00297281
-0.00297417
-0.00305956
-0.00300586
-0.00299024
-0.00297418
-0.00295934
-0.00346666
-0.00326376
-0.00318081
-0.00304595
-0.0030816
-0.00326375
-0.00315086
-0.00309351
-0.00305539
-0.00305241
-0.0031808
-0.0030935
-0.0031041
-0.00305634
-0.00303444
-0.00304596
-0.00305539
-0.00305634
-0.00304038
-0.00302058
-0.00308161
-0.00305241
-0.00303444
-0.00302058
-0.00300074
-0.00213055
-0.00211151
-0.00224685
-0.00222459
-0.00230387
-0.0021115
-0.00218349
-0.00223713
-0.0022608
-0.00231436
-0.00224685
-0.00223712
-0.00228163
-0.00230039
-0.002319
-0.00222459
-0.0022608
-0.00230038
-0.00231096
-0.00231992
-0.00230388
-0.00231436
-0.002319
-0.00231992
-0.00231422
-0.00234555
-0.00223387
-0.00214815
-0.00203635
-0.00200386
-0.00223387
-0.00216811
-0.00208698
-0.0020226
-0.00199482
-0.00214814
-0.00208698
-0.00203965
-0.00200724
-0.0019833
-0.00203635
-0.00202259
-0.00200724
-0.0019964
-0.00198175
-0.00200386
-0.00199482
-0.0019833
-0.00198175
-0.00197479
-0.000871353
-0.000886768
-0.000915013
-0.000891833
-0.000886348
-0.000886764
-0.000898896
-0.000911208
-0.000879572
-0.000879023
-0.000915013
-0.000911206
-0.000899775
-0.000874514
-0.000871006
-0.000891834
-0.000879572
-0.000874512
-0.000869284
-0.000872346
-0.000886353
-0.000879027
-0.000871006
-0.000872348
-0.000870505
-0.00074506
-0.000672348
-0.0005896
-0.000531569
-0.000492913
-0.000672347
-0.000616527
-0.000551043
-0.000520533
-0.000489937
-0.0005896
-0.000551046
-0.000517216
-0.000503773
-0.0004829
-0.00053157
-0.000520534
-0.000503774
-0.000496999
-0.000481851
-0.000492914
-0.000489936
-0.0004829
-0.000481849
-0.000479022
-0.00605982
-0.00605983
-0.00437717
-0.0015874
-0.00197484
-0.00197497
-0.00220929
-0.00153789
-0.00153784
-0.00270533
-0.000449003
-0.000204012
-0.000203943
-0.00243332
-0.00163123
-0.00163107
-0.00290928
-0.00523796
-0.0051987
-0.00519864
-0.0038638
-0.00458068
-0.00458064
-0.00353758
-0.00378118
-0.0034272
-0.0034272
-0.00256653
-0.00330095
-0.00379348
-0.00311352
-0.00373127
-0.00361374
-0.00375741
-0.00319917
-0.00379348
-0.00330092
-0.0031135
-0.00373125
-0.00375741
-0.00361373
-0.00319915
-0.00725306
-0.00725304
-0.00453411
-0.00697169
-0.00539529
-0.00539489
-0.00372169
-0.00526204
-0.00666274
-0.00666267
-0.00577183
-0.00675144
-0.00594118
-0.00594104
-0.00388151
-0.00493796
-0.00493795
-0.00589353
-0.00448872
-0.00473641
-0.00473638
-0.00455198
-0.00490777
-0.00433179
-0.00379237
-0.00471073
-0.00342846
-0.00508177
-0.00455198
-0.00490775
-0.00433178
-0.00379233
-0.00471072
-0.00342843
-0.00508175
-0.00719042
-0.00719029
-0.00680118
-0.0067181
-0.00671853
-0.00691852
-0.00691836
-0.00322076
-0.00403514
-0.00325538
-0.00455368
-0.00287131
-0.00396568
-0.00230547
-0.00403539
-0.003221
-0.0032555
-0.00455327
-0.00396581
-0.00287111
-0.00230549
-0.00881086
-0.00405692
-0.00708727
-0.00647066
-0.00637725
-0.00560034
-0.00700375
-0.00881068
-0.00405675
-0.00708722
-0.00647062
-0.00637687
-0.00560007
-0.00700349
-0.00479351
-0.0041451
-0.00414509
-0.0029804
-0.00476142
-0.00393851
-0.00393849
-0.00476305
-0.00476304
-0.0065721
-0.00635798
-0.00425115
-0.0050112
-0.00501094
-0.00491398
-0.00464089
-0.00520896
-0.00520895
-0.005106
-0.00477222
-0.0047722
-0.00337429
-0.00302493
-0.00312848
-0.00450795
-0.003433
-0.003887
-0.00357118
-0.0030249
-0.00337426
-0.00312844
-0.00450791
-0.00388702
-0.003433
-0.00357115
-0.00506126
-0.00596581
-0.00526874
-0.00501928
-0.00588707
-0.00508304
-0.00499639
-0.00506126
-0.00596577
-0.0052687
-0.00501924
-0.00588705
-0.00508303
-0.00499635
-0.00181539
-0.00181546
-0.00313783
-0.00440677
-0.00538119
-0.00538071
-0.00384497
-0.0065843
-0.00590288
-0.00590284
-0.00633469
-0.00612925
-0.00649109
-0.00649098
-0.00626431
-0.00640326
-0.00665704
-0.00690392
-0.00639149
-0.0062831
-0.0065671
-0.006264
-0.00640323
-0.00665736
-0.0069036
-0.006392
-0.00628267
-0.00656682
-0.00587201
-0.00411778
-0.0045572
-0.00455717
-0.00472232
-0.00472228
-0.00570469
-0.0066631
-0.00518739
-0.00518722
-0.00443763
-0.00680752
-0.005195
-0.00519505
-0.00433783
-0.00280258
-0.00280255
-0.00380181
-0.00311574
-0.00405711
-0.00405709
-0.00393942
-0.00346732
-0.00437363
-0.0039805
-0.00337834
-0.0037949
-0.00387115
-0.00393935
-0.00437355
-0.00346731
-0.00398041
-0.00337832
-0.00379488
-0.00387113
-0.00488524
-0.0036311
-0.00225579
-0.00514979
-0.00404969
-0.00449531
-0.00457651
-0.00488525
-0.00363109
-0.00225568
-0.00514965
-0.00404968
-0.00449518
-0.00457646
-0.00484479
-0.0048448
-0.00531336
-0.00343832
-0.00229988
-0.00292972
-0.0029298
-0.00249866
-0.00320807
-0.0031117
-0.00483457
-0.00364733
-0.00394794
-0.00331558
-0.00320742
-0.00249904
-0.00311257
-0.00483475
-0.00394795
-0.00364741
-0.00331601
-0.00471857
-0.00677684
-0.00526064
-0.0028989
-0.00427125
-0.00391861
-0.00340784
-0.00471882
-0.00677687
-0.00526084
-0.00289905
-0.0042712
-0.00391863
-0.00340797
-0.00556814
-0.00345639
-0.0034563
-0.00337697
-0.00269716
-0.00419676
-0.00419673
-0.00567366
-0.00476603
-0.00625561
-0.00445734
-0.00223942
-0.0028247
-0.0045974
-0.00567372
-0.00476502
-0.00625595
-0.00445709
-0.00223944
-0.00282417
-0.00459782
-0.00501147
-0.00501072
-0.00625553
-0.00304549
-0.0035347
-0.00431666
-0.00431713
-0.000511991
0.00208513
-0.000741453
-0.000741373
-0.000658448
0.000850352
0.000850514
-0.00361402
-0.00241854
-0.00387937
-0.00167683
-0.00247852
-0.00224836
-0.00319858
-0.00241839
-0.00361406
-0.00387932
-0.00167673
-0.00224839
-0.00247846
-0.00319857
-0.00271217
-0.0033876
-0.00370536
-0.00280676
-0.00366648
-0.00318905
-0.00336777
-0.00338758
-0.00271215
-0.0037053
-0.00280675
-0.00366644
-0.00318902
-0.00336773
0.000650666
-0.00144588
-0.00113258
-0.00149903
-0.00195038
-0.000758869
0.00115042
0.000650853
-0.00144579
-0.00113236
-0.00149904
-0.00195031
-0.000758522
0.00115072
-0.00164716
-0.00164733
-0.00287392
0.00268666
-0.00210134
-0.00210143
-0.00325971
-0.00054215
0.00029983
0.000299854
0.00107772
-0.000947757
0.000515349
0.000515379
-0.00223905
3.83838e-05
-0.00201357
-0.00190683
-0.000206708
-0.00276248
-0.00149237
-0.00223836
3.83669e-05
-0.00201378
-0.00190712
-0.000206609
-0.00276292
-0.00149236
-0.00479239
-0.00385501
-0.0035707
-0.00483346
-0.00423694
-0.0035279
-0.00353682
-0.00479245
-0.00385497
-0.00357061
-0.00483363
-0.00423666
-0.00352805
-0.00353703
0.000323418
-0.00304582
-0.0022766
-0.00227656
-0.00193115
-0.00193122
-0.000562241
-0.00242815
-0.00253439
-0.00253497
-0.00319537
-0.00169987
-0.0031346
-0.0031351
-0.00342565
-0.0034257
-0.00327255
-0.00365059
-0.0032727
-0.00327279
-0.00295538
-0.00435623
-0.00401886
-0.00457714
-0.00365658
-0.0037136
-0.00393183
-0.00353194
-0.00435636
-0.00401892
-0.00457724
-0.00365667
-0.00371368
-0.00393185
-0.00353205
0.000729962
-0.00103085
-0.00103082
0.0011414
-0.00160177
0.00106564
0.00106582
-0.00317938
-0.00318027
-0.00323376
-0.00354984
-0.00351997
-0.00352025
-0.00317622
-0.00426103
-0.00347237
-0.00372301
-0.00368459
-0.00365154
-0.0037054
-0.00354431
-0.00426104
-0.00347239
-0.00372295
-0.00368474
-0.00365195
-0.0037061
-0.0035448
-0.00334926
-0.00334927
-0.00319966
-0.00340564
-0.00331846
-0.00331845
-0.00316117
0.000658618
-0.000560949
-0.00209121
-0.000700217
-0.00106957
-0.00127315
0.00140727
0.000658667
-0.00056093
-0.00209111
-0.000700154
-0.00106951
-0.00127306
0.00140734
-0.00274166
-0.00307776
-0.00299424
-0.00306859
-0.00316044
-0.00301088
-0.00281168
-0.00274164
-0.00307778
-0.00299423
-0.00306857
-0.00316042
-0.00301087
-0.00281172
-0.00116911
-0.00205805
-0.00168184
-0.00117768
-0.00237289
-0.0022054
-0.00199178
-0.00116904
-0.00168174
-0.00205803
-0.00117762
-0.00237292
-0.00220544
-0.00199176
0.00212647
0.00212648
0.00131448
-0.00194497
-0.00153506
-0.00193583
-0.00193578
-0.00290594
-0.0034292
-0.00244984
-0.00208001
-0.00398998
-0.00264501
-0.00348954
-0.0034291
-0.00290604
-0.00245001
-0.00208006
-0.00264456
-0.00399025
-0.00349004
-0.00152012
-0.00246359
-0.00243483
-0.00369068
-0.00287848
-0.00229255
-0.00393502
-0.00152012
-0.00246323
-0.00243507
-0.00369049
-0.00287882
-0.00229275
-0.00393508
-3.05761e-06
-0.00184109
-0.000148857
-0.00286974
-0.00239109
-0.00177423
-0.00330952
-3.01152e-06
-0.00184171
-0.000148853
-0.00286972
-0.00239109
-0.00177437
-0.00330946
0.00138089
-0.00234926
-0.00234899
-0.00332632
-0.00140943
-0.00181352
-0.00181351
)
;

boundaryField
{
    inlet
    {
        type            fixedValue;
        value           uniform 0;
    }
    wall
    {
        type            zeroGradient;
    }
    outlet
    {
        type            fixedValue;
        value           uniform 0;
    }
    procBoundary3to1
    {
        type            processor;
        value           nonuniform List<scalar> 
320
(
-0.000103879
-0.000103879
-0.00010389
-0.000103893
-0.000103931
-0.000203209
-0.000203209
-0.000203213
-0.000203219
-0.000203229
-0.000482595
-0.000482596
-0.000482614
-0.000482628
-0.000482676
-0.000629983
-0.000629985
-0.000630005
-0.000630023
-0.00063007
-0.000883499
-0.000883505
-0.000883537
-0.000883565
-0.000883643
-0.00105569
-0.0010557
-0.00105575
-0.00105578
-0.00105589
-0.00128869
-0.00128871
-0.00128877
-0.00128883
-0.00128897
-0.00147631
-0.00147633
-0.00147642
-0.00147649
-0.0014767
-0.00169614
-0.00169616
-0.00169628
-0.00169639
-0.00169668
-0.00189188
-0.0018919
-0.00189207
-0.00189221
-0.00189262
-0.00210321
-0.00210324
-0.00210347
-0.00210366
-0.00210423
-0.00230169
-0.00230171
-0.00230201
-0.00230224
-0.00230303
-0.0025063
-0.00250629
-0.00250665
-0.0025069
-0.00250798
-0.00270347
-0.00270334
-0.00270364
-0.00270373
-0.00270509
-0.00290143
-0.00290077
-0.00290019
-0.0028997
-0.00290133
-0.00309452
-0.00309223
-0.00309014
-0.0030885
-0.0030897
-0.00327033
-0.00326911
-0.00326691
-0.00326391
-0.0032644
-0.00341495
-0.00341503
-0.003417
-0.00341701
-0.00341899
-0.00351268
-0.00351503
-0.00351987
-0.00352371
-0.00353014
-0.00358008
-0.00358515
-0.00359482
-0.00360392
-0.00361873
-0.00357612
-0.00359157
-0.00360901
-0.00363002
-0.00365649
-0.00361466
-0.0036262
-0.00364436
-0.00366499
-0.00369542
-0.00354646
-0.00357409
-0.00359076
-0.00363081
-0.00367797
-0.00358376
-0.00362636
-0.00364234
-0.00367534
-0.00371987
-0.00345984
-0.00352375
-0.00353422
-0.00360333
-0.0036489
-0.00332002
-0.00364425
-0.00353982
-0.00362988
-0.00366496
-0.00360996
-0.00334035
-0.00345072
-0.00350416
-0.00352718
0.000231341
-0.00333633
-0.00300489
-0.00358949
-0.0035248
0.00435409
-0.00189264
-0.00338554
-0.00346988
-0.00344954
-0.0056351
-0.00511168
-0.00375136
-0.00358893
-0.00362249
-0.00605266
-0.0027719
-0.00392222
-0.00330706
-0.00340335
-0.000691894
0.000254588
-0.00335234
-0.00334013
-0.00347242
-0.00246362
-0.00372252
-0.00346129
-0.0033049
-0.00329669
-0.00558567
-0.0039937
-0.00354018
-0.00338355
-0.00343171
-0.00303179
-0.00278546
-0.0032383
-0.00289386
-0.00306358
-0.00346675
-0.00327174
-0.0031878
-0.0030481
-0.00308451
-0.00213244
-0.0021102
-0.00224604
-0.0022242
-0.00230439
-0.00235014
-0.0022374
-0.00215067
-0.00203845
-0.00200638
-0.000869865
-0.00088621
-0.000914912
-0.000892364
-0.000886912
-0.000745861
-0.000672933
-0.000590447
-0.000532473
-0.000494554
-0.00167274
-0.00195252
-0.00593937
-0.000454335
-0.000117954
-0.00136947
-0.00522911
-0.00518101
-0.00166056
-0.00378034
-0.00344173
-0.00458305
-0.00371289
-0.00361703
-0.00329831
-0.0069752
-0.00536596
-0.00725378
-0.00579337
-0.00591735
-0.00665304
-0.00594618
-0.00465167
-0.00492266
-0.00489257
-0.00505539
-0.00378032
-0.00717034
-0.00689778
-0.00671214
-0.00454648
-0.00297354
-0.00321676
-0.00637725
-0.00698542
-0.00878086
-0.00519107
-0.00476066
-0.00463059
-0.00449347
-0.00343263
-0.00331336
-0.00595062
-0.00498517
-0.00523343
-0.00440746
-0.00537354
-0.00185621
-0.0063308
-0.00647789
-0.00589848
-0.00639812
-0.00654271
-0.00688432
-0.00379595
-0.00405174
-0.00280613
-0.00345924
-0.00382241
-0.0039337
-0.0036539
-0.00457291
-0.00512831
-0.00484235
-0.0029285
-0.00230533
-0.00483147
-0.00366107
-0.00247825
-0.00673584
-0.00340665
-0.00426666
-0.00225015
-0.00459195
-0.00566867
-0.000743684
0.000828165
0.00204477
-0.00160958
-0.00240692
-0.00350472
-0.00371307
-0.00334128
-0.00268059
-0.00137929
0.00118409
-0.00113774
0.00269945
-0.00210353
-0.00157772
0.00106142
0.000519776
0.000306566
3.62939e-05
-0.00148469
-0.00189819
-0.00385994
-0.00354105
-0.00483715
0.00110155
0.00103465
-0.0010361
-0.000519026
0.00143137
-0.000581824
-0.00199097
-0.00185061
-0.00102372
0.00212174
-0.00193764
-0.00151182
-0.00212162
-0.00399873
-0.00293547
-0.00246617
-0.003944
-0.00289131
-0.00239219
-0.00330662
6.83993e-06
)
;
    }
    procBoundary3to2
    {
        type            processor;
        value           nonuniform List<scalar> 
320
(
-0.000103879
-0.000103879
-0.00010389
-0.000103893
-0.00010393
-0.000203209
-0.000203209
-0.000203213
-0.000203218
-0.000203229
-0.000482595
-0.000482596
-0.000482614
-0.000482628
-0.000482676
-0.000629982
-0.000629985
-0.000630005
-0.000630023
-0.00063007
-0.000883499
-0.000883505
-0.000883536
-0.000883565
-0.000883643
-0.00105569
-0.0010557
-0.00105575
-0.00105578
-0.00105589
-0.00128869
-0.00128871
-0.00128877
-0.00128883
-0.00128897
-0.00147631
-0.00147633
-0.00147642
-0.00147649
-0.0014767
-0.00169614
-0.00169616
-0.00169628
-0.00169639
-0.00169667
-0.00189188
-0.0018919
-0.00189207
-0.00189221
-0.00189262
-0.00210321
-0.00210324
-0.00210347
-0.00210366
-0.00210423
-0.00230169
-0.00230171
-0.00230201
-0.00230224
-0.00230303
-0.0025063
-0.00250629
-0.00250665
-0.0025069
-0.00250798
-0.00270347
-0.00270334
-0.00270364
-0.00270373
-0.00270509
-0.00290142
-0.00290077
-0.00290019
-0.0028997
-0.00290133
-0.00309452
-0.00309223
-0.00309014
-0.00308849
-0.0030897
-0.00327033
-0.00326911
-0.00326691
-0.00326391
-0.0032644
-0.00341495
-0.00341503
-0.003417
-0.00341701
-0.00341899
-0.00351268
-0.00351502
-0.00351987
-0.00352371
-0.00353014
-0.00358007
-0.00358514
-0.00359482
-0.00360392
-0.00361873
-0.00357611
-0.00359156
-0.00360901
-0.00363002
-0.00365649
-0.00361466
-0.00362619
-0.00364436
-0.00366499
-0.00369543
-0.00354646
-0.00357408
-0.00359076
-0.0036308
-0.00367798
-0.00358376
-0.00362636
-0.00364234
-0.00367533
-0.00371988
-0.00345984
-0.00352374
-0.00353422
-0.00360332
-0.00364891
-0.00332001
-0.00364425
-0.00353981
-0.00362987
-0.00366498
-0.00360998
-0.00334036
-0.00345072
-0.00350415
-0.00352719
0.000231262
-0.00333633
-0.00300488
-0.00358951
-0.00352481
0.00435392
-0.00189277
-0.00338555
-0.00346989
-0.00344955
-0.00563505
-0.00511167
-0.00375131
-0.00358893
-0.00362247
-0.00605258
-0.00277183
-0.00392224
-0.00330704
-0.00340334
-0.000691921
0.000254645
-0.00335231
-0.00334011
-0.0034724
-0.00246361
-0.00372249
-0.00346127
-0.00330485
-0.00329667
-0.00558565
-0.00399367
-0.00354014
-0.00338351
-0.00343169
-0.00303175
-0.00278542
-0.00323826
-0.00289383
-0.00306355
-0.00346669
-0.0032717
-0.00318778
-0.00304808
-0.00308448
-0.0021324
-0.00211018
-0.00224603
-0.00222418
-0.00230439
-0.00235013
-0.00223739
-0.00215065
-0.00203844
-0.00200638
-0.000869865
-0.000886211
-0.000914914
-0.000892364
-0.000886915
-0.000745853
-0.000672928
-0.000590446
-0.000532473
-0.000494554
-0.00593901
-0.00195248
-0.00167271
-0.00136937
-0.000117899
-0.000454318
-0.00166047
-0.00518096
-0.0052291
-0.00458301
-0.0034417
-0.00378032
-0.00329827
-0.00361699
-0.00371284
-0.00725361
-0.00536561
-0.00697517
-0.00665291
-0.00591715
-0.00579328
-0.00492263
-0.00465165
-0.00594618
-0.00378028
-0.00505537
-0.00489254
-0.00671208
-0.00689757
-0.00717019
-0.00321682
-0.00297349
-0.00454631
-0.00878069
-0.00698515
-0.0063769
-0.00463057
-0.00476063
-0.00519104
-0.0033133
-0.0034326
-0.00449342
-0.00523338
-0.00498512
-0.00595059
-0.00185643
-0.00537315
-0.00440744
-0.00589837
-0.00647772
-0.00633072
-0.00688408
-0.00654243
-0.00639794
-0.00280611
-0.00405171
-0.00379593
-0.00393365
-0.00382238
-0.00345921
-0.0051282
-0.00457286
-0.00365391
-0.00230535
-0.00292856
-0.00484232
-0.00247837
-0.00366116
-0.00483137
-0.00426662
-0.00340672
-0.00673585
-0.00566862
-0.00459217
-0.00224997
0.00204478
0.0008282
-0.000743645
-0.00350461
-0.00240685
-0.00160945
-0.00268056
-0.00334124
-0.00371301
-0.00113773
0.00118416
-0.00137924
-0.00157781
-0.00210379
0.00269946
0.000306366
0.000519717
0.00106138
-0.00189873
-0.00148475
3.62207e-05
-0.00483695
-0.00354114
-0.00385988
-0.0010361
0.00103467
0.00110145
-0.000581744
0.00143128
-0.000519001
-0.00102362
-0.00185057
-0.00199093
-0.00151186
-0.00193769
0.0021217
-0.00293552
-0.00399886
-0.00212153
-0.0028916
-0.00394404
-0.00246619
6.7951e-06
-0.00330659
-0.00239222
)
;
    }
}


// ************************************************************************* //
