/*--------------------------------*- C++ -*----------------------------------*\
| =========                 |                                                 |
| \\      /  F ield         | OpenFOAM: The Open Source CFD Toolbox           |
|  \\    /   O peration     | Version:  5.x                                   |
|   \\  /    A nd           | Web:      www.OpenFOAM.org                      |
|    \\/     M anipulation  |                                                 |
\*---------------------------------------------------------------------------*/
FoamFile
{
    version     2.0;
    format      ascii;
    class       volVectorField;
    location    "0.057";
    object      U;
}
// * * * * * * * * * * * * * * * * * * * * * * * * * * * * * * * * * * * * * //

dimensions      [0 1 -1 0 0 0 0];

internalField   nonuniform List<vector> 
1560
(
(-8.06151e-07 -8.42803e-07 0.00983607)
(7.46812e-06 -8.77959e-07 0.00983505)
(7.76505e-06 -8.95419e-07 0.00983862)
(1.32596e-05 -9.0832e-07 0.00983722)
(1.34931e-05 -9.14412e-07 0.00984646)
(-8.41519e-07 7.43103e-06 0.00983505)
(7.43735e-06 7.4003e-06 0.00983403)
(7.74387e-06 7.34191e-06 0.00983762)
(1.32414e-05 7.32436e-06 0.00983622)
(1.34802e-05 7.24299e-06 0.00984546)
(-8.59043e-07 7.72844e-06 0.00983862)
(7.37899e-06 7.70732e-06 0.00983761)
(7.6891e-06 7.65253e-06 0.00984118)
(1.31607e-05 7.63874e-06 0.00983979)
(1.34099e-05 7.55442e-06 0.00984898)
(-8.72066e-07 1.32206e-05 0.00983722)
(7.36145e-06 1.32023e-05 0.00983622)
(7.67529e-06 1.31216e-05 0.00983979)
(1.31432e-05 1.31041e-05 0.00983841)
(1.33939e-05 1.29721e-05 0.00984759)
(-8.78322e-07 1.34551e-05 0.00984644)
(7.28e-06 1.34422e-05 0.00984544)
(7.59091e-06 1.33719e-05 0.00984896)
(1.30112e-05 1.33559e-05 0.00984758)
(1.32745e-05 1.32365e-05 0.00985665)
(2.87243e-07 2.66435e-07 -0.00425494)
(3.28396e-06 2.9124e-07 -0.00425451)
(3.99823e-06 3.15656e-07 -0.00425407)
(4.96234e-06 3.20672e-07 -0.00425335)
(3.79685e-06 3.26206e-07 -0.00425337)
(3.1237e-07 3.26402e-06 -0.00425451)
(3.30004e-06 3.27995e-06 -0.00425408)
(4.00201e-06 3.26577e-06 -0.00425364)
(4.96212e-06 3.26301e-06 -0.00425292)
(3.79412e-06 3.22723e-06 -0.00425295)
(3.36677e-07 3.98227e-06 -0.00425407)
(3.28571e-06 3.98588e-06 -0.00425364)
(3.98128e-06 3.96522e-06 -0.00425324)
(4.92376e-06 3.95722e-06 -0.00425252)
(3.75988e-06 3.91655e-06 -0.00425258)
(3.41861e-07 4.94965e-06 -0.00425335)
(3.283e-06 4.94934e-06 -0.00425292)
(3.97335e-06 4.91106e-06 -0.00425252)
(4.91341e-06 4.90067e-06 -0.00425181)
(3.75195e-06 4.84155e-06 -0.00425188)
(3.47354e-07 3.79057e-06 -0.00425336)
(3.24715e-06 3.78776e-06 -0.00425294)
(3.93265e-06 3.75353e-06 -0.00425258)
(4.85425e-06 3.74557e-06 -0.00425187)
(3.69843e-06 3.69205e-06 -0.00425198)
(-2.72991e-07 -3.10124e-07 0.00682383)
(8.51179e-06 -3.47368e-07 0.00682389)
(9.14019e-06 -3.84555e-07 0.00682921)
(1.42623e-05 -4.02995e-07 0.00682948)
(1.3766e-05 -4.3032e-07 0.00683866)
(-3.10281e-07 8.47475e-06 0.00682389)
(8.48276e-06 8.44571e-06 0.00682396)
(9.11237e-06 8.35451e-06 0.00682927)
(1.42356e-05 8.32814e-06 0.00682954)
(1.37455e-05 8.20597e-06 0.0068387)
(-3.47562e-07 9.10488e-06 0.00682921)
(8.39154e-06 9.07704e-06 0.00682926)
(9.02263e-06 8.9873e-06 0.00683453)
(1.41137e-05 8.96165e-06 0.00683478)
(1.36405e-05 8.83507e-06 0.00684386)
(-3.66029e-07 1.42269e-05 0.00682948)
(8.36519e-06 1.42001e-05 0.00682953)
(8.99699e-06 1.40782e-05 0.00683479)
(1.40833e-05 1.40478e-05 0.00683504)
(1.36152e-05 1.38663e-05 0.0068441)
(-3.93523e-07 1.37339e-05 0.00683864)
(8.24291e-06 1.37133e-05 0.00683869)
(8.87034e-06 1.36083e-05 0.00684385)
(1.39018e-05 1.3583e-05 0.00684409)
(1.34535e-05 1.34212e-05 0.006853)
(1.47366e-07 1.20687e-07 -0.00152345)
(8.6717e-06 1.32172e-07 -0.00152289)
(9.59258e-06 1.56017e-07 -0.00151803)
(1.44135e-05 1.58695e-07 -0.00151695)
(1.32844e-05 1.58818e-07 -0.00150936)
(1.59016e-07 8.64567e-06 -0.00152289)
(8.67851e-06 8.65235e-06 -0.00152233)
(9.58733e-06 8.57925e-06 -0.00151748)
(1.44003e-05 8.56324e-06 -0.00151641)
(1.32699e-05 8.42943e-06 -0.00150884)
(1.827e-07 9.56918e-06 -0.00151803)
(8.60528e-06 9.5638e-06 -0.00151748)
(9.50347e-06 9.48001e-06 -0.00151271)
(1.42636e-05 9.45872e-06 -0.00151167)
(1.31462e-05 9.31182e-06 -0.00150423)
(1.85444e-07 1.43913e-05 -0.00151695)
(8.58934e-06 1.43781e-05 -0.00151641)
(9.48225e-06 1.42414e-05 -0.00151167)
(1.42321e-05 1.42098e-05 -0.00151063)
(1.3118e-05 1.39881e-05 -0.00150322)
(1.85415e-07 1.32663e-05 -0.00150936)
(8.45539e-06 1.32518e-05 -0.00150884)
(9.33527e-06 1.3128e-05 -0.00150423)
(1.40103e-05 1.30998e-05 -0.00150322)
(1.29167e-05 1.28985e-05 -0.001496)
(2.56735e-07 2.17314e-07 0.00467541)
(1.3942e-05 1.71885e-07 0.00467617)
(1.50861e-05 1.10664e-07 0.00468555)
(2.29353e-05 8.37067e-08 0.00468705)
(2.16707e-05 2.4238e-08 0.00470203)
(2.11331e-07 1.39032e-05 0.00467617)
(1.39001e-05 1.38612e-05 0.00467693)
(1.50382e-05 1.3667e-05 0.00468628)
(2.2883e-05 1.3613e-05 0.00468777)
(2.16283e-05 1.33408e-05 0.00470271)
(1.49904e-07 1.50494e-05 0.00468554)
(1.37059e-05 1.50014e-05 0.00468627)
(1.48379e-05 1.48012e-05 0.00469548)
(2.26089e-05 1.4744e-05 0.00469694)
(2.139e-05 1.44564e-05 0.00471166)
(1.2296e-07 2.28993e-05 0.00468705)
(1.36518e-05 2.28468e-05 0.00468777)
(1.47808e-05 2.25727e-05 0.00469694)
(2.2538e-05 2.25017e-05 0.00469838)
(2.13313e-05 2.20943e-05 0.00471305)
(6.31915e-08 2.16384e-05 0.00470201)
(1.33795e-05 2.15959e-05 0.0047027)
(1.4493e-05 2.13575e-05 0.00471165)
(2.21305e-05 2.12987e-05 0.00471305)
(2.09692e-05 2.09366e-05 0.00472738)
(7.6254e-07 7.28057e-07 9.31505e-05)
(1.88076e-05 7.13031e-07 9.43185e-05)
(2.04717e-05 6.98205e-07 0.000105916)
(3.08976e-05 6.85795e-07 0.000108177)
(2.88086e-05 6.44137e-07 0.000126509)
(7.47666e-07 1.8774e-05 9.43183e-05)
(1.87797e-05 1.87459e-05 9.5477e-05)
(2.04305e-05 1.85061e-05 0.000107032)
(3.08406e-05 1.84437e-05 0.000109278)
(2.87583e-05 1.8062e-05 0.000127551)
(7.32554e-07 2.04403e-05 0.000105911)
(1.85397e-05 2.03989e-05 0.000107028)
(2.01695e-05 2.0138e-05 0.000118359)
(3.04533e-05 2.00672e-05 0.000120538)
(2.84138e-05 1.96521e-05 0.000138472)
(7.20219e-07 3.08672e-05 0.000108172)
(1.84774e-05 3.08099e-05 0.000109273)
(2.00988e-05 3.04227e-05 0.000120538)
(3.03545e-05 3.03237e-05 0.000122691)
(2.83285e-05 2.97171e-05 0.000140527)
(6.78205e-07 2.87814e-05 0.0001265)
(1.80955e-05 2.87309e-05 0.000127542)
(1.96836e-05 2.83863e-05 0.000138468)
(2.97478e-05 2.83009e-05 0.000140523)
(2.77853e-05 2.77577e-05 0.000157846)
(1.30745e-06 1.26264e-06 0.00339162)
(2.6709e-05 1.19752e-06 0.00339345)
(2.8947e-05 1.07971e-06 0.0034116)
(4.35425e-05 1.03133e-06 0.00341509)
(4.0729e-05 8.9783e-07 0.00344382)
(1.24244e-06 2.66655e-05 0.00339345)
(2.6616e-05 2.65723e-05 0.00339525)
(2.88415e-05 2.61122e-05 0.00341334)
(4.34153e-05 2.59754e-05 0.00341681)
(4.06256e-05 2.53057e-05 0.00344545)
(1.12418e-06 2.89058e-05 0.00341159)
(2.61558e-05 2.88001e-05 0.00341333)
(2.83501e-05 2.83087e-05 0.00343107)
(4.27356e-05 2.81587e-05 0.00343444)
(4.00369e-05 2.74344e-05 0.00346255)
(1.07584e-06 4.35024e-05 0.00341508)
(2.6019e-05 4.33749e-05 0.0034168)
(2.82001e-05 4.26952e-05 0.00343444)
(4.25407e-05 4.25001e-05 0.00343778)
(3.98766e-05 4.14772e-05 0.00346573)
(9.41727e-07 4.06925e-05 0.00344381)
(2.53489e-05 4.05888e-05 0.00344543)
(2.74756e-05 4e-05 0.00346254)
(4.15176e-05 3.98395e-05 0.00346572)
(3.89794e-05 3.89423e-05 0.00349284)
(2.45119e-06 2.40732e-06 0.00095312)
(3.87806e-05 2.36007e-06 0.000955763)
(4.21134e-05 2.25614e-06 0.000979823)
(6.31371e-05 2.21237e-06 0.000984866)
(5.8626e-05 2.05839e-06 0.00102282)
(2.40414e-06 3.87384e-05 0.000955763)
(3.86688e-05 3.86263e-05 0.000958373)
(4.19857e-05 3.79797e-05 0.000982312)
(6.29623e-05 3.77949e-05 0.000987303)
(5.84773e-05 3.67862e-05 0.00102508)
(2.29967e-06 4.20733e-05 0.000979816)
(3.80219e-05 4.19453e-05 0.000982305)
(4.12819e-05 4.12417e-05 0.00100566)
(6.19431e-05 4.10341e-05 0.00101045)
(5.75811e-05 3.993e-05 0.00104736)
(2.25599e-06 6.30983e-05 0.000984859)
(3.78372e-05 6.29231e-05 0.000987296)
(4.10745e-05 6.19039e-05 0.00101045)
(6.165e-05 6.16106e-05 0.00101515)
(5.73327e-05 6.00245e-05 0.00105175)
(2.10124e-06 5.85899e-05 0.00102281)
(3.68281e-05 5.84409e-05 0.00102507)
(3.997e-05 5.75445e-05 0.00104735)
(6.00637e-05 5.7296e-05 0.00105174)
(5.59371e-05 5.59004e-05 0.00108703)
(3.76173e-06 3.70857e-06 0.00263688)
(5.34139e-05 3.60796e-06 0.00264105)
(5.80522e-05 3.3387e-06 0.00267713)
(8.65676e-05 3.22983e-06 0.00268493)
(8.01825e-05 2.89216e-06 0.00274208)
(3.66139e-06 5.33634e-05 0.00264105)
(5.31672e-05 5.31164e-05 0.00264515)
(5.77735e-05 5.19533e-05 0.00268105)
(8.62106e-05 5.15582e-05 0.00268878)
(7.98958e-05 4.98418e-05 0.00274564)
(3.39115e-06 5.8004e-05 0.00267712)
(5.20038e-05 5.7725e-05 0.00268104)
(5.64941e-05 5.64457e-05 0.00271612)
(8.44553e-05 5.60045e-05 0.00272356)
(7.84082e-05 5.41048e-05 0.0027791)
(3.28242e-06 8.65213e-05 0.00268492)
(5.16089e-05 8.61637e-05 0.00268877)
(5.6053e-05 8.44084e-05 0.00272356)
(8.38688e-05 8.38215e-05 0.00273088)
(7.79312e-05 8.11671e-05 0.00278595)
(2.94342e-06 8.01392e-05 0.00274206)
(4.98917e-05 7.98519e-05 0.00274563)
(5.41528e-05 7.83641e-05 0.00277909)
(8.1214e-05 7.78868e-05 0.00278594)
(7.56618e-05 7.56174e-05 0.00283895)
(6.47874e-06 6.42355e-06 0.00131585)
(7.90269e-05 6.30977e-06 0.00132211)
(8.59973e-05 5.98913e-06 0.00137098)
(0.000128116 5.86344e-06 0.00138268)
(0.000117961 5.39912e-06 0.00145941)
(6.36527e-06 7.89753e-05 0.00132212)
(7.86713e-05 7.86191e-05 0.00132829)
(8.56156e-05 7.69638e-05 0.00137678)
(0.000127585 7.64206e-05 0.0013883)
(0.000117518 7.38048e-05 0.00146447)
(6.04342e-06 8.59478e-05 0.00137097)
(7.70154e-05 8.55656e-05 0.00137677)
(8.37987e-05 8.3749e-05 0.00142367)
(0.000124955 8.31313e-05 0.00143453)
(0.000115249 8.02318e-05 0.00150843)
(5.91795e-06 0.000128068 0.00138267)
(7.64725e-05 0.000127537 0.00138829)
(8.31813e-05 0.000124907 0.00143453)
(0.000124066 0.000124018 0.00144509)
(0.000114511 0.000119902 0.00151802)
(5.45197e-06 0.000117916 0.0014594)
(7.38557e-05 0.000117473 0.00146445)
(8.0281e-05 0.000115203 0.00150842)
(0.00011995 0.000114464 0.00151801)
(0.00011098 0.000110933 0.00158752)
(9.80115e-06 9.73676e-06 0.0021232)
(0.000108542 9.5388e-06 0.00213318)
(0.000118623 8.84339e-06 0.00220537)
(0.000175053 8.5317e-06 0.00222336)
(0.000159934 7.58773e-06 0.00233806)
(9.60434e-06 0.000108483 0.00213317)
(0.000107834 0.000107775 0.00214289)
(0.000117779 0.000104648 0.00221446)
(0.000173947 0.000103406 0.00223221)
(0.000159071 9.88575e-05 0.00234598)
(8.90652e-06 0.000118566 0.00220536)
(0.000104706 0.000117722 0.00221445)
(0.000114254 0.000114197 0.00228412)
(0.000169261 0.000112805 0.002301)
(0.000155234 0.000107657 0.00241151)
(8.59523e-06 0.000175 0.00222335)
(0.000103465 0.000173893 0.0022322)
(0.000112862 0.000169207 0.002301)
(0.000167404 0.000167349 0.00231743)
(0.00015375 0.000160298 0.00242646)
(7.6484e-06 0.000159883 0.00233804)
(9.89151e-05 0.000159019 0.00234597)
(0.000107713 0.000155181 0.0024115)
(0.000160352 0.000153697 0.00242645)
(0.000147943 0.000147889 0.00253037)
(1.6376e-05 1.63096e-05 0.00131449)
(0.000161186 1.59186e-05 0.00133)
(0.000176181 1.49355e-05 0.00142965)
(0.00026087 1.45565e-05 0.0014581)
(0.000237088 1.31318e-05 0.00161341)
(1.59871e-05 0.000161123 0.00133)
(0.000159953 0.000159888 0.00134531)
(0.000174931 0.000155717 0.00144388)
(0.00025917 0.000154049 0.0014716)
(0.000235686 0.000147255 0.00162512)
(1.50013e-05 0.000176122 0.00142964)
(0.00015578 0.000174872 0.00144387)
(0.000170342 0.000170283 0.00153776)
(0.000252404 0.000168346 0.00156341)
(0.000230037 0.000160706 0.00171085)
(1.4623e-05 0.000260815 0.00145809)
(0.000154113 0.000259113 0.00147159)
(0.000168406 0.000252347 0.00156341)
(0.000249588 0.000249531 0.00158804)
(0.000227757 0.000238822 0.00173237)
(1.3195e-05 0.000237035 0.00161339)
(0.000147316 0.000235631 0.00162511)
(0.000160764 0.000229982 0.00171085)
(0.000238879 0.000227701 0.00173236)
(0.000218921 0.000218865 0.00186778)
(2.5122e-05 2.50457e-05 0.00160555)
(0.000223708 2.45891e-05 0.00163138)
(0.00024672 2.27495e-05 0.00177601)
(0.00035891 2.16827e-05 0.00181911)
(0.000321342 1.88884e-05 0.00205041)
(2.46682e-05 0.000223639 0.00163137)
(0.000221718 0.000221646 0.0016561)
(0.00024407 0.000212766 0.00179804)
(0.000355289 0.000208718 0.00184056)
(0.000318645 0.000196309 0.0020686)
(2.28235e-05 0.000246658 0.001776)
(0.000212835 0.000244005 0.00179804)
(0.000233791 0.000233728 0.00193633)
(0.000342448 0.000229249 0.00197608)
(0.00030853 0.000214905 0.00219632)
(2.17577e-05 0.000358852 0.00181909)
(0.000208787 0.000355228 0.00184055)
(0.000229314 0.000342387 0.00197608)
(0.00033646 0.000336398 0.00201436)
(0.00030384 0.000317302 0.0022297)
(1.8958e-05 0.000321284 0.00205039)
(0.000196375 0.000318585 0.00206859)
(0.000214967 0.000308469 0.00219631)
(0.000317363 0.000303778 0.0022297)
(0.000288804 0.000288742 0.00243256)
(4.22609e-05 4.21857e-05 0.000927025)
(0.000331647 4.06471e-05 0.000966052)
(0.000363903 3.69354e-05 0.00116983)
(0.000535397 3.59718e-05 0.00124248)
(0.000477447 3.12331e-05 0.00155888)
(4.07321e-05 0.000331571 0.000966043)
(0.000326625 0.000326544 0.00100461)
(0.000359387 0.000316034 0.00120715)
(0.000529856 0.000311021 0.00127669)
(0.000472677 0.000293154 0.00158744)
(3.70137e-05 0.000363839 0.00116982)
(0.00031611 0.000359319 0.00120714)
(0.00034838 0.000348313 0.00139564)
(0.000512506 0.000342144 0.00145876)
(0.000458876 0.000321799 0.00175322)
(3.60527e-05 0.000535339 0.00124247)
(0.000311098 0.000529793 0.00127668)
(0.000342212 0.000512443 0.00145876)
(0.000503328 0.000503263 0.00151864)
(0.000451537 0.000475189 0.00180326)
(3.1309e-05 0.000477392 0.00155888)
(0.000293225 0.000472617 0.00158743)
(0.000321864 0.000458814 0.00175322)
(0.000475252 0.000451473 0.00180326)
(0.000429723 0.000429659 0.00206466)
(6.41153e-05 6.4028e-05 0.000794618)
(0.000466516 6.29954e-05 0.000867459)
(0.000523148 5.97776e-05 0.00116528)
(0.000748172 5.55405e-05 0.00127265)
(0.000650089 4.69669e-05 0.00174229)
(6.30905e-05 0.000466437 0.000867434)
(0.000462826 0.000462744 0.000937156)
(0.000516141 0.000438581 0.00122075)
(0.000735781 0.000425006 0.00132765)
(0.000641562 0.000390653 0.00178555)
(5.98642e-05 0.000523087 0.00116526)
(0.00043866 0.000516074 0.00122075)
(0.000485411 0.000485345 0.00149616)
(0.00070023 0.000471203 0.00159438)
(0.000614666 0.000430734 0.00203361)
(5.56312e-05 0.000748116 0.00127262)
(0.000425084 0.000735718 0.00132765)
(0.000471271 0.000700167 0.00159438)
(0.00068115 0.000681085 0.0016876)
(0.000599862 0.000628905 0.00211006)
(4.70457e-05 0.00065003 0.00174226)
(0.000390726 0.0006415 0.00178556)
(0.000430797 0.000614602 0.0020336)
(0.000628968 0.000599795 0.00211006)
(0.000560795 0.000560728 0.0025025)
(0.000115232 0.000115127 -0.000161485)
(0.000702314 0.0001105 -2.99477e-05)
(0.000769077 9.25546e-05 0.000399971)
(0.00111268 9.11837e-05 0.000608067)
(0.000965695 7.46646e-05 0.00126071)
(0.000110608 0.000702219 -2.99756e-05)
(0.000679937 0.000679836 8.87174e-05)
(0.000749869 0.000646905 0.000511125)
(0.00109494 0.000632747 0.000705154)
(0.000948831 0.000584463 0.00133489)
(9.26471e-05 0.00076901 0.000399957)
(0.000647 0.000749799 0.000511142)
(0.000721991 0.000721923 0.000897159)
(0.00105021 0.000702065 0.00106533)
(0.000915489 0.00064629 0.00165533)
(9.12795e-05 0.00111262 0.000608038)
(0.000632848 0.00109487 0.000705161)
(0.000702134 0.00105014 0.00106533)
(0.00101926 0.0010192 0.00122138)
(0.000890831 0.000944332 0.00177908)
(7.4743e-05 0.000965644 0.00126071)
(0.000584555 0.000948773 0.00133492)
(0.000646353 0.000915428 0.00165534)
(0.000944399 0.000890767 0.00177909)
(0.00083767 0.000837606 0.00227957)
(0.000195505 0.000195394 -0.000817101)
(0.00102799 0.000181441 -0.000613402)
(0.00116114 0.000170616 -6.10292e-07)
(0.00160935 0.000152368 0.000314412)
(0.00132794 0.00012082 0.00126528)
(0.000181556 0.0010279 -0.000613451)
(0.00100394 0.00100385 -0.00042557)
(0.00113256 0.000935785 0.000165156)
(0.00155998 0.000882288 0.000457135)
(0.00129593 0.000785295 0.00138033)
(0.000170713 0.00116108 -6.26963e-07)
(0.000935877 0.0011325 0.000165184)
(0.00103959 0.00103953 0.000735587)
(0.00145882 0.000987414 0.000993928)
(0.00122806 0.000874905 0.0018654)
(0.000152466 0.0016093 0.000314381)
(0.000882387 0.00155992 0.000457147)
(0.000987474 0.00145876 0.000993909)
(0.00139529 0.00139523 0.00123038)
(0.00118 0.00125346 0.00204801)
(0.000120902 0.00132791 0.00126528)
(0.000785376 0.00129588 0.00138036)
(0.000874955 0.00122801 0.0018654)
(0.00125352 0.00117994 0.00204803)
(0.00108177 0.00108171 0.00279355)
(0.00031944 0.000319302 -0.00260831)
(0.00151884 0.00029881 -0.0021716)
(0.00169684 0.00025841 -0.00129179)
(0.00237919 0.000233829 -0.000699837)
(0.00195456 0.000189435 0.00058368)
(0.000298957 0.00151873 -0.00217168)
(0.00145857 0.00145845 -0.00178772)
(0.00163251 0.00138311 -0.00097486)
(0.0023107 0.00131225 -0.000440517)
(0.00190883 0.00118455 0.000778132)
(0.000258534 0.00169679 -0.0012918)
(0.00138322 0.00163246 -0.000974805)
(0.00155067 0.00155061 -0.000207935)
(0.00218056 0.00147524 0.000260961)
(0.00182191 0.00131391 0.00141888)
(0.000233958 0.00237914 -0.00069988)
(0.00131237 0.00231064 -0.000440493)
(0.0014753 0.0021805 0.000260938)
(0.00207388 0.00207381 0.000673058)
(0.00174149 0.00187298 0.00172653)
(0.000189532 0.00195453 0.000583687)
(0.00118465 0.00190879 0.000778215)
(0.00131396 0.00182188 0.0014189)
(0.00187305 0.00174145 0.00172657)
(0.00161312 0.00161308 0.00267789)
(0.000633101 0.000632963 -0.00430027)
(0.00234458 0.000565883 -0.00360551)
(0.00263285 0.000487879 -0.00225577)
(0.00348581 0.000411659 -0.0013023)
(0.00266307 0.000315195 0.000586659)
(0.000566035 0.00234448 -0.00360562)
(0.00220083 0.00220071 -0.00299653)
(0.00247971 0.00201971 -0.00174748)
(0.00331392 0.00184314 -0.000890347)
(0.00256418 0.00162054 0.000884904)
(0.000487994 0.00263282 -0.00225579)
(0.00201981 0.00247967 -0.0017474)
(0.0022753 0.00227527 -0.000592807)
(0.00308651 0.00210092 0.000122293)
(0.00243248 0.00182325 0.00180151)
(0.000411781 0.00348579 -0.00130237)
(0.00184326 0.00331389 -0.000890316)
(0.00210095 0.00308648 0.000122255)
(0.00286168 0.00286164 0.000732893)
(0.00227689 0.00251312 0.0022309)
(0.000315278 0.00266308 0.000586676)
(0.00162064 0.00256419 0.000885022)
(0.00182326 0.00243248 0.00180153)
(0.00251315 0.00227687 0.00223096)
(0.00207201 0.002072 0.00363417)
(0.00101413 0.00101395 -0.00883075)
(0.00356342 0.000908203 -0.00719371)
(0.00399992 0.000766597 -0.0051557)
(0.00522301 0.000645765 -0.00327976)
(0.00392119 0.00048764 -0.000654846)
(0.000908412 0.00356329 -0.00719387)
(0.00331677 0.00331662 -0.00588273)
(0.00373856 0.00304612 -0.00410392)
(0.00494439 0.00273687 -0.00250293)
(0.00375778 0.00239938 -0.000120276)
(0.000766759 0.00399991 -0.00515572)
(0.00304626 0.00373853 -0.0041038)
(0.0034202 0.00342018 -0.00243334)
(0.00457605 0.0030983 -0.00110348)
(0.00357049 0.00265972 0.00116186)
(0.00064594 0.005223 -0.00327985)
(0.00273701 0.00494437 -0.00250289)
(0.00309832 0.00457601 -0.00110354)
(0.00418354 0.0041835 -6.31369e-05)
(0.00330261 0.00370665 0.00194038)
(0.000487751 0.00392125 -0.000654822)
(0.00239949 0.00375783 -0.000120122)
(0.00265972 0.00357051 0.00116189)
(0.00370668 0.00330263 0.00194048)
(0.0030736 0.00307362 0.00379692)
(0.00227328 0.00227308 -0.012657)
(0.00601989 0.00187917 -0.0101955)
(0.00654669 0.00154053 -0.00707941)
(0.00798883 0.00118828 -0.00426544)
(0.00539559 0.000848766 -0.000315372)
(0.0018794 0.00601976 -0.0101957)
(0.00529093 0.00529077 -0.00815943)
(0.00585932 0.00474221 -0.00550624)
(0.00729955 0.00401949 -0.00311765)
(0.00504727 0.00343739 0.000412916)
(0.0015407 0.00654674 -0.00707941)
(0.00474234 0.00585933 -0.00550606)
(0.00527544 0.00527546 -0.00311134)
(0.0066836 0.00454049 -0.00115051)
(0.0047905 0.00388371 0.00207741)
(0.00118846 0.00798886 -0.00426552)
(0.00401964 0.00729957 -0.00311757)
(0.00454048 0.0066836 -0.00115058)
(0.00590719 0.00590719 0.000334562)
(0.00436404 0.0051495 0.00310904)
(0.000848892 0.00539572 -0.000315277)
(0.0034375 0.00504739 0.000413179)
(0.00388367 0.00479059 0.00207749)
(0.0051495 0.00436412 0.00310918)
(0.00400252 0.0040026 0.00552582)
(0.0034735 0.00347328 -0.0268283)
(0.00914127 0.0029438 -0.0196094)
(0.00992986 0.00233838 -0.0143674)
(0.0119901 0.00179263 -0.00819743)
(0.00803929 0.00121465 -0.00245234)
(0.00294411 0.00914115 -0.0196098)
(0.00800628 0.00800609 -0.0146902)
(0.00878 0.00701423 -0.0106566)
(0.0108662 0.00585167 -0.00586241)
(0.00744083 0.00479218 -0.00102274)
(0.00233858 0.00992999 -0.0143675)
(0.00701435 0.00878005 -0.0106564)
(0.0077753 0.0077754 -0.00696832)
(0.00976728 0.00654996 -0.00316672)
(0.00693786 0.00535539 0.00133557)
(0.00179289 0.0119902 -0.00819765)
(0.00585183 0.0108663 -0.00586235)
(0.0065499 0.00976733 -0.00316686)
(0.00844514 0.00844517 -0.000483898)
(0.00619876 0.00715712 0.00312104)
(0.0012148 0.00803953 -0.00245237)
(0.00479228 0.00744106 -0.00102252)
(0.00535527 0.00693804 0.00133561)
(0.00715707 0.00619892 0.0031212)
(0.00559619 0.00559634 0.00626281)
(0.00950142 0.00950109 -0.0360844)
(0.0184821 0.00680653 -0.0260839)
(0.01796 0.00525244 -0.0176937)
(0.0199085 0.00352354 -0.00911103)
(0.0113757 0.0022756 -0.000962884)
(0.00680698 0.0184819 -0.0260845)
(0.0142443 0.014244 -0.0183422)
(0.0146872 0.0121415 -0.0124655)
(0.0169373 0.00905003 -0.00574005)
(0.010094 0.00722554 0.000826084)
(0.00525275 0.0179602 -0.0176936)
(0.0121417 0.0146873 -0.012465)
(0.0127647 0.0127648 -0.00728503)
(0.0149911 0.00991827 -0.00216442)
(0.00947931 0.00802685 0.00376954)
(0.00352388 0.0199085 -0.00911122)
(0.00905025 0.0169373 -0.0057399)
(0.00991821 0.0149912 -0.00216456)
(0.0121978 0.0121978 0.00137674)
(0.00812609 0.0100791 0.00596159)
(0.00227581 0.011376 -0.000962635)
(0.00722572 0.0100943 0.00082659)
(0.00802674 0.00947958 0.00376973)
(0.010079 0.00812633 0.00596187)
(0.00727523 0.00727547 0.00987105)
(0.0134777 0.0134774 -0.0855198)
(0.0275272 0.0106752 -0.0510884)
(0.0269066 0.00755533 -0.0358146)
(0.0287256 0.00515641 -0.0161219)
(0.0165538 0.00299584 -0.00414209)
(0.0106757 0.0275272 -0.051089)
(0.0216226 0.0216222 -0.0322249)
(0.0213833 0.0174216 -0.0228705)
(0.024162 0.0127973 -0.00942297)
(0.0143164 0.0095245 -0.000467031)
(0.00755554 0.0269072 -0.0358146)
(0.0174216 0.0213835 -0.0228699)
(0.0180755 0.018076 -0.0147032)
(0.0208264 0.0136658 -0.00470441)
(0.0131493 0.0104899 0.0034434)
(0.0051568 0.0287258 -0.0161223)
(0.0127975 0.0241621 -0.0094229)
(0.0136656 0.0208267 -0.00470471)
(0.0165744 0.0165746 0.00154745)
(0.0110035 0.0132625 0.00708633)
(0.00299597 0.0165545 -0.0041422)
(0.00952454 0.014317 -0.000466532)
(0.0104895 0.0131498 0.0034434)
(0.0132623 0.0110039 0.00708659)
(0.00969099 0.00969142 0.0118292)
(0.0440369 0.0440365 -0.116656)
(0.0681889 0.0257161 -0.0682979)
(0.0529483 0.0181934 -0.0415138)
(0.0515873 0.0102234 -0.01498)
(0.0238711 0.00593431 0.00129794)
(0.0257169 0.0681886 -0.0683002)
(0.0424513 0.0424511 -0.0354577)
(0.0374976 0.0332503 -0.0231374)
(0.0393445 0.0204658 -0.00510809)
(0.0194619 0.0148107 0.00544881)
(0.018194 0.0529487 -0.0415131)
(0.0332505 0.0374977 -0.0231359)
(0.0309331 0.0309335 -0.0118815)
(0.033143 0.0208887 0.000489246)
(0.0179862 0.0155785 0.010059)
(0.010224 0.0515873 -0.0149807)
(0.0204661 0.0393444 -0.00510788)
(0.0208886 0.0331431 0.000488827)
(0.0239919 0.0239919 0.00781625)
(0.0139303 0.0184677 0.0138951)
(0.00593477 0.0238717 0.00129845)
(0.014811 0.0194626 0.00544995)
(0.0155782 0.0179867 0.0100594)
(0.0184676 0.0139308 0.0138956)
(0.012233 0.0122335 0.0191162)
(0.0626317 0.0626308 -0.309679)
(0.102387 0.0436285 -0.1327)
(0.0802563 0.0259112 -0.0744203)
(0.0715227 0.0149987 -0.0198678)
(0.0336204 0.00711654 0.00114768)
(0.0436289 0.102387 -0.132702)
(0.0667084 0.0667072 -0.0594568)
(0.051756 0.0470231 -0.0355283)
(0.0527463 0.0282601 -0.00434334)
(0.0254593 0.018284 0.00817663)
(0.0259115 0.0802585 -0.0744198)
(0.0470224 0.0517565 -0.0355264)
(0.0417081 0.0417097 -0.0179971)
(0.0427719 0.0265947 0.00247662)
(0.0232195 0.0189341 0.0134427)
(0.0149993 0.0715226 -0.0198683)
(0.0282606 0.052746 -0.0043435)
(0.0265943 0.0427725 0.00247603)
(0.0299829 0.0299831 0.0129948)
(0.0174213 0.0223252 0.0188975)
(0.00711685 0.0336222 0.00114713)
(0.0182839 0.0254608 0.00817748)
(0.0189331 0.0232208 0.0134426)
(0.0223246 0.0174223 0.0188979)
(0.0151964 0.0151974 0.0236983)
(0.227891 0.227892 -0.473897)
(0.305099 0.10013 -0.185591)
(0.165933 0.0571779 -0.0889717)
(0.127113 0.0257723 -0.00749597)
(0.0459578 0.0129052 0.016621)
(0.100131 0.305099 -0.185597)
(0.139479 0.139479 -0.038348)
(0.0926535 0.0895876 -0.0230132)
(0.0830373 0.0427844 0.0147642)
(0.0326906 0.0271002 0.0240262)
(0.0571796 0.165935 -0.0889682)
(0.0895874 0.0926534 -0.0230094)
(0.0689618 0.0689636 -0.00253818)
(0.0645802 0.0382394 0.0190891)
(0.0295278 0.0262955 0.0289137)
(0.0257733 0.127112 -0.00749701)
(0.0427847 0.0830361 0.0147643)
(0.0382395 0.0645801 0.0190881)
(0.0404115 0.0404113 0.0289163)
(0.0201891 0.0287211 0.0326309)
(0.0129065 0.0459583 0.0166218)
(0.0271009 0.0326923 0.0240277)
(0.0262947 0.0295288 0.028914)
(0.0287212 0.0201899 0.0326315)
(0.0173194 0.0173202 0.0365449)
(0.524364 0.5244 -1.41529)
(0.666164 0.195398 -0.385007)
(0.254818 0.0929015 -0.034005)
(0.176947 0.0373326 0.0272205)
(0.0592608 0.0144379 0.0397485)
(0.19539 0.666147 -0.384999)
(0.246078 0.246068 -0.0504988)
(0.104567 0.133156 0.00696858)
(0.0997572 0.0547769 0.0398678)
(0.0355788 0.0305659 0.0424835)
(0.0929009 0.254818 -0.0340027)
(0.133152 0.104567 0.00697773)
(0.083853 0.0838573 0.0294185)
(0.0742208 0.0407695 0.0410124)
(0.0337379 0.0275449 0.0448562)
(0.0373334 0.176944 0.0272197)
(0.0547774 0.0997546 0.0398658)
(0.0407689 0.0742218 0.0410108)
(0.0435313 0.0435312 0.0459451)
(0.0215089 0.0299618 0.0456184)
(0.0144388 0.0592645 0.0397475)
(0.0305653 0.0355816 0.0424853)
(0.0275431 0.0337406 0.0448557)
(0.0299609 0.0215105 0.0456188)
(0.0194153 0.0194169 0.0456208)
(0.165888 0.165834 -7.35902)
(1.92819 0.367801 -0.240671)
(0.297076 0.099122 0.17988)
(0.196455 0.0386939 0.111333)
(0.0598559 0.0155251 0.0873211)
(0.367888 1.92812 -0.240634)
(0.374046 0.374121 0.132881)
(0.13365 0.150112 0.128516)
(0.118128 0.0562731 0.0914712)
(0.036002 0.032187 0.0782598)
(0.0991292 0.297068 0.179869)
(0.150111 0.133659 0.128517)
(0.102744 0.102754 0.106569)
(0.0799571 0.0442923 0.0841178)
(0.0338978 0.02944 0.0729337)
(0.0386932 0.196451 0.111332)
(0.0562725 0.118119 0.0914699)
(0.0442944 0.0799565 0.0841171)
(0.0449896 0.0449882 0.0733067)
(0.0201048 0.0294871 0.0659762)
(0.0155292 0.059856 0.0873174)
(0.0321882 0.0360075 0.0782588)
(0.0294378 0.0338998 0.0729326)
(0.0294876 0.020106 0.065976)
(0.0174931 0.0174943 0.0615422)
(0.00418691 0.00412311 -7.45869)
(0.703986 0.0614289 -1.15818)
(0.0998899 0.0417704 0.345159)
(0.0753704 0.017892 0.164168)
(0.0360892 0.00530629 0.122913)
(0.0612153 0.704065 -1.15804)
(0.0248546 0.0248292 0.588608)
(0.0546147 0.0533487 0.223421)
(0.048746 0.027566 0.129852)
(0.0226535 0.0161989 0.103506)
(0.041779 0.0998909 0.345147)
(0.0533564 0.0546154 0.223412)
(0.0387733 0.0387776 0.166259)
(0.0405609 0.0226734 0.114493)
(0.022738 0.0152642 0.0910399)
(0.0178949 0.075375 0.164167)
(0.0275672 0.0487417 0.129853)
(0.0226741 0.0405606 0.114494)
(0.0253816 0.0253807 0.0912614)
(0.0141414 0.0185814 0.0777736)
(0.0053095 0.0360905 0.122907)
(0.0162008 0.0226566 0.103502)
(0.0152633 0.0227401 0.0910379)
(0.0185816 0.0141428 0.0777723)
(0.014908 0.0149094 0.0680506)
(-0.12075 -0.120805 -7.46964)
(-0.379553 -0.137245 -0.260939)
(0.00602715 -0.0241919 0.202642)
(-0.0241717 0.00467432 0.129857)
(0.0175532 -0.00382794 0.113945)
(-0.137243 -0.379536 -0.260926)
(-0.0808368 -0.0808504 0.16192)
(0.000813725 -0.028634 0.158678)
(0.00143748 0.00747968 0.119365)
(0.00909853 0.000382552 0.102079)
(-0.0241807 0.00602441 0.202638)
(-0.0286243 0.000811399 0.158675)
(-0.00323375 -0.00323247 0.140366)
(0.00524201 0.00604781 0.109984)
(0.00986688 0.00375149 0.0931948)
(0.00467745 -0.0241697 0.12986)
(0.00748059 0.00143336 0.119365)
(0.00604845 0.00523934 0.109985)
(0.00848153 0.00847977 0.0950456)
(0.00623125 0.00654256 0.0828663)
(-0.00382331 0.017548 0.11394)
(0.000387522 0.00909802 0.102075)
(0.00375253 0.00986584 0.0931928)
(0.00654524 0.00623115 0.0828647)
(0.00744858 0.00744848 0.0727395)
(0.20761 0.2076 -6.48072)
(0.109717 0.0295189 -0.745327)
(0.0625149 -0.0143033 0.0895261)
(-0.0115099 0.00656983 0.120404)
(0.0172008 -0.00690284 0.0839669)
(0.0294818 0.10962 -0.74534)
(0.0177526 0.017731 0.0408855)
(0.00776527 -0.011308 0.107341)
(-0.00564541 0.00754942 0.10977)
(0.00366392 -0.00472079 0.0813911)
(-0.0142918 0.0624978 0.0895232)
(-0.011296 0.00776352 0.107338)
(-0.00761383 -0.00761222 0.102886)
(-0.00673232 -0.00168055 0.0944206)
(0.00446409 -0.00405033 0.0767361)
(0.00657295 -0.0115056 0.120406)
(0.00754886 -0.00564965 0.109771)
(-0.00167961 -0.0067346 0.0944214)
(-0.00172864 -0.00173012 0.0855086)
(0.00108535 -0.00190971 0.0709335)
(-0.00689831 0.017194 0.0839644)
(-0.0047157 0.00366357 0.0813884)
(-0.00404922 0.00446311 0.0767349)
(-0.00190743 0.00108521 0.0709324)
(0.00413868 0.00413853 0.0629692)
(0.00542156 0.00540518 -7.3537)
(1.7775 0.124898 -0.000995355)
(-0.0580388 -0.0130197 0.226828)
(-0.0340354 -0.00643851 0.161903)
(-0.0212617 -0.00659292 0.105324)
(0.124842 1.77745 -0.000941254)
(-0.0121522 -0.0121543 0.426471)
(-0.0536563 -0.0189816 0.182984)
(-0.0255054 -0.0188339 0.134127)
(-0.021222 -0.00663127 0.0964978)
(-0.0130099 -0.0580569 0.226831)
(-0.0189686 -0.0536661 0.182979)
(-0.0171752 -0.0171765 0.139375)
(-0.0211098 -0.0184 0.111946)
(-0.00911122 -0.00662238 0.0849796)
(-0.0064351 -0.0340333 0.161902)
(-0.018834 -0.025509 0.134127)
(-0.0184002 -0.0211137 0.111947)
(-0.0151021 -0.0151041 0.0949398)
(-0.00930305 -0.00723141 0.0773968)
(-0.00658815 -0.0212715 0.105323)
(-0.00662504 -0.0212261 0.0964948)
(-0.00661979 -0.00911438 0.0849786)
(-0.0072275 -0.0093043 0.0773953)
(-0.00111959 -0.00112085 0.0654819)
(-0.0284916 -0.0285077 -7.38131)
(-0.906205 -0.167868 -0.182038)