/*--------------------------------*- C++ -*----------------------------------*\
| =========                 |                                                 |
| \\      /  F ield         | OpenFOAM: The Open Source CFD Toolbox           |
|  \\    /   O peration     | Version:  5.x                                   |
|   \\  /    A nd           | Web:      www.OpenFOAM.org                      |
|    \\/     M anipulation  |                                                 |
\*---------------------------------------------------------------------------*/
FoamFile
{
    version     2.0;
    format      ascii;
    class       volScalarField;
    location    "0.1";
    object      p;
}
// * * * * * * * * * * * * * * * * * * * * * * * * * * * * * * * * * * * * * //

dimensions      [0 2 -2 0 0 0 0];

internalField   nonuniform List<scalar> 
160
(
-2.25274e-07
-1.71708e-07
-1.70812e-07
-1.70307e-07
-6.48484e-07
-4.96016e-07
-5.09039e-07
-5.10407e-07
-1.0417e-06
-7.77613e-07
-8.49401e-07
-8.70218e-07
-1.43155e-06
-1.53277e-06
-1.3648e-06
-1.2637e-06
-1.31211e-06
-7.07282e-07
-9.48057e-07
-1.48012e-06
-1.00349e-06
-2.42885e-06
-1.85547e-06
-2.06198e-06
-3.41116e-07
-3.48804e-06
-2.778e-06
-2.69937e-06
-2.0373e-06
-2.08634e-06
-2.37685e-06
-2.23554e-06
-2.96637e-06
-3.11861e-06
-3.1586e-06
-2.91152e-06
-3.46516e-06
-3.76425e-06
-3.70093e-06
-3.44684e-06
-1.71708e-07
9.68832e-08
1.91043e-08
-1.06632e-09
-4.96016e-07
6.02233e-07
2.1109e-07
4.31155e-08
-7.77613e-07
1.93211e-06
7.77841e-07
2.16055e-07
-1.53277e-06
4.816e-06
2.07266e-06
5.83081e-07
-7.07282e-07
2.20039e-05
1.0595e-05
1.68208e-06
-2.42885e-06
4.12941e-06
4.93369e-07
-2.99729e-07
-3.48804e-06
-2.62799e-05
-1.27215e-05
-4.25766e-06
-2.08634e-06
-1.05889e-05
-7.08994e-06
-4.45514e-06
-3.11861e-06
-5.22151e-06
-4.42519e-06
-4.16688e-06
-3.76425e-06
-5.84033e-06
-4.76284e-06
-4.72649e-06
-1.70812e-07
1.91043e-08
-1.04182e-08
-2.10754e-08
-5.09039e-07
2.1109e-07
5.79876e-08
-5.76782e-08
-8.49401e-07
7.77841e-07
3.56869e-07
-4.80838e-08
-1.3648e-06
2.07266e-06
1.04166e-06
-2.49575e-08
-9.48057e-07
1.0595e-05
6.66399e-06
4.38344e-07
-1.85547e-06
4.93369e-07
-3.21304e-07
-1.17906e-06
-2.778e-06
-1.27215e-05
-9.04503e-06
-3.86169e-06
-2.37685e-06
-7.08994e-06
-5.82906e-06
-3.46079e-06
-3.1586e-06
-4.42519e-06
-4.00415e-06
-3.75812e-06
-3.70093e-06
-4.76284e-06
-4.42018e-06
-4.28642e-06
-1.70307e-07
-1.06632e-09
-2.10754e-08
-1.43134e-09
-5.10407e-07
4.31155e-08
-5.76782e-08
-3.37193e-08
-8.70218e-07
2.16055e-07
-4.80838e-08
-5.74019e-08
-1.2637e-06
5.83081e-07
-2.49575e-08
-1.0644e-07
-1.48012e-06
1.68208e-06
4.38344e-07
-1.47845e-07
-2.06198e-06
-2.99729e-07
-1.17906e-06
-1.0508e-06
-2.69937e-06
-4.25766e-06
-3.86169e-06
-2.45059e-06
-2.23554e-06
-4.45514e-06
-3.46079e-06
-3.4881e-06
-2.91152e-06
-4.16688e-06
-3.75812e-06
-4.0017e-06
-3.44684e-06
-4.72649e-06
-4.28642e-06
-4.38856e-06
)
;

boundaryField
{
    inlet
    {
        type            zeroGradient;
    }
    outlet
    {
        type            totalPressure;
        rho             rho;
        psi             none;
        gamma           1;
        p0              uniform 0;
        value           nonuniform List<scalar> 
16
(
-1.52811e-12
-7.14587e-13
-4.39718e-13
-4.94781e-13
-7.14587e-13
0
0
0
-4.39718e-13
0
0
0
-4.94781e-13
0
0
0
)
;
    }
    walls
    {
        type            zeroGradient;
    }
    procBoundary0to1
    {
        type            processor;
        value           nonuniform List<scalar> 
16
(
-3.83021e-06
-3.88323e-06
-3.92101e-06
-3.69484e-06
-3.88323e-06
-5.22939e-06
-4.66507e-06
-4.62264e-06
-3.92101e-06
-4.66507e-06
-4.54552e-06
-4.41922e-06
-3.69484e-06
-4.62264e-06
-4.41922e-06
-4.49348e-06
)
;
    }
}


// ************************************************************************* //
