/*--------------------------------*- C++ -*----------------------------------*\
| =========                 |                                                 |
| \\      /  F ield         | OpenFOAM: The Open Source CFD Toolbox           |
|  \\    /   O peration     | Version:  5.x                                   |
|   \\  /    A nd           | Web:      www.OpenFOAM.org                      |
|    \\/     M anipulation  |                                                 |
\*---------------------------------------------------------------------------*/
FoamFile
{
    version     2.0;
    format      ascii;
    class       surfaceScalarField;
    location    "0.1";
    object      phi;
}
// * * * * * * * * * * * * * * * * * * * * * * * * * * * * * * * * * * * * * //

dimensions      [0 3 -1 0 0 0 0];

internalField   nonuniform List<scalar> 
384
(
-2.25913e-12
1.17169e-11
-2.25913e-12
-8.73801e-13
2.90147e-12
-7.53839e-12
1.80763e-14
3.13084e-12
-6.19697e-12
5.43084e-12
-5.67474e-12
-6.96776e-12
1.46829e-11
-6.96776e-12
-2.10876e-12
2.62392e-12
-2.89672e-11
9.01695e-13
4.36485e-12
-2.24036e-11
9.32039e-12
-1.8105e-11
-1.3365e-11
1.94296e-11
-1.3365e-11
-2.83888e-12
1.03955e-12
-7.1924e-11
3.64627e-12
6.01235e-12
-5.13781e-11
1.64937e-11
-3.64309e-11
-1.90936e-11
2.10308e-11
-1.90936e-11
-4.60106e-12
2.48269e-12
-1.76952e-10
8.34998e-12
7.19188e-12
-1.15757e-10
2.70328e-11
-6.50171e-11
-3.63291e-11
2.76092e-11
-3.63291e-11
8.95947e-13
1.61469e-11
-4.6275e-10
2.64859e-11
2.21126e-11
-2.78482e-10
4.62952e-11
-1.05583e-10
-2.02451e-11
8.89966e-12
-2.02451e-11
-9.93121e-13
-6.57144e-11
-6.43403e-10
2.76035e-11
-1.74698e-11
-3.67314e-10
4.94323e-11
-1.31932e-10
1.65336e-11
4.1886e-12
1.65336e-11
-8.81658e-13
-2.50007e-10
-2.3335e-10
1.00359e-11
-1.12687e-10
-1.60999e-10
2.01448e-11
-7.91009e-11
5.38411e-12
5.58257e-12
5.38411e-12
1.56779e-11
-2.57291e-10
1.30296e-10
2.16496e-11
-1.20714e-10
3.33965e-11
1.81507e-11
-2.95578e-12
-7.85187e-12
2.10246e-11
-7.85187e-12
6.20161e-12
-1.89792e-10
3.15245e-10
3.05631e-11
-8.14277e-11
1.09215e-10
2.14993e-11
6.1429e-11
3.92049e-11
3.92049e-11
3.30162e-12
5.07196e-10
-2.45074e-11
3.16103e-10
1.24017e-10
-7.53839e-12
2.90147e-12
-8.73801e-13
-1.32952e-12
-4.22833e-11
-1.32952e-12
9.32352e-13
-2.88731e-11
-1.79369e-12
-1.90357e-11
-2.19475e-12
-2.89672e-11
2.62392e-12
-2.10876e-12
-2.65762e-12
-9.49025e-11
-2.65762e-12
7.65552e-12
-5.72435e-11
-4.34625e-12
-2.80806e-11
-5.39794e-12
-7.1924e-11
1.03955e-12
-2.83888e-12
-1.06405e-12
-2.36622e-10
-1.06405e-12
2.79286e-11
-1.31922e-10
-5.6926e-12
-4.30607e-11
-8.26691e-12
-1.76952e-10
2.48269e-12
-4.60106e-12
1.66487e-11
-6.23823e-10
1.66487e-11
9.13455e-11
-3.19069e-10
-3.30665e-12
-5.68329e-11
-9.26771e-12
-4.6275e-10
1.61469e-11
8.95947e-13
1.10166e-10
-1.76965e-09
1.10166e-10
2.99489e-10
-8.13712e-10
2.68376e-11
-1.21771e-11
-7.32296e-12
-6.43403e-10
-6.57144e-11
-9.93121e-13
1.54865e-10
-3.36619e-09
1.54865e-10
4.59135e-10
-1.52252e-09
3.72273e-11
6.12373e-11
-3.92032e-12
-2.3335e-10
-2.50007e-10
-8.81658e-13
1.1146e-11
-3.85518e-09
1.1146e-11
2.29175e-10
-1.90023e-09
-1.32201e-12
6.83398e-11
-9.16819e-12
1.30296e-10
-2.57291e-10
1.56779e-11
-6.39848e-11
-3.46662e-09
-6.39848e-11
-8.41525e-11
-1.83075e-09
-1.59183e-11
2.23027e-11
-1.64426e-11
3.15245e-10
-1.89792e-10
6.20161e-12
-9.14713e-11
-2.65319e-09
-9.14713e-11
-1.96656e-10
-1.56351e-09
-5.28389e-11
-4.62369e-11
-6.82102e-12
5.07196e-10
3.30162e-12
-9.77833e-11
-9.77833e-11
-3.71018e-10
-2.63175e-11
1.67136e-12
-6.19697e-12
3.13084e-12
1.80763e-14
-1.79369e-12
-2.88731e-11
9.32352e-13
2.14729e-13
-2.35853e-11
2.14729e-13
-1.61017e-11
-9.06117e-13
-2.24036e-11
4.36485e-12
9.01695e-13
-4.34625e-12
-5.72435e-11
7.65552e-12
4.48078e-12
-4.12394e-11
4.48078e-12
-1.92692e-11
-3.72205e-13
-5.13781e-11
6.01235e-12
3.64627e-12
-5.6926e-12
-1.31922e-10
2.79286e-11
1.7742e-11
-8.81086e-11
1.7742e-11
-2.28911e-11
2.39611e-12
-1.15757e-10
7.19188e-12
8.34998e-12
-3.30665e-12
-3.19069e-10
9.13455e-11
5.81832e-11
-2.11088e-10
5.81832e-11
-2.10205e-11
1.13496e-11
-2.78482e-10
2.21126e-11
2.64859e-11
2.68376e-11
-8.13712e-10
2.99489e-10
1.89881e-10
-5.37176e-10
1.89881e-10
1.70474e-11
3.10259e-11
-3.67314e-10
-1.74698e-11
2.76035e-11
3.72273e-11
-1.52252e-09
4.59135e-10
2.79199e-10
-1.02112e-09
2.79199e-10
5.71676e-11
4.33398e-11
-1.60999e-10
-1.12687e-10
1.00359e-11
-1.32201e-12
-1.90023e-09
2.29175e-10
1.47333e-10
-1.31843e-09
1.47333e-10
3.60355e-11
2.22491e-11
3.33965e-11
-1.20714e-10
2.16496e-11
-1.59183e-11
-1.83075e-09
-8.41525e-11
-1.40732e-11
-1.32212e-09
-1.40732e-11
6.54857e-12
-6.37226e-12
1.09215e-10
-8.14277e-11
3.05631e-11
-5.28389e-11
-1.56351e-09
-1.96656e-10
-2.61191e-11
-1.37556e-09
-2.61191e-11
-5.87302e-11
-1.72741e-11
3.16103e-10
-2.45074e-11
-2.63175e-11
-3.71018e-10
-2.331e-10
-2.331e-10
-5.04798e-11
-5.67474e-12
5.43084e-12
-2.19475e-12
-1.90357e-11
-9.06117e-13
-1.61017e-11
-1.52416e-11
-1.8105e-11
9.32039e-12
-5.39794e-12
-2.80806e-11
-3.72205e-13
-1.92692e-11
-1.45663e-11
-3.64309e-11
1.64937e-11
-8.26691e-12
-4.30607e-11
2.39611e-12
-2.28911e-11
-1.07137e-11
-6.50171e-11
2.70328e-11
-9.26771e-12
-5.68329e-11
1.13496e-11
-2.10205e-11
1.6614e-12
-1.05583e-10
4.62952e-11
-7.32296e-12
-1.21771e-11
3.10259e-11
1.70474e-11
3.33399e-11
-1.31932e-10
4.94323e-11
-3.92032e-12
6.12373e-11
4.33398e-11
5.71676e-11
7.55749e-11
-7.91009e-11
2.01448e-11
-9.16819e-12
6.83398e-11
2.22491e-11
3.60355e-11
9.93482e-11
-2.95578e-12
1.81507e-11
-1.64426e-11
2.23027e-11
-6.37226e-12
6.54857e-12
9.96712e-11
6.1429e-11
2.14993e-11
-6.82102e-12
-4.62369e-11
-1.72741e-11
-5.87302e-11
6.89242e-11
1.24017e-10
1.67136e-12
-5.04798e-11
)
;

boundaryField
{
    inlet
    {
        type            calculated;
        value           nonuniform 0();
    }
    outlet
    {
        type            calculated;
        value           nonuniform List<scalar> 
16
(
-1.06615e-11
-2.97984e-12
-2.76255e-12
-4.19321e-12
-2.97984e-12
2.98655e-11
2.22079e-11
1.60523e-11
-2.76255e-12
2.22079e-11
1.95685e-11
1.496e-11
-4.19321e-12
1.60523e-11
1.496e-11
1.48397e-11
)
;
    }
    walls
    {
        type            calculated;
        value           nonuniform List<scalar> 
160
(
1.7314e-12
5.48476e-12
1.09916e-11
1.8293e-11
3.30399e-11
2.95998e-11
-1.41781e-11
-6.0811e-12
1.30866e-13
-4.35818e-11
6.23145e-12
2.43858e-11
6.29823e-11
1.61016e-10
4.11861e-10
7.06013e-10
4.35057e-10
-1.33306e-10
-3.96797e-10
-5.78015e-10
4.9368e-12
1.81591e-11
4.32455e-11
1.01627e-10
2.37971e-10
3.783e-10
2.45298e-10
-3.13412e-11
-1.72862e-10
-3.37197e-10
4.38225e-12
1.43458e-11
3.00686e-11
5.62996e-11
9.46115e-11
1.33868e-10
1.00057e-10
6.23624e-12
-6.84098e-11
-1.29331e-10
7.2947e-14
7.71338e-13
2.83522e-12
6.52842e-12
1.81948e-11
2.25305e-11
1.83668e-11
2.03632e-11
3.41952e-11
-1.79037e-11
4.35699e-13
3.99342e-12
1.47447e-11
4.93683e-11
1.56573e-10
2.57709e-10
1.5214e-10
-2.46285e-11
-5.98666e-11
-2.0968e-10
6.78715e-14
2.62253e-12
1.07009e-11
3.56953e-11
1.13465e-10
1.91819e-10
1.37048e-10
5.34344e-12
4.96128e-11
-1.59379e-10
-7.0521e-13
-7.09831e-13
4.69826e-13
5.16202e-12
1.51866e-11
2.22223e-11
1.03625e-11
-6.53374e-12
-1.90065e-12
-2.80754e-11
1.7314e-12
5.48476e-12
1.09916e-11
1.8293e-11
3.30399e-11
2.95998e-11
-1.41781e-11
-6.0811e-12
1.30866e-13
-4.35818e-11
6.23145e-12
2.43858e-11
6.29823e-11
1.61016e-10
4.11861e-10
7.06013e-10
4.35057e-10
-1.33306e-10
-3.96797e-10
-5.78015e-10
4.9368e-12
1.81591e-11
4.32455e-11
1.01627e-10
2.37971e-10
3.783e-10
2.45298e-10
-3.13412e-11
-1.72862e-10
-3.37197e-10
4.38225e-12
1.43458e-11
3.00686e-11
5.62996e-11
9.46115e-11
1.33868e-10
1.00057e-10
6.23624e-12
-6.84098e-11
-1.29331e-10
7.2947e-14
7.71338e-13
2.83522e-12
6.52842e-12
1.81948e-11
2.25305e-11
1.83668e-11
2.03632e-11
3.41952e-11
-1.79037e-11
4.35699e-13
3.99342e-12
1.47447e-11
4.93683e-11
1.56573e-10
2.57709e-10
1.5214e-10
-2.46285e-11
-5.98666e-11
-2.0968e-10
6.78715e-14
2.62253e-12
1.07009e-11
3.56953e-11
1.13465e-10
1.91819e-10
1.37048e-10
5.34344e-12
4.96128e-11
-1.59379e-10
-7.0521e-13
-7.09831e-13
4.69826e-13
5.16202e-12
1.51866e-11
2.22223e-11
1.03625e-11
-6.53374e-12
-1.90065e-12
-2.80754e-11
)
;
    }
    procBoundary0to1
    {
        type            processor;
        value           nonuniform List<scalar> 
16
(
2.97785e-11
-8.30704e-11
-3.25249e-11
2.02098e-11
-8.30704e-11
-1.44323e-09
-9.47854e-10
-8.52293e-11
-3.25249e-11
-9.47854e-10
-9.61995e-10
-8.02995e-11
2.02098e-11
-8.52293e-11
-8.02995e-11
2.41154e-11
)
;
    }
}


// ************************************************************************* //
