/*--------------------------------*- C++ -*----------------------------------*\
| =========                 |                                                 |
| \\      /  F ield         | OpenFOAM: The Open Source CFD Toolbox           |
|  \\    /   O peration     | Version:  5.x                                   |
|   \\  /    A nd           | Web:      www.OpenFOAM.org                      |
|    \\/     M anipulation  |                                                 |
\*---------------------------------------------------------------------------*/
FoamFile
{
    version     2.0;
    format      ascii;
    class       volVectorField;
    location    "0.1";
    object      U;
}
// * * * * * * * * * * * * * * * * * * * * * * * * * * * * * * * * * * * * * //

dimensions      [0 1 -1 0 0 0 0];

internalField   nonuniform List<vector> 
160
(
(-2.87618e-07 1.70043e-06 -2.87618e-07)
(-3.20382e-07 4.7299e-07 -1.05024e-06)
(-7.55494e-09 4.41336e-07 -8.27511e-07)
(1.15716e-08 6.70812e-07 -7.34633e-07)
(-9.0767e-07 1.99663e-06 -9.0767e-07)
(-9.48072e-07 4.16877e-07 -4.11894e-06)
(1.31978e-07 5.39378e-07 -3.04789e-06)
(1.23684e-07 1.07869e-06 -2.40464e-06)
(-1.81081e-06 2.61979e-06 -1.81081e-06)
(-1.76017e-06 5.91984e-07 -1.06131e-05)
(6.04868e-07 8.85585e-07 -7.24112e-06)
(4.57745e-07 1.87274e-06 -5.02549e-06)
(-2.90689e-06 2.96632e-06 -2.90689e-06)
(-2.72315e-06 -6.6562e-07 -2.70182e-05)
(1.40774e-06 4.73593e-07 -1.69402e-05)
(1.02458e-06 3.13086e-06 -9.37263e-06)
(-5.40581e-06 4.30384e-06 -5.40581e-06)
(-4.30744e-06 2.44877e-06 -7.03888e-05)
(4.44558e-06 2.79933e-06 -4.03582e-05)
(3.01623e-06 5.62122e-06 -1.57623e-05)
(-4.45459e-06 3.33999e-06 -4.45459e-06)
(-4.21683e-06 5.28622e-07 -0.000114259)
(4.44846e-06 2.51944e-06 -6.09924e-05)
(3.64566e-06 7.79846e-06 -2.17669e-05)
(2.88983e-06 7.0423e-07 2.88983e-06)
(-1.1234e-08 -2.62922e-05 -6.51021e-05)
(6.16669e-07 -9.59889e-06 -3.72813e-05)
(2.92316e-06 5.91851e-06 -1.57015e-05)
(9.8266e-07 1.83232e-08 9.8266e-07)
(8.06664e-07 -4.89387e-05 2.30107e-05)
(3.44062e-06 -2.43039e-05 5.94676e-06)
(3.2302e-06 2.02154e-06 -5.5949e-07)
(9.1255e-09 1.57839e-06 9.1255e-09)
(-2.01692e-06 -4.33842e-05 6.39035e-05)
(3.57169e-06 -1.94989e-05 2.79085e-05)
(5.42245e-06 2.65621e-06 1.11935e-05)
(7.03215e-06 4.42437e-06 7.03215e-06)
(5.74335e-06 -2.38001e-05 9.28929e-05)
(-4.78621e-06 -1.00608e-05 5.41615e-05)
(-2.91476e-06 3.26716e-06 2.09456e-05)
(-1.05024e-06 4.7299e-07 -3.20382e-07)
(-8.68931e-07 -4.84031e-06 -8.68931e-07)
(2.63372e-07 -3.58378e-06 -7.95225e-07)
(7.37076e-08 -2.57755e-06 -7.50047e-07)
(-4.11894e-06 4.16877e-07 -9.48072e-07)
(-3.11156e-06 -9.53049e-06 -3.11156e-06)
(1.72774e-06 -6.19614e-06 -2.71845e-06)
(6.7217e-07 -3.42313e-06 -2.27159e-06)
(-1.06131e-05 5.91984e-07 -1.76017e-06)
(-7.2268e-06 -2.2989e-05 -7.2268e-06)
(6.0035e-06 -1.34828e-05 -5.93261e-06)
(2.47027e-06 -5.29998e-06 -4.35869e-06)
(-2.70182e-05 -6.6562e-07 -2.72315e-06)
(-1.67661e-05 -6.2164e-05 -1.67661e-05)
(1.88336e-05 -3.37061e-05 -1.2626e-05)
(8.19354e-06 -7.86978e-06 -7.32958e-06)
(-7.03888e-05 2.44877e-06 -4.30744e-06)
(-3.92221e-05 -9.8905e-05 -3.92221e-05)
(5.91759e-05 -4.83262e-05 -2.83096e-05)
(2.68143e-05 -7.22271e-06 -1.12606e-05)
(-0.000114259 5.28622e-07 -4.21683e-06)
(-6.05669e-05 -0.000452305 -6.05669e-05)
(9.79758e-05 -0.000215781 -4.24156e-05)
(4.13902e-05 2.47531e-06 -1.40344e-05)
(-6.51021e-05 -2.62922e-05 -1.1234e-08)
(-3.96379e-05 -0.000584612 -3.96379e-05)
(5.14103e-05 -0.000293048 -2.93116e-05)
(2.26686e-05 1.20512e-05 -1.00966e-05)
(2.30107e-05 -4.89387e-05 8.06664e-07)
(6.26489e-06 -0.000539896 6.26489e-06)
(-1.95109e-05 -0.000287499 5.28584e-07)
(-4.46168e-06 7.25761e-06 -1.54177e-06)
(6.39035e-05 -4.33842e-05 -2.01692e-06)
(2.49996e-05 -0.000491104 2.49996e-05)
(-4.94325e-05 -0.000264329 2.69614e-06)
(-9.62974e-06 -1.46825e-06 5.12158e-06)
(9.28929e-05 -2.38001e-05 5.74335e-06)
(5.25493e-05 -0.000322629 5.25493e-05)
(-7.83294e-05 -0.000221406 3.79683e-05)
(-3.3556e-05 -1.63061e-05 1.35604e-05)
(-8.27511e-07 4.41336e-07 -7.55494e-09)
(-7.95225e-07 -3.58378e-06 2.63372e-07)
(6.39036e-08 -3.14866e-06 6.39036e-08)
(1.29706e-08 -2.39469e-06 -1.183e-07)
(-3.04789e-06 5.39378e-07 1.31978e-07)
(-2.71845e-06 -6.19614e-06 1.72774e-06)
(8.44431e-07 -4.81752e-06 8.44431e-07)
(4.42482e-07 -2.66699e-06 5.93745e-08)
(-7.24112e-06 8.85585e-07 6.04868e-07)
(-5.93261e-06 -1.34828e-05 6.0035e-06)
(3.26746e-06 -9.30494e-06 3.26746e-06)
(1.79224e-06 -3.26529e-06 8.35236e-07)
(-1.69402e-05 4.73593e-07 1.40774e-06)
(-1.2626e-05 -3.37061e-05 1.88336e-05)
(1.06165e-05 -2.25403e-05 1.06165e-05)
(5.9222e-06 -3.85303e-06 3.0715e-06)
(-4.03582e-05 2.79933e-06 4.44558e-06)
(-2.83096e-05 -4.83262e-05 5.91759e-05)
(3.23553e-05 -3.13944e-05 3.23553e-05)
(1.93856e-05 -1.21426e-06 7.38156e-06)
(-6.09924e-05 2.51944e-06 4.44846e-06)
(-4.24156e-05 -0.000215781 9.79758e-05)
(5.14303e-05 -0.00014496 5.14303e-05)
(3.08606e-05 5.58039e-06 1.18203e-05)
(-3.72813e-05 -9.59889e-06 6.16669e-07)
(-2.93116e-05 -0.000293048 5.14103e-05)
(3.12876e-05 -0.000198978 3.12876e-05)
(2.09026e-05 8.45969e-06 7.64352e-06)
(5.94676e-06 -2.43039e-05 3.44062e-06)
(5.28584e-07 -0.000287499 -1.95109e-05)
(-3.48019e-06 -0.000207566 -3.48019e-06)
(3.86554e-07 2.84119e-06 -1.60519e-06)
(2.79085e-05 -1.94989e-05 3.57169e-06)
(2.69614e-06 -0.000264329 -4.94325e-05)
(-1.69071e-05 -0.000191195 -1.69071e-05)
(7.88939e-06 -1.49858e-06 -6.26408e-06)
(5.41615e-05 -1.00608e-05 -4.78621e-06)
(3.79683e-05 -0.000221406 -7.83294e-05)
(-4.46741e-05 -0.000232372 -4.46741e-05)
(-2.55271e-05 -2.01951e-05 -1.25782e-05)
(-7.34633e-07 6.70812e-07 1.15716e-08)
(-7.50047e-07 -2.57755e-06 7.37076e-08)
(-1.183e-07 -2.39469e-06 1.29706e-08)
(-1.16719e-07 -2.36854e-06 -1.16719e-07)
(-2.40464e-06 1.07869e-06 1.23684e-07)
(-2.27159e-06 -3.42313e-06 6.7217e-07)
(5.93745e-08 -2.66699e-06 4.42482e-07)
(-1.18304e-07 -2.22025e-06 -1.18304e-07)
(-5.02549e-06 1.87274e-06 4.57745e-07)
(-4.35869e-06 -5.29998e-06 2.47027e-06)
(8.35236e-07 -3.26529e-06 1.79224e-06)
(7.70123e-08 -2.02176e-06 7.70123e-08)
(-9.37263e-06 3.13086e-06 1.02458e-06)
(-7.32958e-06 -7.86978e-06 8.19354e-06)
(3.0715e-06 -3.85303e-06 5.9222e-06)
(8.42014e-07 -1.05488e-06 8.42014e-07)
(-1.57623e-05 5.62122e-06 3.01623e-06)
(-1.12606e-05 -7.22271e-06 2.68143e-05)
(7.38156e-06 -1.21426e-06 1.93856e-05)
(2.54561e-06 1.85716e-06 2.54561e-06)
(-2.17669e-05 7.79846e-06 3.64566e-06)
(-1.40344e-05 2.47531e-06 4.13902e-05)
(1.18203e-05 5.58039e-06 3.08606e-05)
(3.53024e-06 7.9726e-06 3.53024e-06)
(-1.57015e-05 5.91851e-06 2.92316e-06)
(-1.00966e-05 1.20512e-05 2.26686e-05)
(7.64352e-06 8.45969e-06 2.09026e-05)
(1.37935e-06 1.39475e-05 1.37935e-06)
(-5.5949e-07 2.02154e-06 3.2302e-06)
(-1.54177e-06 7.25761e-06 -4.46168e-06)
(-1.60519e-06 2.84119e-06 3.86554e-07)
(-1.04e-06 1.5685e-05 -1.04e-06)
(1.11935e-05 2.65621e-06 5.42245e-06)
(5.12158e-06 -1.46825e-06 -9.62974e-06)
(-6.26408e-06 -1.49858e-06 7.88939e-06)
(-2.56004e-07 1.4123e-05 -2.56004e-07)
(2.09456e-05 3.26716e-06 -2.91476e-06)
(1.35604e-05 -1.63061e-05 -3.3556e-05)
(-1.25782e-05 -2.01951e-05 -2.55271e-05)
(-4.47189e-06 5.74625e-06 -4.47189e-06)
)
;

boundaryField
{
    inlet
    {
        type            fixedValue;
        value           nonuniform 0();
    }
    outlet
    {
        type            zeroGradient;
    }
    walls
    {
        type            fixedValue;
        value           uniform (0 0 0);
    }
    procBoundary0to1
    {
        type            processor;
        value           nonuniform List<vector> 
16
(
(6.96434e-06 3.83799e-06 6.96434e-06)
(8.51905e-06 -5.24598e-06 6.64446e-05)
(-6.56077e-06 -1.86754e-06 4.62508e-05)
(-7.31939e-06 2.64071e-06 1.73942e-05)
(6.64446e-05 -5.24598e-06 8.51905e-06)
(4.87743e-05 -0.000115463 4.87743e-05)
(-5.68756e-05 -7.17473e-05 5.02366e-05)
(-3.50893e-05 -1.252e-05 1.40502e-05)
(4.62508e-05 -1.86754e-06 -6.56077e-06)
(5.02366e-05 -7.17473e-05 -5.68756e-05)
(-4.11326e-05 -6.12754e-05 -4.11326e-05)
(-4.1281e-05 -7.5765e-06 -9.29135e-06)
(1.73942e-05 2.64071e-06 -7.31939e-06)
(1.40502e-05 -1.252e-05 -3.50893e-05)
(-9.29135e-06 -7.5765e-06 -4.1281e-05)
(-5.07079e-06 1.23128e-06 -5.07079e-06)
)
;
    }
}


// ************************************************************************* //
