/*--------------------------------*- C++ -*----------------------------------*\
| =========                 |                                                 |
| \\      /  F ield         | OpenFOAM: The Open Source CFD Toolbox           |
|  \\    /   O peration     | Version:  5.x                                   |
|   \\  /    A nd           | Web:      www.OpenFOAM.org                      |
|    \\/     M anipulation  |                                                 |
\*---------------------------------------------------------------------------*/
FoamFile
{
    version     2.0;
    format      ascii;
    class       volScalarField;
    location    "0.075";
    object      interFace;
}
// * * * * * * * * * * * * * * * * * * * * * * * * * * * * * * * * * * * * * //

dimensions      [0 0 0 0 0 0 0];

internalField   nonuniform List<scalar> 
1574
(
0
0
0
0
0
0
0
0
0
0
0
0
0
0
0
0
0
0
0
0
0
0
0
0
0
0
0
0
0
0
0
0
0
0
0
0
0
0
0
0
0
0
0
0
0
0
0
0
0
0
0
0
0
0
0
0
0
0
0
0
0
0
0
0
0
0
0
0
0
0
0
0
0
0
0
0
0
0
0
0
0
0
0
0
0
0
0
0
0
0
0
0
0
0
0
0
0
0
0
0
0
0
0
0
0
0
0
0
0
0
0
0
0
0
0
0
0
0
0
0
0
0
0
0
0
0
0
0
0
0
0
0
0
0
0
0
0
0
0
0
0
0
0
0
0
0
0
0
0
0
0
0
0
0
0
0
0
0
0
0
0
0
0
0
0
0
0
0
0
0
0
0
0
0
0
0
0
0
0
0
0
0
0
0
0
0
0
0
0
0
0
0
0
0
0
0
0
0
0
0
0
0
0
0
0
0
0
0
0
0
0
0
0
0
0
0
0
0
0
0
0
0
0
0
0
0
0
0
0
0
0
0
0
0
0
0
0
0
0
0
0
0
0
0
0
0
0
0
0
0
0
0
0
0
0
0
0
0
0
0
0
0
0
0
0
0
0
0
0
0
0
0
0
0
0
0
0
0
0
0
0
0
0
0
0
0
0
0
0
0
0
0
0
0
0
0
0
0
0
0
0
0
0
0
0
0
0
0
0
0
0
0
0
0
0
0
0
0
0
0
0
0
0
0
0
0
0
0
0
0
0
0
0
0
0
0
0
0
0
0
0
0
0
0
0
0
0
0
0
0
0
0
0
0
0
0
0
0
0
0
0
0
0
0
0
0
0
0
0
0
0
0
0
0
0
0
0
0
0
0
0
0
0
0
0
0
0
0
0
0
0
0
0
0
0
0
0
0
0
0
0
0
0
0
0
0
0
0
0
0
0
0
0
0
0
0
0
0
0
0
0
0
0
0
0
0
0
0
0
0
0
0
0
0
0
0
0
0
0
0
0
0
0
0
0
0
0
0
0
0
0
0
0
0
0
0
0
0
0
0
0
0
0
0
0
0
0
0
0
0
0
0
0
0
0
0
0
0
0
0
0
0
0
0
0
0
0
0
0
0
0
0
0
0
0
0
0
0
0
0
0
0
0
0
0
0
0
0
0
0
0
0
0
0
0
0
0
0
0
0
0
0
0
0
0
0
0
0
0
0
0
0
0
0
0
0
0
0
0
0
0
0
0
0
0
0
0
0
0
0
0
0
0
0
0
0
0
0
0
0
0
0
0
0
0
0
0
0
0
0
0
0
0
0
0
0
0
0
0
0
0
0
0
0
0
0
0
0
0
0
0
0
0
0
0
0
0
0
0
0
0
0
0
0
0
0
0
0
0
0
0
0
0
0
0
0
0
0
0
0
0
0
0
0
0
0
0
0
0
0
0
0
0
0
0
0
0
0
0
0
0
0
0
0
0
0
0
0
0
0
0
0
0
0
0
0
0
0
0
0
0
0
0
0
0
0
0
0
0
0
0
0
0
0
0.967405
0
0
0
0
0
0
0
0
0
0
0
0
0
0
0
0
0
0
0
0
0
0
0
0
0.600264
0
0
0
0
0
0
0
0
0
0
0
0
0
0
0
0
0
0
0
0
0
0
0
0
0.686582
0
0
0
0
0
0
0
0
0
0
0
0
0
0
0
0
0
0
0
0
0
0
0
0
0
0
0
0
0
0
0
0
0
0
0
0
0
0
0
0
0
0
0
0
0
0
0
0
0
0.759851
0
0
0
0
0
0
0
0
0
0
0
0
0
0
0
0
0
0
0
0
0
0
0
0
0.568099
0
0
0
0
0
0
0
0
0
0
0
0
0
0
0
0
0
0
0
0
0
0
0
0
0
0
0
0
0
0
0
0
0
0
0
0
0
0
0
0
0
0
0
0
0
0
0
0
0
0
0
0
0
0
0
0
0
0
0
0
0
0
0
0
0
0
0
0
0
0
0
0
0
0
0
0
0
0
0
0
0
0
0
0
0
0
0
0
0
0
0
0
0
0
0
0
0
0
0
0
0
0
0
0
0
0
0
0
0
0
0
0
0
0
0
0
0
0
0
0
0
0
0
0
0
0
0
0
0
0
0
0
0
0
0
0
0
0
0
0
0
0
0
0
0
0
0
0
0
0
0
0
0
0
0
0
0
0
0
0
0
0
0
0
0
0
0
0
0
0
0
0
0
0
0
0
0
0
0
0
0
0
0
0
0
0
0
0
0
0
0
0
0
0
0
0
0
0
0
0
0.491077
0.491081
0.222308
0.548806
0.280033
0.280037
0.0112631
0.299326
0.29933
0.0305559
0.894901
0.626127
0.626131
0.357358
0.884773
0.884775
0.705593
0
0
0
0
0
0
0
0.871026
0.651067
0.651071
0.382297
0.417852
0.417863
0.149134
0.959097
0.953206
0.953217
0.684488
0.72924
0.729244
0.773996
0.550724
0.461216
0.505968
0.505972
0
0.960622
0.597066
0
0
0
0
0.960629
0
0.597081
0
0
0
0
0.997962
0.818813
0.863569
0.640297
0.729934
0.77469
0.595541
0.99797
0.81882
0.863572
0.640301
0.729945
0.774698
0.595548
0.293143
0.203603
0.402127
0.402128
0.446898
0.248373
0.248374
0
0.74733
0.478557
0
0
0
0.846085
0.747331
0
0.478562
0
0
0
0.84609
0.382733
0.472373
0.670898
0.491717
0.517144
0.536488
0.337963
0.382734
0.472377
0.670901
0.49172
0.517146
0.536489
0.337965
0.331534
0.331545
0.0628159
0.597771
0.329042
0.329053
0.0603234
0.372273
0.193886
0.19389
0.282764
0.238642
0.327517
0.32752
0.461846
0.462608
0.283459
0.551483
0.328215
0.596239
0.41709
0.461849
0.462616
0.283466
0.551494
0.328218
0.596246
0.417097
0.472324
0.741147
0.760489
0.760491
0.606735
0.606736
0.626079
0.551422
0.552185
0.552188
0.820213
0.417791
0.685815
0.685819
0.184209
0.0753253
0.0753266
0.0946694
0.120096
0.139439
0.13944
0.273799
0.344096
0.164915
0.363439
0.209686
0.40821
0.229029
0.273801
0.344099
0.164918
0.363443
0.209687
0.408212
0.229031
0.105076
0.105079
0.149832
0.105842
0.0163337
0.061086
0.0610897
0
0.779478
0.510748
0
0
0.776985
0.508256
0.779482
0
0.510763
0
0.776989
0
0.508271
0.641822
0.730697
0.775453
0.999487
0.821101
0.865857
0.954731
0.641833
0.730712
0.775464
0.999502
0.821119
0.865871
0.95475
0.373798
0.194649
0.239405
0.195415
0.285052
0.329808
0.150659
0.373805
0.194656
0.239408
0.195419
0.285063
0.329816
0.150666
0.36339
0.433687
0.433689
0.632213
0.299277
0.497801
0.497802
0.463374
0.463378
0.328981
0.284991
0.553782
0.419385
0.419388
0
0
0
0
0
0
0
0.126331
0.0367907
0.0560324
0.0560337
0.100803
0.0815601
0.0815614
0
0.90951
0.670308
0
0
0.728037
0.459264
0.909512
0
0.670313
0
0.728039
0
0.459269
0.215921
0.30556
0.324803
0.145622
0.350331
0.190393
0.17115
0.215922
0.305564
0.324806
0.145625
0.350334
0.190394
0.171153
0.702608
0.523327
0.54267
0.747379
0.587441
0.811492
0.766721
0.523331
0.702615
0.542675
0.747384
0.587445
0.811497
0.766728
0.788252
0.788259
0.693627
0.690736
0.422006
0.422017
0.153288
0.106673
0.107568
0.107572
0.0171645
0.152324
0.0619168
0.0619205
0.196246
0.37629
0.197141
0.285883
0.241897
0.330639
0.15149
0.196249
0.376298
0.197148
0.285894
0.241901
0.330646
0.151497
0.553012
0.73229
0.777046
0.464266
0.509022
0.733057
0.688301
0.553023
0.732309
0.777061
0.464281
0.509033
0.733071
0.688319
0.305512
0.574334
0.414395
0.414396
0.439922
0.439924
0.279984
0.285822
0.465867
0.465871
0.554613
0.331474
0.420216
0.420219
0.971382
0.612918
0.811444
0.83697
0.677032
0.901083
0
0.971384
0.612921
0.811445
0.836974
0.677034
0.901087
0
0
0
0
0
0
0
0
0.196679
0.267077
0.267078
0.107139
0.311848
0.151908
0.15191
0.642588
0
0.866623
0.732996
0.598599
0.822633
0.95703
0.642596
0
0.866634
0.732999
0.598606
0.822644
0.957038
0.286269
0.535848
0.356667
0.375909
0.401438
0.420679
0.241498
0.28627
0.535851
0.356669
0.375912
0.401439
0.420682
0.241501
0.484791
0.683315
0.504034
0.529562
0.728086
0.753613
0.708843
0.484797
0.504038
0.683322
0.529566
0.728091
0.753619
0.708849
0.19804
0.198044
0.242796
0.378089
0.28858
0.333333
0.333336
0
0
0
0
0
0.965607
0.786454
0
0
0
0
0.965614
0
0.786469
0.555504
0.465097
0.509853
0.733887
0.734783
0.779539
0.689131
0.555515
0.465112
0.509864
0.733902
0.734801
0.779554
0.68915
0.466762
0.287613
0.332369
0.467661
0.557299
0.602055
0.422905
0.46677
0.28762
0.332373
0.467665
0.55731
0.602062
0.422913
0.37586
0.625439
0.62544
0.644682
0.491029
0.51027
0.510272
0.556339
0.556343
0.421945
0.557238
0.826028
0.691631
0.691635
0
0
0
0
0
0
0
0.753565
0.952089
0.593626
0.619153
0.817677
0.843205
0.977616
0.753566
0.952091
0.593628
0.619156
0.817681
0.843209
0.977619
0.427066
0.427068
0.471837
0.676647
0.587107
0.631876
0.631877
0.645081
0.733827
0.599429
0.823464
0
0.869115
0.957861
0.645088
0.73383
0.599437
0.823475
0
0.869126
0.957868
0
0
0
0
0
0
0
0
0
0
0
0
0
0
0.695837
0.516656
0.561427
0.766237
0.855876
0.900647
0.721466
0.69584
0.516659
0.561428
0.766238
0.85588
0.90065
0.721469
0.89436
0.715079
0.55514
0.93913
0.59991
0.823962
0.779191
0.715083
0.894366
0.555145
0.939136
0.599914
0.823967
0.779198
0
0
0
0
0
0
0
0.558202
0.738379
0.738383
0.468693
0.783135
0.513446
0.513449
)
;

boundaryField
{
    inlet
    {
        type            calculated;
        value           uniform 0;
    }
    wall
    {
        type            calculated;
        value           uniform 0;
    }
    outlet
    {
        type            calculated;
        value           uniform 0;
    }
    procBoundary0to1
    {
        type            processor;
        value           uniform 0;
    }
    procBoundary0to2
    {
        type            processor;
        value           uniform 0;
    }
}


// ************************************************************************* //
