/*--------------------------------*- C++ -*----------------------------------*\
| =========                 |                                                 |
| \\      /  F ield         | OpenFOAM: The Open Source CFD Toolbox           |
|  \\    /   O peration     | Version:  5.x                                   |
|   \\  /    A nd           | Web:      www.OpenFOAM.org                      |
|    \\/     M anipulation  |                                                 |
\*---------------------------------------------------------------------------*/
FoamFile
{
    version     2.0;
    format      ascii;
    class       surfaceScalarField;
    location    "0.075";
    object      phi;
}
// * * * * * * * * * * * * * * * * * * * * * * * * * * * * * * * * * * * * * //

dimensions      [0 3 -1 0 0 0 0];

internalField   nonuniform List<scalar> 
4360
(
-2.75034e-07
-2.76341e-07
4.81891e-08
-2.20443e-07
-2.99201e-07
1.18269e-10
-1.89803e-07
-3.10296e-07
2.55631e-08
-1.13977e-07
-3.25138e-07
-1.56427e-08
-3.31006e-07
-7.93396e-09
-2.97847e-07
-2.21967e-07
-1.24336e-10
-2.50451e-07
-2.51989e-07
-9.45923e-08
-2.08456e-07
-2.64328e-07
-8.79468e-08
-1.2726e-07
-2.78566e-07
-1.27749e-07
-2.85e-07
-1.20877e-07
-3.08956e-07
-1.91493e-07
2.52785e-08
-2.62796e-07
-2.10153e-07
-8.79787e-08
-2.16467e-07
-2.18162e-07
-9.24781e-08
-1.32933e-07
-2.29096e-07
-1.32988e-07
-2.34561e-07
-1.26819e-07
-3.23794e-07
-1.1576e-07
-1.60026e-08
-2.77029e-07
-1.29041e-07
-1.27859e-07
-2.27397e-07
-1.34707e-07
-1.33071e-07
-1.41454e-07
-1.4323e-07
-1.71791e-07
-1.47927e-07
-1.65161e-07
-3.29673e-07
-8.32504e-09
-2.83475e-07
-1.21017e-07
-2.3287e-07
-1.26941e-07
-1.46157e-07
-1.65198e-07
-1.58197e-07
-1.32924e-07
-1.3343e-07
1.13823e-07
-1.44173e-07
-8.51925e-08
3.28686e-08
-1.2748e-07
-6.92428e-08
2.57311e-08
-1.00862e-07
-5.46828e-08
-2.86571e-08
-4.9563e-08
-3.33408e-08
-8.46851e-08
-1.45018e-07
3.26982e-08
-1.03898e-07
-1.04745e-07
-5.58069e-08
-1.05974e-07
-9.02941e-08
-6.47988e-08
-8.81111e-08
-7.79075e-08
-1.22366e-07
-7.35463e-08
-1.28381e-07
-6.87362e-08
-1.28596e-07
2.54524e-08
-8.94456e-08
-1.07088e-07
-6.49046e-08
-9.83321e-08
-9.94476e-08
-7.44177e-08
-8.41353e-08
-9.21605e-08
-1.32911e-07
-9.00932e-08
-1.39347e-07
-5.41836e-08
-1.02143e-07
-2.91116e-08
-7.70674e-08
-8.93942e-08
-1.22648e-07
-9.10516e-08
-8.54247e-08
-1.33088e-07
-8.00306e-08
-8.13178e-08
-1.93631e-07
-8.08025e-08
-2.00978e-07
-4.90545e-08
-3.39579e-08
-7.26941e-08
-1.28827e-07
-8.89763e-08
-1.39688e-07
-7.95075e-08
-2.0114e-07
-2.08858e-07
-2.58402e-07
-2.59629e-07
1.86774e-07
-2.30953e-07
-2.74931e-07
4.62423e-08
-1.99342e-07
-2.79931e-07
3.66675e-08
-1.23647e-07
-2.90002e-07
-5.90872e-08
-2.94109e-07
-6.53886e-08
-2.73703e-07
-2.32463e-07
4.59593e-08
-2.45662e-07
-2.47173e-07
-1.1159e-07
-2.11547e-07
-2.52369e-07
-1.26462e-07
-1.33448e-07
-2.62593e-07
-2.27859e-07
-2.67219e-07
-2.36436e-07
-2.78705e-07
-2.01072e-07
3.62142e-08
-2.50859e-07
-2.13279e-07
-1.2663e-07
-2.16066e-07
-2.17796e-07
-1.43769e-07
-1.3733e-07
-2.27222e-07
-2.47003e-07
-2.31889e-07
-2.5649e-07
-2.88774e-07
-1.25506e-07
-5.9809e-08
-2.61082e-07
-1.35308e-07
-2.28297e-07
-2.2549e-07
-1.3919e-07
-2.47273e-07
-1.45483e-07
-1.47344e-07
-3.53503e-07
-1.51825e-07
-3.64318e-07
-2.92884e-07
-6.63516e-08
-2.6571e-07
-2.37115e-07
-2.30159e-07
-2.57004e-07
-1.49965e-07
-3.6456e-07
-3.76003e-07
-2.63896e-07
-2.64828e-07
2.70757e-07
-2.45213e-07
-2.54553e-07
6.7483e-08
-2.12369e-07
-2.51783e-07
4.30331e-08
-1.42823e-07
-2.48415e-07
-8.99848e-08
-2.4791e-07
-1.05157e-07
-2.53623e-07
-2.46483e-07
6.71686e-08
-2.36987e-07
-2.38256e-07
-1.44514e-07
-2.07876e-07
-2.36074e-07
-1.71272e-07
-1.40302e-07
-2.3388e-07
-3.09959e-07
-2.33985e-07
-3.27215e-07
-2.5085e-07
-2.139e-07
4.24703e-08
-2.34802e-07
-2.09407e-07
-1.71518e-07
-2.07064e-07
-2.08598e-07
-1.98973e-07
-1.40367e-07
-2.08162e-07
-3.39409e-07
-2.0921e-07
-3.57437e-07
-2.47487e-07
-1.44526e-07
-9.09019e-08
-2.32613e-07
-1.42006e-07
-3.10561e-07
-2.06632e-07
-1.42075e-07
-3.39766e-07
-1.40985e-07
-1.42691e-07
-4.84609e-07
-1.44437e-07
-5.04505e-07
-2.46978e-07
-1.0645e-07
-2.32713e-07
-3.28191e-07
-2.07676e-07
-3.58167e-07
-1.42726e-07
-5.04876e-07
-5.2573e-07
-3.8788e-07
-3.89337e-07
3.80087e-07
-3.47975e-07
-4.02705e-07
8.55265e-08
-2.95664e-07
-4.0665e-07
4.96703e-08
-1.78993e-07
-4.17461e-07
-1.44957e-07
-4.21872e-07
-1.66439e-07
-4.01248e-07
-3.49819e-07
8.51038e-08
-3.61597e-07
-3.63441e-07
-2.2343e-07
-3.08394e-07
-3.67813e-07
-2.6331e-07
-1.89565e-07
-3.79178e-07
-4.67065e-07
-3.84283e-07
-4.91768e-07
-4.05193e-07
-2.9781e-07
4.89124e-08
-3.65967e-07
-3.1054e-07
-2.63643e-07
-3.12853e-07
-3.15001e-07
-3.04893e-07
-1.93722e-07
-3.26262e-07
-5.11446e-07
-3.318e-07
-5.37367e-07
-4.16006e-07
-1.81324e-07
-1.46184e-07
-3.77334e-07
-1.91898e-07
-4.6787e-07
-3.24116e-07
-1.96056e-07
-5.11919e-07
-2.03713e-07
-2.06047e-07
-7.25208e-07
-2.11603e-07
-7.53846e-07
-4.20415e-07
-1.68171e-07
-3.82438e-07
-4.93075e-07
-3.29652e-07
-5.38343e-07
-2.09266e-07
-7.54345e-07
-7.8438e-07
-5.08316e-07
-5.09774e-07
5.27586e-07
-4.56648e-07
-5.17649e-07
1.09518e-07
-3.85437e-07
-5.20111e-07
5.45451e-08
-2.34797e-07
-5.27406e-07
-2.17626e-07
-5.30777e-07
-2.5061e-07
-5.16192e-07
-4.58573e-07
1.09014e-07
-4.65223e-07
-4.67148e-07
-3.24914e-07
-3.93985e-07
-4.70113e-07
-3.84555e-07
-2.41803e-07
-4.78276e-07
-6.68379e-07
-4.82448e-07
-7.05427e-07
-5.18652e-07
-3.87716e-07
5.35913e-08
-4.68185e-07
-3.96263e-07
-3.85002e-07
-3.97374e-07
-3.99656e-07
-4.46163e-07
-2.45179e-07
-4.08208e-07
-7.33701e-07
-4.13087e-07
-7.72297e-07
-5.25951e-07
-2.37316e-07
-2.1916e-07
-4.76354e-07
-2.44323e-07
-6.69409e-07
-4.05931e-07
-2.47703e-07
-7.34287e-07
-2.52938e-07
-2.55459e-07
-1.03093e-06
-2.60632e-07
-1.07319e-06
-5.29318e-07
-2.52832e-07
-4.80522e-07
-7.07139e-07
-4.10804e-07
-7.73566e-07
-2.58105e-07
-1.07387e-06
-1.11802e-06
-6.99397e-07
-7.01376e-07
7.23259e-07
-6.23671e-07
-7.25133e-07
1.37137e-07
-5.21258e-07
-7.31926e-07
5.68651e-08
-3.03598e-07
-7.51009e-07
-3.259e-07
-7.58278e-07
-3.72922e-07
-7.23155e-07
-6.26235e-07
1.36505e-07
-6.47812e-07
-6.50374e-07
-4.7504e-07
-5.43586e-07
-6.57731e-07
-5.62996e-07
-3.21103e-07
-6.77629e-07
-9.64257e-07
-6.8592e-07
-1.01757e-06
-7.29945e-07
-5.24265e-07
5.56411e-08
-6.55165e-07
-5.46594e-07
-5.63583e-07
-5.51016e-07
-5.54027e-07
-6.54029e-07
-3.27731e-07
-5.73491e-07
-1.06113e-06
-5.82438e-07
-1.11675e-06
-7.49034e-07
-3.069e-07
-3.2785e-07
-6.75069e-07
-3.24408e-07
-9.65573e-07
-5.70485e-07
-3.31041e-07
-1.06186e-06
-3.44216e-07
-3.47523e-07
-1.48315e-06
-3.56283e-07
-1.5442e-06
-7.56297e-07
-3.75781e-07
-6.83354e-07
-1.01979e-06
-5.79424e-07
-1.11839e-06
-3.52968e-07
-1.54509e-06
-1.60872e-06
-9.8096e-07
-9.83179e-07
1.00372e-06
-8.73474e-07
-1.0125e-06
1.76432e-07
-7.25476e-07
-1.02115e-06
5.72537e-08
-4.17971e-07
-1.04408e-06
-4.79518e-07
-1.05297e-06
-5.48838e-07
-1.01028e-06
-8.7642e-07
1.75681e-07
-9.03405e-07
-9.06348e-07
-6.88095e-07
-7.52412e-07
-9.15757e-07
-8.19409e-07
-4.38498e-07
-9.39815e-07
-1.38247e-06
-9.5002e-07
-1.46121e-06
-1.01893e-06
-7.28959e-07
5.57216e-08
-9.12809e-07
-7.55894e-07
-8.20184e-07
-7.61755e-07
-7.65243e-07
-9.55622e-07
-4.46677e-07
-7.88255e-07
-1.52779e-06
-7.99227e-07
-1.61012e-06
-1.04187e-06
-4.2184e-07
-4.81924e-07
-9.36876e-07
-4.42368e-07
-1.38412e-06
-7.84775e-07
-4.50554e-07
-1.52867e-06
-4.65908e-07
-4.69779e-07
-2.12051e-06
-4.80491e-07
-2.21076e-06
-1.05075e-06
-5.52457e-07
-9.47071e-07
-1.46406e-06
-7.95735e-07
-1.6122e-06
-4.76609e-07
-2.21195e-06
-2.30609e-06
-1.33543e-06
-1.33829e-06
1.38002e-06
-1.18753e-06
-1.39288e-06
2.29128e-07
-9.80183e-07
-1.4087e-06
5.35336e-08
-5.52844e-07
-1.45074e-06
-6.93156e-07
-1.46558e-06
-7.9407e-07
-1.39001e-06
-1.19133e-06
2.28223e-07
-1.24248e-06
-1.24628e-06
-9.82255e-07
-1.02946e-06
-1.26285e-06
-1.1783e-06
-5.88686e-07
-1.30599e-06
-1.96802e-06
-1.3224e-06
-2.08421e-06
-1.40583e-06
-9.84673e-07
5.1596e-08
-1.25904e-06
-1.03395e-06
-1.17932e-06
-1.04529e-06
-1.04979e-06
-1.38245e-06
-6.01602e-07
-1.09069e-06
-2.1868e-06
-1.10767e-06
-2.30876e-06
-1.44788e-06
-5.57836e-07
-6.96148e-07
-1.3022e-06
-5.93681e-07
-1.9701e-06
-1.08621e-06
-6.06606e-07
-2.18788e-06
-6.33769e-07
-6.38764e-07
-3.02493e-06
-6.54367e-07
-3.15917e-06
-1.4627e-06
-7.9868e-07
-1.31859e-06
-2.08789e-06
-1.10317e-06
-2.31143e-06
-6.49353e-07
-3.16074e-06
-3.30027e-06
-1.91448e-06
-1.91783e-06
1.93903e-06
-1.70565e-06
-1.99103e-06
3.16387e-07
-1.40238e-06
-2.01484e-06
5.10066e-08
-7.82721e-07
-2.06962e-06
-9.98823e-07
-2.09063e-06
-1.1509e-06
-1.98768e-06
-1.71019e-06
3.1534e-07
-1.78069e-06
-1.78523e-06
-1.39504e-06
-1.46742e-06
-1.81042e-06
-1.696e-06
-8.30165e-07
-1.86743e-06
-2.80747e-06
-1.89078e-06
-2.98476e-06
-2.01148e-06
-1.40777e-06
4.85868e-08
-1.80587e-06
-1.47281e-06
-1.69735e-06
-1.49093e-06
-1.49633e-06
-2.01149e-06
-8.48808e-07
-1.54819e-06
-3.14818e-06
-1.57202e-06
-3.33564e-06
-2.06628e-06
-7.88782e-07
-1.00248e-06
-1.8629e-06
-8.36227e-07
-2.81006e-06
-1.54281e-06
-8.54884e-07
-3.14944e-06
-8.90164e-07
-8.96223e-07
-4.32959e-06
-9.17958e-07
-4.53661e-06
-2.08727e-06
-1.15673e-06
-1.88623e-06
-2.9895e-06
-1.56661e-06
-3.33904e-06
-9.11872e-07
-4.53872e-06
-4.7556e-06
-2.59491e-06
-2.59918e-06
2.6928e-06
-2.31558e-06
-2.73454e-06
4.45262e-07
-1.89502e-06
-2.77637e-06
4.68385e-08
-1.04702e-06
-2.87755e-06
-1.4062e-06
-2.91229e-06
-1.63412e-06
-2.73028e-06
-2.32141e-06
4.44042e-07
-2.45214e-06
-2.45796e-06
-1.94971e-06
-2.01484e-06
-2.50085e-06
-2.40878e-06
-1.12866e-06
-2.60415e-06
-3.96702e-06
-2.64147e-06
-4.23758e-06
-2.77209e-06
-1.90196e-06
4.37834e-08
-2.49501e-06
-2.02176e-06
-2.41059e-06
-2.05333e-06
-2.06027e-06
-2.89373e-06
-1.15736e-06
-2.15624e-06
-4.49205e-06
-2.19241e-06
-4.78066e-06
-2.8733e-06
-1.05484e-06
-1.41069e-06
-2.59835e-06
-1.13647e-06
-3.97027e-06
-2.14933e-06
-1.1652e-06
-4.49353e-06
-1.22717e-06
-1.23498e-06
-6.17305e-06
-1.26509e-06
-6.49363e-06
-2.90799e-06
-1.64155e-06
-2.63562e-06
-4.24373e-06
-2.18544e-06
-4.78503e-06
-1.25724e-06
-6.49645e-06
-6.82934e-06
-3.77719e-06
-3.78222e-06
3.85621e-06
-3.39416e-06
-3.96056e-06
6.88007e-07
-2.7751e-06
-4.03197e-06
6.93146e-08
-1.52528e-06
-4.16031e-06
-1.98067e-06
-4.21564e-06
-2.33702e-06
-3.95553e-06
-3.40121e-06
6.86647e-07
-3.58153e-06
-3.58857e-06
-2.69564e-06
-2.93196e-06
-3.66364e-06
-3.42662e-06
-1.63619e-06
-3.79862e-06
-5.62443e-06
-3.85886e-06
-6.05694e-06
-4.02692e-06
-2.78355e-06
6.54956e-08
-3.65657e-06
-2.94039e-06
-3.42906e-06
-2.99903e-06
-3.0075e-06
-4.20737e-06
-1.68441e-06
-3.12288e-06
-6.48238e-06
-3.18237e-06
-6.94859e-06
-4.15529e-06
-1.53493e-06
-1.98612e-06
-3.79159e-06
-1.64583e-06
-5.62848e-06
-3.11446e-06
-1.69408e-06
-6.48404e-06
-1.77445e-06
-1.78408e-06
-8.85185e-06
-1.83408e-06
-9.3763e-06
-4.21058e-06
-2.34644e-06
-3.85178e-06
-6.06492e-06
-3.17389e-06
-6.95415e-06
-1.82438e-06
-9.38015e-06
-9.93784e-06
-5.08557e-06
-5.09199e-06
5.44056e-06
-4.59416e-06
-5.43854e-06
1.07327e-06
-3.74371e-06
-5.56127e-06
1.23833e-07
-2.05175e-06
-5.81844e-06
-2.70388e-06
-5.91239e-06
-3.25465e-06
-5.43215e-06
-4.60326e-06
1.07173e-06
-4.95142e-06
-4.96047e-06
-3.65439e-06
-4.05486e-06
-5.08727e-06
-4.79713e-06
-2.25439e-06
-5.35503e-06
-7.88827e-06
-5.45536e-06
-8.57321e-06
-5.55482e-06
-3.75465e-06
1.18991e-07
-5.07816e-06
-4.06574e-06
-4.8004e-06
-4.16263e-06
-4.1736e-06
-6.03653e-06
-2.32977e-06
-4.42324e-06
-9.247e-06
-4.5093e-06
-1.00046e-05
-5.81204e-06
-2.06431e-06
-2.71055e-06
-5.346e-06
-2.26689e-06
-7.89332e-06
-4.41239e-06
-2.34235e-06
-9.24888e-06
-2.49687e-06
-2.50932e-06
-1.26813e-05
-2.57215e-06
-1.35281e-05
-5.90586e-06
-3.26678e-06
-5.4462e-06
-8.58359e-06
-4.49826e-06
-1.00119e-05
-2.55956e-06
-1.35332e-05
-1.44163e-05
-7.53453e-06
-7.54207e-06
8.00774e-06
-6.9086e-06
-7.99429e-06
1.86509e-06
-5.64813e-06
-8.23845e-06
3.50511e-07
-3.10291e-06
-8.55935e-06
-3.65426e-06
-8.73352e-06
-4.54882e-06
-7.98674e-06
-6.91967e-06
1.86345e-06
-7.40887e-06
-7.41992e-06
-4.80662e-06
-6.05803e-06
-7.6892e-06
-6.69721e-06
-3.38939e-06
-8.04152e-06
-1.10748e-05
-8.23744e-06
-1.22275e-05
-8.23089e-06
-5.66162e-06
3.44449e-07
-7.67811e-06
-6.07147e-06
-6.70163e-06
-6.30039e-06
-6.31389e-06
-8.78956e-06
-3.55139e-06
-6.59878e-06
-1.34387e-05
-6.80526e-06
-1.47238e-05
-8.55178e-06
-3.11858e-06
-3.66237e-06
-8.03046e-06
-3.40505e-06
-1.10811e-05
-6.58536e-06
-3.56713e-06
-1.34407e-05
-3.78172e-06
-3.79743e-06
-1.82862e-05
-3.94868e-06
-1.98178e-05
-8.72592e-06
-4.56424e-06
-8.22632e-06
-1.2241e-05
-6.79178e-06
-1.4733e-05
-3.93284e-06
-1.98249e-05
-2.1483e-05
-1.00846e-05
-1.00944e-05
1.16215e-05
-9.35361e-06
-1.10052e-05
3.19815e-06
-7.6414e-06
-1.1429e-05
8.48579e-07
-4.21226e-06
-1.21313e-05
-4.66381e-06
-1.24493e-05
-6.06507e-06
-1.09955e-05
-9.36804e-06
3.19633e-06
-1.03572e-05
-1.03714e-05
-6.07878e-06
-8.53153e-06
-1.08628e-05
-9.08906e-06
-4.78639e-06
-1.16879e-05
-1.52634e-05
-1.20856e-05
-1.71281e-05
-1.14191e-05
-7.65907e-06
8.40859e-07
-1.08483e-05
-8.54906e-06
-9.09485e-06
-8.97431e-06
-8.99222e-06
-1.25342e-05
-5.12378e-06
-9.84579e-06
-1.91314e-05
-1.02409e-05
-2.14003e-05
-1.21216e-05
-4.23297e-06
-4.67366e-06
-1.16737e-05
-4.80692e-06
-1.52711e-05
-9.82823e-06
-5.14483e-06
-1.91337e-05
-5.7332e-06
-5.75416e-06
-2.64729e-05
-6.04725e-06
-2.93453e-05
-1.24392e-05
-6.08511e-06
-1.20711e-05
-1.71457e-05
-1.02229e-05
-2.14127e-05
-6.02562e-06
-2.93556e-05
-3.26127e-05
-1.52231e-05
-1.52345e-05
1.77557e-05
-1.45251e-05
-1.6517e-05
6.08437e-06
-1.19741e-05
-1.75021e-05
2.29407e-06
-6.68408e-06
-1.84979e-05
-5.45268e-06
-1.9187e-05
-7.77779e-06
-1.65055e-05
-1.45427e-05
6.08246e-06
-1.61035e-05
-1.61213e-05
-6.87646e-06
-1.33741e-05
-1.74556e-05
-1.18651e-05
-7.71696e-06
-1.88049e-05
-2.06135e-05
-1.9922e-05
-2.38185e-05
-1.74908e-05
-1.19962e-05
2.28446e-06
-1.74377e-05
-1.33964e-05
-1.1873e-05
-1.49678e-05
-1.49894e-05
-1.74703e-05
-8.98976e-06
-1.6739e-05
-2.71753e-05
-1.8732e-05
-3.12146e-05
-1.84865e-05
-6.71004e-06
-5.46479e-06
-1.87876e-05
-7.74324e-06
-2.06232e-05
-1.67158e-05
-9.0168e-06
-2.7178e-05
-1.07861e-05
-1.08176e-05
-3.8324e-05
-1.18814e-05
-4.64045e-05
-1.9176e-05
-7.80323e-06
-1.99059e-05
-2.38409e-05
-1.87107e-05
-3.12313e-05
-1.18496e-05
-4.64254e-05
-5.48807e-05
-2.01193e-05
-2.01341e-05
2.62564e-05
-1.97417e-05
-2.27698e-05
1.10611e-05
-1.67709e-05
-2.45293e-05
5.57319e-06
-9.68662e-06
-2.67852e-05
-5.24516e-06
-2.84745e-05
-8.96086e-06
-2.27552e-05
-1.97643e-05
1.10588e-05
-2.30719e-05
-2.3095e-05
-6.23461e-06
-2.02666e-05
-2.53119e-05
-1.38878e-05
-1.18979e-05
-2.9703e-05
-2.60645e-05
-3.2585e-05
-3.13011e-05
-2.4515e-05
-1.67984e-05
5.56092e-06
-2.52907e-05
-2.02951e-05
-1.38972e-05
-2.2547e-05
-2.25792e-05
-2.29467e-05
-1.39521e-05
-2.72172e-05
-3.8256e-05
-2.81732e-05
-4.91766e-05
-2.67704e-05
-9.72e-06
-5.25934e-06
-2.96803e-05
-1.19323e-05
-2.60761e-05
-2.71851e-05
-1.39919e-05
-3.82605e-05
-1.54925e-05
-1.55288e-05
-6.17049e-05
-1.62521e-05
-7.32181e-05
-2.84592e-05
-8.99376e-06
-3.25638e-05
-3.13298e-05
-2.81376e-05
-4.92095e-05
-1.6214e-05
-7.32406e-05
-8.593e-05
-2.88752e-05
-2.88919e-05
3.73968e-05
-2.98811e-05
-3.36196e-05
2.05083e-05
-2.63719e-05
-3.74132e-05
1.24813e-05
-1.59905e-05
-4.1751e-05
-2.15057e-06
-4.6497e-05
-7.89211e-06
-3.36026e-05
-2.99077e-05
2.05051e-05
-3.56277e-05
-3.56539e-05
-2.1751e-06
-3.21333e-05
-4.08983e-05
-1.3897e-05
-1.91332e-05
-4.59351e-05
-3.48805e-05
-4.79079e-05
-4.86711e-05
-3.73988e-05
-2.64053e-05
1.24673e-05
-4.0874e-05
-3.21694e-05
-1.39065e-05
-3.59441e-05
-3.5981e-05
-3.27939e-05
-2.0783e-05
-3.6888e-05
-6.24641e-05
-3.88589e-05
-7.85855e-05
-4.17357e-05
-1.60319e-05
-2.16513e-06
-4.59037e-05
-1.91756e-05
-3.49018e-05
-3.68535e-05
-2.08236e-05
-6.24681e-05
-2.22241e-05
-2.22612e-05
-9.09611e-05
-2.39271e-05
-0.000109708
-4.64849e-05
-7.93333e-06
-4.78744e-05
-4.87235e-05
-3.88241e-05
-7.862e-05
-2.38909e-05
-0.000109731
-0.000132163
-3.647e-05
-3.64919e-05
5.03602e-05
-3.63036e-05
-4.24424e-05
2.96984e-05
-3.09543e-05
-4.84172e-05
1.96387e-05
-1.80583e-05
-5.34367e-05
1.11513e-07
-5.72129e-05
-9.05926e-06
-4.24217e-05
-3.63341e-05
2.96913e-05
-4.44249e-05
-4.44502e-05
1.83597e-06
-3.91816e-05
-5.12307e-05
-1.63268e-05
-2.26384e-05
-5.51546e-05
-4.97057e-05
-5.90846e-05
-6.91789e-05
-4.83933e-05
-3.0995e-05
1.96215e-05
-5.12098e-05
-3.91996e-05
-1.63406e-05
-4.16382e-05
-4.16722e-05
-5.19238e-05
-2.51774e-05
-4.56106e-05
-8.8469e-05
-4.93437e-05
-0.00011316
-5.34163e-05
-1.8105e-05
9.17009e-08
-5.51249e-05
-2.26663e-05
-4.97265e-05
-4.55756e-05
-2.52148e-05
-8.84748e-05
-2.83691e-05
-2.84047e-05
-0.000125374
-3.10884e-05
-0.00015571
-5.71869e-05
-9.11056e-06
-5.90502e-05
-6.92294e-05
-4.9303e-05
-0.000113196
-3.10485e-05
-0.000155729
-0.00019276
-5.67618e-05
-5.67832e-05
7.47419e-05
-5.61564e-05
-6.15248e-05
4.34733e-05
-4.53264e-05
-7.10841e-05
2.72549e-05
-2.75876e-05
-7.76122e-05
4.58809e-06
-8.48529e-05
-1.13102e-05
-6.15033e-05
-5.61944e-05
4.34695e-05
-6.63038e-05
-6.63391e-05
1.14508e-05
-5.48007e-05
-7.62178e-05
-2.26962e-05
-3.4032e-05
-8.41784e-05
-6.39082e-05
-9.36467e-05
-9.40389e-05
-7.10618e-05
-4.5379e-05
2.72383e-05
-7.61812e-05
-5.48439e-05
-2.27163e-05
-6.46652e-05
-6.47122e-05
-7.49454e-05
-4.13929e-05
-7.21513e-05
-0.000123768
-8.18338e-05
-0.000165896
-7.75853e-05
-2.76532e-05
4.56441e-06
-8.41431e-05
-3.40834e-05
-6.39292e-05
-7.21081e-05
-4.14458e-05
-0.000123776
-4.73136e-05
-4.736e-05
-0.00017496
-5.49346e-05
-0.000229035
-8.48145e-05
-1.13848e-05
-9.36067e-05
-9.40899e-05
-8.17837e-05
-0.000165935
-5.48813e-05
-0.000229051
-0.000300454
-7.29245e-05
-7.29525e-05
0.000107694
-7.42606e-05
-8.2774e-05
6.5758e-05
-6.225e-05
-9.52457e-05
4.06223e-05
-3.83869e-05
-0.000103834
1.03559e-05
-0.000115494
-1.57934e-05
-8.2748e-05
-7.4306e-05
6.57561e-05
-8.76542e-05
-8.76937e-05
2.12767e-05
-7.48582e-05
-0.000105099
-2.56389e-05
-4.83372e-05
-0.000118556
-7.57075e-05
-0.00013506
-0.00012256
-9.52132e-05
-6.23118e-05
4.06042e-05
-0.000105055
-7.49108e-05
-2.5657e-05
-9.19794e-05
-9.20365e-05
-0.000101084
-6.04236e-05
-0.000105426
-0.000168454
-0.000123105
-0.000237929
-0.000103803
-3.84704e-05
1.0336e-05
-0.000118516
-4.83958e-05
-7.57311e-05
-0.000105377
-6.04855e-05
-0.000168466
-7.17804e-05
-7.18296e-05
-0.000242152
-8.47636e-05
-0.00033837
-0.000115439
-1.5889e-05
-0.000135006
-0.000122612
-0.000123043
-0.000237976
-8.47038e-05
-0.000338386
-0.000468025
-0.000108154
-0.000108184
0.000163368
-0.000116264
-0.000123338
0.000110161
-0.000100476
-0.000148783
7.12247e-05
-6.15719e-05
-0.000162966
2.59287e-05
-0.000190319
-1.03754e-05
-0.00012331
-0.000116315
0.000110163
-0.000138274
-0.000138321
5.12222e-05
-0.000121328
-0.000174073
-1.7294e-05
-8.10779e-05
-0.000199586
-7.93386e-05
-0.00023984
-0.000153685
-0.000148748
-0.00010055
7.12095e-05
-0.00017402
-0.000121396
-1.73098e-05
-0.000160279
-0.000160357
-0.00012854
-0.000111615
-0.000189302
-0.000227402
-0.000238696
-0.000350142
-0.000162931
-6.16689e-05
2.59106e-05
-0.000199539
-8.11572e-05
-7.93619e-05
-0.000189239
-0.000111706
-0.000227417
-0.000137195
-0.000137268
-0.000346231
-0.000185229
-0.000527735
-0.000190265
-1.04635e-05
-0.000239784
-0.000153737
-0.000238614
-0.000350197
-0.000185136
-0.000527756
-0.000835247
-0.000135203
-0.000135236
0.00023522
-0.000150062
-0.000158406
0.000175281
-0.000133205
-0.000202071
0.000123335
-8.66346e-05
-0.000225528
6.37135e-05
-0.000273725
8.39377e-06
-0.000158377
-0.000150115
0.000175285
-0.000186787
-0.000186837
0.000108063
-0.000168044
-0.000245933
7.82527e-06
-0.000118942
-0.000290013
-6.39558e-05
-0.000369353
-0.000176842
-0.000202034
-0.000133281
0.000123325
-0.000245873
-0.000168115
7.80652e-06
-0.000236981
-0.000237068
-0.000146297
-0.000175797
-0.000292446
-0.000286153
-0.000393327
-0.000501727
-0.000225498
-8.67307e-05
6.37019e-05
-0.000289965
-0.000119022
-6.39869e-05
-0.000292386
-0.000175892
-0.000286172
-0.000232631
-0.000232682
-0.000465751
-0.000329193
-0.000823648
-0.000273667
8.29394e-06
-0.000369279
-0.000176907
-0.000393229
-0.000501806
-0.000329123
-0.000823645
-0.00149184
-0.000190539
-0.00019058
0.000348896
-0.000220382
-0.000230162
0.000287833
-0.000203581
-0.000312993
0.000228082
-0.000140353
-0.000364001
0.000156956
-0.000469709
7.9338e-05
-0.000230127
-0.000220438
0.000287833
-0.000285888
-0.000285947
0.000219609
-0.000273545
-0.000409813
9.2302e-05
-0.000201204
-0.000499177
-1.12134e-06
-0.000684688
-0.000162537
-0.00031295
-0.000203658
0.000228074
-0.000409742
-0.00027364
9.22925e-05
-0.000420061
-0.000420189
-0.000125603
-0.000337776
-0.000547454
-0.00032016
-0.000828859
-0.000694642
-0.000363984
-0.000140436
0.000156942
-0.000499126
-0.00020132
-1.16541e-06
-0.000547372
-0.000337924
-0.00032019
-0.000478808
-0.000478894
-0.000602876
-0.000784336
-0.00134492
-0.000469657
7.92926e-05
-0.000684625
-0.000162604
-0.000828709
-0.000694726
-0.000784185
-0.00134491
-0.00305491
-0.000225299
-0.000225342
0.000486626
-0.000266752
-0.000271779
0.000434718
-0.000253476
-0.000401707
0.000384086
-0.000185716
-0.000471225
0.00031647
-0.000671426
0.000227856
-0.000271742
-0.00026681
0.000434712
-0.000354489
-0.000354552
0.000385131
-0.000355023
-0.00056665
0.000257779
-0.000302001
-0.000708119
0.00018275
-0.001073
-6.3269e-05
-0.000401663
-0.000253552
0.000384079
-0.000566574
-0.000355126
0.000257778
-0.000616209
-0.000616343
-2.62744e-05
-0.000540632
-0.000854265
-0.000249592
-0.00145445
-0.000854047
-0.000471221
-0.000185788
0.000316455
-0.000708077
-0.000302123
0.000182688
-0.000854197
-0.000540786
-0.000249627
-0.000862517
-0.000862517
-0.000586303
-0.00156544
-0.00209593
-0.000671399
0.000227864
-0.00107288
-6.33072e-05
-0.00145428
-0.000854098
-0.0015654
-0.00209576
-0.00159569
-0.00151692
-0.001517
-0.00155737
-0.000278861
-0.00027891
0.000661595
-0.000339993
-0.000356012
0.000641393
-0.000337627
-0.000556515
0.000624514
-0.00025212
-0.000695245
0.000581733
-0.0010497
0.000524916
-0.000355969
-0.000340049
0.000641374
-0.000483087
-0.00048316
0.000639396
-0.000518916
-0.000819375
0.000556468
-0.000443009
-0.00113257
0.000544172
-0.00188492
0.000329522
-0.000556464
-0.000337695
0.000624502
-0.000819303
-0.000519018
0.000556474
-0.00101812
-0.00101823
0.000371398
-0.000924342
-0.00159044
0.000114501
-0.00321274
-0.00044962
-0.000695252
-0.000252173
0.000581698
-0.00113253
-0.000443129
0.000544081
-0.0015904
-0.000924499
0.000114512
-0.00172359
-0.00172356
-0.000319994
-0.000912042
-0.000582688
-0.000585036
-0.000924195
-0.00118319
-0.000833065
-0.00099928
-0.00100872
-0.00104968
0.000524979
-0.00188484
0.000329465
-0.00321253
-0.000449613
-0.000911951
-0.000582694
-0.000924117
-0.000584937
-0.00118317
-0.00083309
-0.00099921
-0.0010087
-0.000650538
-0.000650891
-0.00211825
-0.000283801
-0.000283854
0.000840874
-0.000355732
-0.000350416
0.000870037
-0.000370492
-0.000620734
0.000940167
-0.000305046
-0.000780236
0.00097121
-0.00139423
0.0010555
-0.000350363
-0.000355807
0.000870011
-0.000494169
-0.000494279
0.000927065
-0.000573927
-0.000982578
0.00099807
-0.00056908
-0.00131718
0.00107626
-0.00277459
0.00113992
-0.000620684
-0.000370595
0.000940156
-0.000982461
-0.000574104
0.000998076
-0.00137722
-0.00137743
0.00116101
-0.00146195
-0.00239713
0.00127918
-0.00138251
0.00151417
-0.0014667
-0.00152505
-0.00182626
-0.000780261
-0.000305149
0.000971172
-0.0013171
-0.000569344
0.00107616
-0.00239693
-0.00146227
0.00127919
-0.000759763
-0.000759739
0.000347946
0.000521105
0.000521053
0.000563737
-0.000893162
-0.000639092
-0.00124208
-0.000893115
-0.000639123
-0.00124182
-0.000581965
-0.00182172
-0.000321286
-0.00139433
0.00105567
-0.00277441
0.00113992
-0.00138239
0.00151451
-0.00146658
-0.00152499
-0.00182632
-0.00182169
-0.000581894
-0.000321239
-0.00191918
-0.00191828
0.00211855
0.0021188
-0.000897971
-0.000549537
-0.000644885
-0.00064425
0.00233675
-0.000275977
-0.000276041
0.000992414
-0.000339441
-0.000359471
0.00109187
-0.000357293
-0.000631425
0.00123454
-0.00027605
-0.00082914
0.00136817
-0.00139771
0.00156001
-0.000359411
-0.000339496
0.00109182
-0.000504319
-0.000504433
0.00121693
-0.000578699
-0.000996355
0.00143738
-0.0005647
-0.00137065
0.00160378
-0.00270342
0.00188077
-0.000631363
-0.000357308
0.00123447
-0.000996317
-0.000578782
0.00143738
-0.00137521
-0.00137521
0.00191875
-0.00134024
-0.000674091
0.00246101
-0.000894805
-0.000455192
-0.000563359
-0.0016214
0.00344221
-0.00204466
-0.00102494
-0.00127921
-0.000829128
-0.000275961
0.00136795
-0.00137055
-0.000564868
0.00160367
-0.00067411
-0.00134
0.00246072
-0.000894825
-0.000455052
-0.000563307
-0.000814303
-0.000813461
0.00062751
-0.000737041
0.000993686
0.000901372
-0.000205734
-0.000620231
-0.000652883
-0.000679955
-0.000620615
-0.00139779
0.00155992
-0.00270279
0.00188067
-0.00162139
0.00344174
-0.00204533
-0.00102488
-0.00127919
-0.000737236
0.00099257
0.000900071
-0.000205639
-0.000619605
-0.000652202
-0.000679478
-0.000619875
0.000890218
0.000889741
0.000176632
-0.00104305
-0.00104337
0.000129836
-0.000163435
-0.000163503
0.00104358
-0.00017328
-0.000172241
0.00115954
-0.000158154
-0.000281617
0.00131358
-0.00011259
-0.000276127
0.00142743
-0.00051056
0.00160939
-0.000172153
-0.00017334
0.00115944
-0.000216259
-0.000216488
0.00130529
-0.000247091
-0.000347192
0.00153379
-0.000275405
-0.000323329
0.00167929
-0.000850453
0.00194407
-0.000281586
-0.000158233
0.00131351
-0.000347203
-0.000247401
0.00153391
-0.000392973
-0.000393151
0.00201048
-0.000395361
-0.000222471
0.00236254
-0.000463249
0.0031552
-0.000805545
0.000127451
0.000182016
-0.000276209
-0.000112747
0.00142723
-0.000323249
-0.000276049
0.00167935
-0.000222328
-0.000395523
0.00236217
-0.000199282
-0.0001991
0.00271022
0.000136741
-0.000148221
0.000594371
0.000137306
-0.000148817
0.000594147
-0.00077992
-0.000884085
-0.000884003
-0.00137416
-0.000136214
-8.48023e-05
0.000689096
-0.00113061
-0.000510943
0.0016092
-0.000850381
0.00194451
-0.000462891
0.003155
-0.000806003
0.000127841
0.000181835
-8.41121e-05
-0.000136213
0.000687902
-0.00112957
-1.73462e-07
-6.84692e-07
9.01143e-05
0.000135549
0.000135177
-0.000359982
-8.82668e-05
-8.84332e-05
0.00101165
-5.3533e-05
-0.000100488
0.0011461
-2.06688e-05
-0.000127567
0.00124713
4.69101e-05
-0.000126615
0.0013548
-0.000159324
0.00144685
-0.000100379
-5.37411e-05
0.00114606
-0.000104405
-0.000104522
0.00131335
-0.000146408
-5.15169e-05
0.00149974
-0.000196189
-6.82013e-05
0.00167066
-0.000366899
0.00195505
-0.000127346
-2.08867e-05
0.00124708
-5.11997e-05
-0.000146456
0.0014997
7.74738e-05
7.71497e-05
0.00175314
0.000255696
0.000106655
0.00200946
0.000271664
0.0021919
0.00034951
0.000226792
4.21179e-06
-0.000126581
4.66714e-05
0.00135479
-6.81845e-05
-0.000196151
0.00167065
0.000106014
0.000255577
0.00200955
6.81616e-05
6.89434e-05
0.00051386
0.000509319
0.000509279
0.000360881
0.00026006
0.00021427
-2.89192e-05
0.000260692
0.000214749
-2.8406e-05
0.000150172
0.000105434
0.000735165
-0.000650945
-0.000159019
0.0014467
-0.00036612
0.00195494
0.00027171
0.0021917
0.000349556
0.000226682
4.09657e-06
0.000150599
0.000734839
0.000106137
-0.000650922
0.00125872
0.00125796
-0.00627963
0.00647638
-0.00135673
-0.0013567
-7.65179e-06
-7.79496e-06
0.000942972
4.06477e-05
5.21109e-05
0.00105859
5.35756e-05
6.08979e-05
0.0011592
5.41432e-05
0.000128509
0.00128019
9.23098e-05
0.00138708
5.22686e-05
4.04368e-05
0.00105858
8.51144e-05
8.49497e-05
0.00124766
8.03939e-05
0.000128737
0.00143662
2.68315e-05
0.000185945
0.00166678
0.000128914
0.00194333
6.10907e-05
5.33437e-05
0.00115915
0.000129038
8.01255e-05
0.00143658
0.000130436
0.000130032
0.00175045
8.71892e-05
7.91485e-05
0.00217263
-0.000135773
0.000161647
-3.90001e-05
-8.34239e-06
0.00257685
-0.000279693
0.00011934
-1.11538e-06
0.000128518
5.39558e-05
0.00128017
0.000186081
2.63806e-05
0.00166683
7.92366e-05
8.66299e-05
0.00217283
-0.000135744
0.000161687
-3.89754e-05
7.89275e-05
7.87889e-05
0.000514528
-3.54984e-05
-0.000298796
-0.000243699
-8.99885e-05
0.000659639
9.2295e-05
0.00138697
0.000129174
0.00194321
-8.32686e-06
0.00257681
-0.000279733
0.000119354
-1.05639e-06
-0.000298615
-3.59608e-05
-0.000243655
-8.96102e-05
0.000659514
0.00113745
0.000103822
0.000103744
-0.000162511
-0.000162599
-0.00101991
7.44489e-05
7.42842e-05
0.000804649
0.000140744
0.000157654
0.000922007
0.000153072
0.000239201
0.000991265
0.00015701
0.000371833
0.00110229
0.000515318
0.00118693
0.000157757
0.000140595
0.000922026
0.000240184
0.000240077
0.00108281
0.000262827
0.000422127
0.00123105
0.000191168
0.000697927
0.00141235
0.00104325
0.00160586
0.000239396
0.000152869
0.000991286
0.000422316
0.000262694
0.00123104
0.000560901
0.000560652
0.00147334
0.000601696
0.000172565
0.00182627
4.66877e-05
0.000387672
0.000396568
0.000301143
0.00218421
0.000149841
0.000778167
0.000804918
0.000371958
0.000156798
0.00110233
0.000698048
0.000191024
0.00141241
0.000172601
0.000601457
0.00182636
4.67654e-05
0.000387723
0.000396618
0.000184604
0.000184549
0.000599181
-0.000623169
6.24258e-05
0.000434004
-0.00014346
-0.000260356
1.38867e-05
-3.12801e-05
0.000125868
0.000100056
0.000515517
0.0011869
0.00104349
0.00160582
0.00030112
0.0021842
0.000149867
0.000778184
0.000804903
6.2321e-05
0.000434001
-0.000143396
-0.000260432
1.3914e-05
-3.12577e-05
0.000125886
0.000100083
0.000190939
3.66773e-05
3.66709e-05
-8.17951e-05
-8.18248e-05
-0.000100667
0.000150759
0.000150621
0.00063475
0.000243033
0.000318355
0.000712397
0.000270603
0.000498452
0.00072993
0.000239256
0.000808561
0.00079157
0.00113906
0.000799024
0.000318474
0.000242881
0.000712426
0.000471451
0.000471327
0.000776863
0.000529625
0.000839777
0.000831555
0.000400141
0.00150802
0.000842376
0.0022703
0.000872365
0.000498607
0.000270441
0.00072996
0.000839928
0.000529507
0.000831536
0.0011259
0.00112572
0.00090142
0.00110805
0.00235055
0.00100159
0.00463762
0.000918518
0.000808677
0.000239096
0.000791637
0.00150816
0.000400028
0.000842408
0.0023507
0.00110789
0.00100166
0.00297936
0.0029791
0.000809717
-0.000409938
-0.000441288
-0.000441284
-0.000774418
0.00241661
-0.00246566
0.00292374
0.00205135
0.00273136
-5.63649e-05
-0.000356344
-0.000405431