/*--------------------------------*- C++ -*----------------------------------*\
| =========                 |                                                 |
| \\      /  F ield         | OpenFOAM: The Open Source CFD Toolbox           |
|  \\    /   O peration     | Version:  5.x                                   |
|   \\  /    A nd           | Web:      www.OpenFOAM.org                      |
|    \\/     M anipulation  |                                                 |
\*---------------------------------------------------------------------------*/
FoamFile
{
    version     2.0;
    format      ascii;
    class       surfaceScalarField;
    location    "0.072";
    object      phi;
}
// * * * * * * * * * * * * * * * * * * * * * * * * * * * * * * * * * * * * * //

dimensions      [0 3 -1 0 0 0 0];

internalField   nonuniform List<scalar> 
4261
(
4.27972e-08
-2.81394e-07
-1.67439e-08
1.16342e-07
-2.8331e-07
-2.24973e-08
1.65903e-07
-2.84642e-07
2.05563e-09
2.1236e-07
-2.85401e-07
5.4688e-09
-2.85063e-07
8.41081e-08
3.86949e-08
-2.38608e-07
-1.12547e-07
1.14452e-07
-2.409e-07
-1.18155e-07
1.65257e-07
-2.42608e-07
-9.28275e-08
2.12642e-07
-2.43552e-07
-8.9223e-08
-2.43747e-07
-9.58648e-09
3.65263e-08
-1.93304e-07
-1.16197e-07
1.12978e-07
-1.95654e-07
-1.21685e-07
1.6427e-07
-1.97671e-07
-9.62192e-08
2.11968e-07
-1.98808e-07
-9.24316e-08
-1.99656e-07
-1.26711e-08
3.3342e-08
-1.1609e-07
-1.49431e-07
1.10931e-07
-1.18398e-07
-1.54828e-07
1.63071e-07
-1.2076e-07
-1.29039e-07
2.11417e-07
-1.2199e-07
-1.25154e-07
-1.23594e-07
-4.50519e-08
3.09764e-08
-1.42879e-07
1.08974e-07
-1.4807e-07
1.61541e-07
-1.22329e-07
2.10198e-07
-1.18303e-07
-3.83812e-08
-1.19501e-08
-4.02994e-08
-3.98602e-08
1.06663e-08
-3.94456e-08
-3.67867e-08
1.23359e-08
-3.83826e-08
8.63587e-09
1.08707e-08
-3.84258e-08
1.5268e-08
-3.8123e-08
8.9805e-08
-8.77968e-09
-5.79547e-08
-1.23795e-07
1.21185e-08
-5.73858e-08
-1.21098e-07
1.30913e-08
-5.676e-08
-7.5408e-08
1.12787e-08
-5.7016e-08
-6.88049e-08
-5.70064e-08
6.57815e-09
-8.23278e-09
-6.91337e-08
-1.32735e-07
1.20607e-08
-6.91501e-08
-1.302e-07
1.28017e-08
-6.90765e-08
-8.46303e-08
1.09925e-08
-6.9539e-08
-7.80854e-08
-6.98079e-08
-2.70769e-09
-7.3086e-09
-5.84681e-08
-1.86756e-07
1.22596e-08
-5.89227e-08
-1.84603e-07
1.27578e-08
-5.94917e-08
-1.39106e-07
1.09348e-08
-6.01695e-08
-1.32686e-07
-6.08308e-08
-5.70034e-08
-7.79456e-09
-1.92901e-07
1.15691e-08
-1.90964e-07
1.20399e-08
-1.45804e-07
1.0388e-08
-1.395e-07
-6.40653e-08
4.70464e-08
-2.52013e-07
-7.43978e-08
1.19451e-07
-2.53849e-07
-7.05839e-08
1.58595e-07
-2.55025e-07
8.65419e-09
1.92782e-07
-2.55832e-07
2.05658e-08
-2.55484e-07
1.52906e-07
4.35568e-08
-2.25457e-07
-2.2484e-07
1.17688e-07
-2.27635e-07
-2.21429e-07
1.57975e-07
-2.29369e-07
-1.41336e-07
1.93079e-07
-2.30414e-07
-1.29313e-07
-2.30681e-07
4.8785e-09
4.17077e-08
-1.92318e-07
-2.40858e-07
1.16273e-07
-1.94705e-07
-2.37682e-07
1.56935e-07
-1.96955e-07
-1.57692e-07
1.92366e-07
-1.98206e-07
-1.45711e-07
-1.99183e-07
-1.14095e-08
3.82494e-08
-1.20048e-07
-3.3521e-07
1.13971e-07
-1.22536e-07
-3.32475e-07
1.55523e-07
-1.25351e-07
-2.52248e-07
1.91747e-07
-1.26765e-07
-2.40337e-07
-1.2866e-07
-1.05174e-07
3.57483e-08
-3.43916e-07
1.11845e-07
-3.41471e-07
1.53807e-07
-2.61691e-07
1.90434e-07
-2.49927e-07
-1.15085e-07
2.81134e-08
-2.12077e-07
-1.14442e-07
9.48242e-08
-2.12123e-07
-1.06475e-07
1.29441e-07
-2.10711e-07
4.83045e-09
1.58172e-07
-2.10794e-07
2.27766e-08
-2.08918e-07
1.99707e-07
2.96572e-08
-1.96192e-07
-3.11231e-07
9.6386e-08
-1.9658e-07
-3.03686e-07
1.31232e-07
-1.95847e-07
-1.91029e-07
1.6015e-07
-1.96181e-07
-1.72827e-07
-1.94985e-07
7.05397e-09
2.93009e-08
-1.71472e-07
-3.35839e-07
9.59288e-08
-1.72296e-07
-3.28578e-07
1.30818e-07
-1.72402e-07
-2.16012e-07
1.59851e-07
-1.73017e-07
-1.97893e-07
-1.72719e-07
-1.77467e-08
2.92195e-08
-1.11759e-07
-4.65086e-07
9.59672e-08
-1.13013e-07
-4.58489e-07
1.31113e-07
-1.14176e-07
-3.45604e-07
1.60445e-07
-1.151e-07
-3.27571e-07
-1.16034e-07
-1.46031e-07
2.79419e-08
-4.81491e-07
9.46653e-08
-4.75373e-07
1.29942e-07
-3.63137e-07
1.59507e-07
-3.45373e-07
-1.64204e-07
8.16154e-08
-3.64767e-07
-1.75455e-07
1.91004e-07
-3.66636e-07
-1.63143e-07
2.47403e-07
-3.66676e-07
1.58559e-09
2.94276e-07
-3.67314e-07
2.9403e-08
-3.65031e-07
2.88064e-07
7.87366e-08
-3.27961e-07
-4.63636e-07
1.90461e-07
-3.30317e-07
-4.51712e-07
2.48477e-07
-3.31318e-07
-2.84385e-07
2.96531e-07
-3.32306e-07
-2.55871e-07
-3.31048e-07
7.90146e-09
7.67982e-08
-2.78865e-07
-5.01064e-07
1.89033e-07
-2.81637e-07
-4.89479e-07
2.47495e-07
-2.83728e-07
-3.22048e-07
2.95941e-07
-2.85088e-07
-2.93541e-07
-2.85237e-07
-2.90648e-08
7.30131e-08
-1.70254e-07
-6.91501e-07
1.86918e-07
-1.73369e-07
-6.80644e-07
2.46658e-07
-1.76822e-07
-5.12233e-07
2.96192e-07
-1.78582e-07
-4.83595e-07
-1.80701e-07
-2.16446e-07
6.98964e-08
-7.15342e-07
1.84266e-07
-7.05106e-07
2.44505e-07
-5.37409e-07
2.94562e-07
-5.09064e-07
-2.42218e-07
1.0233e-07
-4.60266e-07
-2.57549e-07
2.43328e-07
-4.61231e-07
-2.38607e-07
3.17305e-07
-4.58499e-07
-6.94116e-09
3.78438e-07
-4.58426e-07
3.39916e-08
-4.52985e-07
3.97866e-07
1.02688e-07
-4.12595e-07
-6.61101e-07
2.4609e-07
-4.14135e-07
-6.42191e-07
3.21783e-07
-4.12641e-07
-4.05917e-07
3.83951e-07
-4.13009e-07
-3.63436e-07
-4.08918e-07
9.0436e-09
1.01356e-07
-3.47857e-07
-7.16051e-07
2.45222e-07
-3.50001e-07
-6.97462e-07
3.21334e-07
-3.50134e-07
-4.60648e-07
3.83868e-07
-3.51037e-07
-4.18029e-07
-3.4905e-07
-4.4017e-08
9.96889e-08
-2.0987e-07
-9.81413e-07
2.45217e-07
-2.12639e-07
-9.63516e-07
3.22613e-07
-2.1498e-07
-7.24764e-07
3.86129e-07
-2.16543e-07
-6.81587e-07
-2.17597e-07
-3.02954e-07
9.68832e-08
-1.01677e-06
2.42791e-07
-9.99627e-07
3.2064e-07
-7.61587e-07
3.84663e-07
-7.18725e-07
-3.40149e-07
1.71448e-07
-6.61291e-07
-3.7483e-07
3.7289e-07
-6.63194e-07
-3.45183e-07
4.75982e-07
-6.59651e-07
-1.52929e-08
5.58218e-07
-6.59286e-07
4.6772e-08
-6.50661e-07
5.6095e-07
1.69767e-07
-5.92362e-07
-9.47115e-07
3.76257e-07
-5.95057e-07
-9.16797e-07
4.82663e-07
-5.93274e-07
-5.78678e-07
5.66837e-07
-5.93508e-07
-5.13366e-07
-5.86775e-07
1.52615e-08
1.67545e-07
-4.97056e-07
-1.02971e-06
3.75179e-07
-5.00568e-07
-9.99566e-07
4.82417e-07
-5.01191e-07
-6.59949e-07
5.67206e-07
-5.02238e-07
-5.94067e-07
-4.98759e-07
-6.22035e-08
1.63378e-07
-2.93305e-07
-1.40733e-06
3.74575e-07
-2.97705e-07
-1.37756e-06
4.84274e-07
-3.01776e-07
-1.03386e-06
5.70859e-07
-3.03934e-07
-9.66455e-07
-3.05377e-07
-4.26351e-07
1.5898e-07
-1.45942e-06
3.7109e-07
-1.43045e-06
4.81625e-07
-1.08714e-06
5.69015e-07
-1.01988e-06
-4.79107e-07
2.46279e-07
-9.19013e-07
-5.40968e-07
5.28179e-07
-9.20264e-07
-4.95421e-07
6.73542e-07
-9.12261e-07
-2.98517e-08
7.88594e-07
-9.10551e-07
6.27898e-08
-8.94867e-07
7.89295e-07
2.47663e-07
-8.20319e-07
-1.35128e-06
5.36746e-07
-8.22598e-07
-1.30352e-06
6.86985e-07
-8.16888e-07
-8.24263e-07
8.04345e-07
-8.16003e-07
-7.25249e-07
-8.02847e-07
2.49047e-08
2.45647e-07
-6.82525e-07
-1.47481e-06
5.36341e-07
-6.86014e-07
-1.42682e-06
6.87771e-07
-6.84032e-07
-9.44211e-07
8.05908e-07
-6.8441e-07
-8.43773e-07
-6.76381e-07
-8.72967e-08
2.42922e-07
-3.96392e-07
-2.00621e-06
5.38469e-07
-4.01224e-07
-1.95788e-06
6.93405e-07
-4.04432e-07
-1.46837e-06
8.13652e-07
-4.06545e-07
-1.36454e-06
-4.06064e-07
-5.94448e-07
2.3804e-07
-2.08319e-06
5.34746e-07
-2.03557e-06
6.90798e-07
-1.54583e-06
8.12027e-07
-1.44178e-06
-6.69607e-07
3.66978e-07
-1.2867e-06
-7.70858e-07
7.59082e-07
-1.28717e-06
-6.99619e-07
9.59242e-07
-1.27237e-06
-4.44946e-08
1.11108e-06
-1.26755e-06
9.60931e-08
-1.24013e-06
1.1144e-06
3.70376e-07
-1.15272e-06
-1.9178e-06
7.75338e-07
-1.15456e-06
-1.84106e-06
9.83312e-07
-1.14293e-06
-1.16164e-06
1.1385e-06
-1.13926e-06
-1.0087e-06
-1.11524e-06
4.94403e-08
3.68673e-07
-9.57399e-07
-2.10659e-06
7.76928e-07
-9.61043e-07
-2.02857e-06
9.86962e-07
-9.54915e-07
-1.34224e-06
1.1433e-06
-9.53307e-07
-1.18604e-06
-9.37177e-07
-1.15552e-07
3.65831e-07
-5.50101e-07
-2.8603e-06
7.8311e-07
-5.56206e-07
-2.77998e-06
9.98572e-07
-5.59134e-07
-2.07958e-06
1.15804e-06
-5.60827e-07
-1.91647e-06
-5.57564e-07
-8.21861e-07
3.59728e-07
-2.97697e-06
7.79444e-07
-2.89711e-06
9.96694e-07
-2.1945e-06
1.15754e-06
-2.0301e-06
-9.30069e-07
5.39787e-07
-1.82936e-06
-1.10092e-06
1.09965e-06
-1.82795e-06
-9.89562e-07
1.3857e-06
-1.80375e-06
-6.46635e-08
1.59788e-06
-1.7946e-06
1.49142e-07
-1.75059e-06
1.58631e-06
5.48991e-07
-1.63966e-06
-2.73022e-06
1.12731e-06
-1.63997e-06
-2.60733e-06
1.4261e-06
-1.61958e-06
-1.64456e-06
1.642e-06
-1.61186e-06
-1.4073e-06
-1.5718e-06
9.2486e-08
5.48309e-07
-1.35249e-06
-3.02273e-06
1.13156e-06
-1.3556e-06
-2.89616e-06
1.43364e-06
-1.3445e-06
-1.91936e-06
1.65092e-06
-1.34015e-06
-1.67499e-06
-1.3131e-06
-1.51797e-07
5.47545e-07
-7.69158e-07
-4.08764e-06
1.14294e-06
-7.75671e-07
-3.95529e-06
1.45407e-06
-7.77025e-07
-2.95815e-06
1.67494e-06
-7.77759e-07
-2.6997e-06
-7.69487e-07
-1.13897e-06
5.40894e-07
-4.26738e-06
1.13942e-06
-4.13339e-06
1.45326e-06
-3.13084e-06
1.67581e-06
-2.86872e-06
-1.29673e-06
7.76037e-07
-2.56847e-06
-1.54781e-06
1.54893e-06
-2.56053e-06
-1.37285e-06
1.9442e-06
-2.51106e-06
-8.06875e-08
2.22196e-06
-2.48951e-06
2.47285e-07
-2.40739e-06
2.25092e-06
7.99243e-07
-2.31615e-06
-3.86373e-06
1.6067e-06
-2.31057e-06
-3.66471e-06
2.02121e-06
-2.2662e-06
-2.30389e-06
2.30406e-06
-2.24693e-06
-1.9327e-06
-2.17004e-06
1.7814e-07
8.02565e-07
-1.91124e-06
-4.32149e-06
1.62001e-06
-1.91041e-06
-4.11374e-06
2.0405e-06
-1.87852e-06
-2.72749e-06
2.32569e-06
-1.86523e-06
-2.34183e-06
-1.80789e-06
-1.87569e-07
8.09807e-07
-1.08065e-06
-5.842e-06
1.65195e-06
-1.08723e-06
-5.6206e-06
2.08465e-06
-1.08024e-06
-4.1891e-06
2.37474e-06
-1.07692e-06
-3.77806e-06
-1.05428e-06
-1.55591e-06
8.03262e-07
-6.12366e-06
1.65282e-06
-5.89954e-06
2.09024e-06
-4.45453e-06
2.38273e-06
-4.03471e-06
-1.78848e-06
1.1546e-06
-3.68706e-06
-2.19179e-06
2.2714e-06
-3.6703e-06
-1.91191e-06
2.83967e-06
-3.6012e-06
-8.63497e-08
3.22037e-06
-3.56257e-06
4.23061e-07
-3.44313e-06
3.24835e-06
1.19259e-06
-3.34476e-06
-5.49412e-06
2.35533e-06
-3.33039e-06
-5.16731e-06
2.95724e-06
-3.26599e-06
-3.24097e-06
3.34001e-06
-3.22931e-06
-2.64868e-06
-3.11239e-06
3.38366e-07
1.20322e-06
-2.74197e-06
-6.23499e-06
2.3819e-06
-2.73396e-06
-5.8888e-06
2.99352e-06
-2.69493e-06
-3.91014e-06
3.37824e-06
-2.66812e-06
-3.2877e-06
-2.58546e-06
-2.17443e-07
1.21507e-06
-1.54889e-06
-8.38632e-06
2.42165e-06
-1.55021e-06
-8.01092e-06
3.05803e-06
-1.53957e-06
-5.9808e-06
3.44699e-06
-1.52905e-06
-5.30605e-06
-1.49275e-06
-2.13638e-06
1.21326e-06
-8.85058e-06
2.42849e-06
-8.45608e-06
3.0712e-06
-6.39789e-06
3.46262e-06
-5.70386e-06
-2.48742e-06
1.63322e-06
-5.21904e-06
-3.03966e-06
3.16433e-06
-5.17613e-06
-2.59457e-06
3.95066e-06
-5.0231e-06
-5.97835e-08
4.43443e-06
-4.94339e-06
7.36736e-07
-4.70434e-06
4.65051e-06
1.72549e-06
-4.78275e-06
-7.76317e-06
3.35187e-06
-4.74301e-06
-7.22676e-06
4.18654e-06
-4.59393e-06
-4.50477e-06
4.67322e-06
-4.51822e-06
-3.56049e-06
-4.28237e-06
6.33891e-07
1.75167e-06
-3.93371e-06
-8.95854e-06
3.40788e-06
-3.91224e-06
-8.37574e-06
4.26261e-06
-3.78933e-06
-5.56941e-06
4.75362e-06
-3.73337e-06
-4.56351e-06
-3.54687e-06
-2.19815e-07
1.80073e-06
-2.20917e-06
-1.20738e-05
3.53065e-06
-2.21179e-06
-1.14413e-05
4.4108e-06
-2.1632e-06
-8.48705e-06
4.90508e-06
-2.13688e-06
-7.39677e-06
-2.04591e-06
-2.86895e-06
1.79847e-06
-1.28103e-05
3.55272e-06
-1.21634e-05
4.45125e-06
-9.15972e-06
4.94873e-06
-8.02261e-06
-3.40258e-06
2.48815e-06
-7.60775e-06
-4.24117e-06
4.74445e-06
-7.52131e-06
-3.50817e-06
5.88329e-06
-7.32541e-06
8.51285e-08
6.51245e-06
-7.1674e-06
1.35324e-06
-6.84294e-06
6.86407e-06
2.62582e-06
-7.07722e-06
-1.10433e-05
4.99911e-06
-6.99215e-06
-1.01292e-05
6.22927e-06
-6.79651e-06
-6.26378e-06
6.8372e-06
-6.63438e-06
-4.70139e-06
-6.28971e-06
1.22542e-06
2.6941e-06
-5.78572e-06
-1.30884e-05
5.12865e-06
-5.71003e-06
-1.20924e-05
6.3908e-06
-5.59718e-06
-8.03084e-06
6.99493e-06
-5.46737e-06
-6.3346e-06
-5.21579e-06
-1.1073e-07
2.75461e-06
-3.30533e-06
-1.75042e-05
5.24397e-06
-3.25474e-06
-1.63859e-05
6.58639e-06
-3.19657e-06
-1.223e-05
7.18954e-06
-3.12883e-06
-1.03384e-05
-2.99496e-06
-3.84754e-06
2.80326e-06
-1.88563e-05
5.31659e-06
-1.76103e-05
6.6683e-06
-1.33332e-05
7.27384e-06
-1.13608e-05
-4.68656e-06
3.51423e-06
-1.09446e-05
-5.68956e-06
6.5981e-06
-1.07505e-05
-4.51195e-06
8.16352e-06
-1.02788e-05
4.65499e-07
8.88973e-06
-9.97317e-06
2.47778e-06
-9.28431e-06
1.00594e-05
3.85588e-06
-1.04777e-05
-1.5504e-05
7.21383e-06
-1.02538e-05
-1.39838e-05
8.89855e-06
-9.72319e-06
-8.50409e-06
9.57721e-06
-9.39034e-06
-5.96285e-06
-8.65466e-06
2.32397e-06
4.03602e-06
-8.76881e-06
-1.8998e-05
7.48868e-06
-8.57847e-06
-1.72203e-05
9.23412e-06
-8.0569e-06
-1.14425e-05
9.88681e-06
-7.78298e-06
-8.59462e-06
-7.16966e-06
2.28695e-07
4.33904e-06
-5.10445e-06
-2.57413e-05
8.01221e-06
-4.95575e-06
-2.36818e-05
9.76359e-06
-4.65391e-06
-1.73844e-05
1.03538e-05
-4.4722e-06
-1.42394e-05
-4.13212e-06
-4.92618e-06
4.50702e-06
-2.83878e-05
8.21774e-06
-2.58797e-05
9.99574e-06
-1.92998e-05
1.05535e-05
-1.59008e-05
-6.23691e-06
5.59589e-06
-1.66297e-05
-7.41274e-06
1.02696e-05
-1.61864e-05
-5.42227e-06
1.25549e-05
-1.55008e-05
1.6013e-06
1.33197e-05
-1.47847e-05
4.84944e-06
-1.38178e-05
1.54148e-05
6.29085e-06
-1.68703e-05
-2.17084e-05
1.12863e-05
-1.61833e-05
-1.89822e-05
1.37353e-05
-1.5266e-05
-1.11879e-05
1.42869e-05
-1.43445e-05
-6.95458e-06
-1.31687e-05
4.65554e-06
7.09234e-06
-1.52063e-05
-2.79494e-05
1.24013e-05
-1.41396e-05
-2.45729e-05
1.46666e-05
-1.3028e-05
-1.59459e-05
1.50074e-05
-1.19813e-05
-1.12986e-05
-1.09875e-05
1.31609e-06
7.88232e-06
-9.90057e-06
-3.92448e-05
1.34609e-05
-8.72938e-06
-3.46706e-05
1.56009e-05
-7.7695e-06
-2.47828e-05
1.56892e-05
-7.01112e-06
-1.92977e-05
-6.35329e-06
-5.94748e-06
8.99947e-06
-4.71507e-05
1.44606e-05
-3.95274e-05
1.62916e-05
-2.83207e-05
1.61413e-05
-2.21496e-05
-8.0749e-06
8.43729e-06
-2.50665e-05
-8.68965e-06
1.48066e-05
-2.3725e-05
-5.45865e-06
1.7508e-05
-2.20014e-05
4.40696e-06
1.79362e-05
-2.06425e-05
9.25642e-06
-1.85016e-05
2.31298e-05
1.00925e-05
-2.83754e-05
-2.86693e-05
1.75635e-05
-2.60274e-05
-2.41508e-05
2.01612e-05
-2.25521e-05
-1.32349e-05
2.00758e-05
-2.08773e-05
-6.63438e-06
-1.82157e-05
9.02851e-06
1.16376e-05
-2.58518e-05
-4.23432e-05
1.92252e-05
-2.45237e-05
-3.36642e-05
2.19284e-05
-2.01369e-05
-2.10642e-05
2.14864e-05
-1.83746e-05
-1.33592e-05
-1.55893e-05
4.06033e-06
1.34221e-05
-1.45502e-05
-6.43408e-05
2.35363e-05
-1.44888e-05
-5.48197e-05
2.52755e-05
-1.27412e-05
-3.39178e-05
2.31545e-05
-1.10112e-05
-2.45401e-05
-9.29184e-06
-6.08396e-06
1.3486e-05
-7.50287e-05
2.48215e-05
-6.46774e-05
2.76495e-05
-4.30949e-05
2.45025e-05
-2.92495e-05
-9.46088e-06
1.39575e-05
-4.0792e-05
-7.9757e-06
2.3186e-05
-3.67231e-05
-3.05066e-06
2.64123e-05
-3.32799e-05
1.02904e-05
2.59705e-05
-3.03073e-05
1.72829e-05
-2.67184e-05
3.37242e-05
1.65089e-05
-4.28906e-05
-4.3268e-05
2.77692e-05
-4.11534e-05
-3.09809e-05
3.10662e-05
-3.60703e-05
-1.37414e-05
2.95637e-05
-3.19548e-05
-3.48439e-06
-2.73566e-05
1.70354e-05
1.79744e-05
-3.42796e-05
-6.91675e-05
3.16319e-05
-3.2984e-05
-5.54912e-05
3.52516e-05
-3.28201e-05
-2.7934e-05
3.26125e-05
-2.88816e-05
-1.37933e-05
-2.42592e-05
9.91959e-06
1.8682e-05
-2.09062e-05
-9.6788e-05
3.18465e-05
-1.97773e-05
-8.11907e-05
4.01038e-05
-1.90818e-05
-5.59134e-05
3.60353e-05
-1.76651e-05
-3.1688e-05
-1.51173e-05
-3.73574e-06
1.98537e-05
-0.000115592
3.31965e-05
-9.70675e-05
4.1803e-05
-6.98523e-05
4.0109e-05
-4.42142e-05
-8.84435e-06
1.60318e-05
-5.10522e-05
-8.78818e-06
2.77409e-05
-4.80873e-05
-9.36826e-07
3.27037e-05
-4.38797e-05
1.68182e-05
3.23567e-05
-3.89091e-05
2.6406e-05
-3.30964e-05
4.51054e-05
1.98851e-05
-5.19275e-05
-6.24367e-05
3.53476e-05
-4.90092e-05
-4.55214e-05
3.97038e-05
-4.62706e-05
-1.57067e-05
3.81695e-05
-4.05968e-05
-2.62301e-07
-3.37343e-05
2.62685e-05
2.15293e-05
-4.29909e-05
-9.98561e-05
3.6503e-05
-4.02895e-05
-7.91846e-05
4.55632e-05
-3.74087e-05
-4.58561e-05
4.31033e-05
-3.60999e-05
-1.58303e-05
-2.89122e-05
1.63533e-05
2.35932e-05
-2.64868e-05
-0.000137294
3.91963e-05
-2.47332e-05
-0.00011235
4.80791e-05
-2.25442e-05
-7.96607e-05
4.72942e-05
-2.0745e-05
-4.62579e-05
-1.72e-05
-1.85349e-06
2.533e-05
-0.000167222
4.18907e-05
-0.000137568
5.0964e-05
-0.000100506
5.03717e-05
-6.33636e-05
-9.80572e-06
2.43708e-05
-7.45496e-05
-1.11245e-05
4.01556e-05
-6.87402e-05
2.77066e-06
4.9039e-05
-6.34742e-05
2.41837e-05
4.99139e-05
-5.50033e-05
3.79997e-05
-5.10742e-05
6.58499e-05
2.92719e-05
-8.10963e-05
-8.5357e-05
4.78833e-05
-7.35817e-05
-5.92913e-05
5.80199e-05
-6.77244e-05
-2.15931e-05
5.38456e-05
-5.92927e-05
8.20131e-06
-5.03438e-05
3.76771e-05
3.51128e-05
-7.00576e-05
-0.000146253
5.54672e-05
-6.23499e-05
-0.000110771
6.64412e-05
-5.69172e-05
-6.76372e-05
6.23468e-05
-4.93318e-05
-2.16967e-05
-4.18016e-05
2.37698e-05
3.9405e-05
-4.70545e-05
-0.000200212
6.09107e-05
-4.08449e-05
-0.000155361
7.22562e-05
-3.65949e-05
-0.000111328
6.74841e-05
-3.08064e-05
-6.00113e-05
-2.62265e-05
1.69665e-06
4.56258e-05
-0.000259576
6.85901e-05
-0.000200392
7.96844e-05
-0.000146865
7.30744e-05
-8.61476e-05
-1.26932e-05
3.37117e-05
-0.000101155
-1.5834e-05
5.43169e-05
-9.22868e-05
7.74094e-06
6.55463e-05
-8.47189e-05
3.46762e-05
6.51232e-05
-7.41824e-05
5.62902e-05
-6.62118e-05
9.43011e-05
4.12186e-05
-0.000114925
-0.000113001
6.52629e-05
-0.000102809
-7.28135e-05
7.71933e-05
-9.21829e-05
-2.60594e-05
7.30398e-05
-7.85354e-05
1.67079e-05
-6.68095e-05
5.58168e-05
5.00758e-05
-0.00010279
-0.000208736
7.84153e-05
-9.0192e-05
-0.000151727
9.09213e-05
-7.99226e-05
-9.24035e-05
8.37031e-05
-6.68629e-05
-2.6151e-05
-5.58155e-05
3.42052e-05
5.83921e-05
-6.89937e-05
-0.000292962
8.85497e-05
-6.01173e-05
-0.000215593
0.00010143
-5.17178e-05
-0.000152413
9.11351e-05
-4.29172e-05
-7.36626e-05
-3.52794e-05
6.39386e-06
6.73273e-05
-0.000395613
0.000101338
-0.000293343
0.000113719
-0.000209506
0.000100271
-0.000114029
-1.75565e-05
5.53422e-05
-0.000163838
-1.48212e-05
8.95871e-05
-0.000141609
1.92375e-05
0.000103688
-0.000131519
6.02893e-05
9.6852e-05
-0.000110913
9.50197e-05
-9.85351e-05
0.000144112
7.00125e-05
-0.000205021
-0.000142068
0.000105129
-0.000172319
-7.72192e-05
0.000120918
-0.000152573
-2.07944e-05
0.000109259
-0.000122765
4.02188e-05
-0.0001056
9.44385e-05
9.49659e-05
-0.000201718
-0.000307281
0.000137523
-0.000161371
-0.000205232
0.000150669
-0.00013969
-0.000118432
0.000129773
-0.000107251
-2.07696e-05
-9.17619e-05
5.97125e-05
0.000113887
-0.000154964
-0.000454364
0.000159243
-0.000116179
-0.000306141
0.00017041
-9.7243e-05
-0.000206027
0.000139851
-7.22369e-05
-7.81175e-05
-5.76868e-05
1.77089e-05
0.000152818
-0.0007027
0.00019958
-0.00045479
0.000203048
-0.000308117
0.000161948
-0.000143048
-1.6728e-05
7.36376e-05
-0.000235956
-1.25962e-06
0.000117269
-0.000197653
4.56414e-05
0.000133743
-0.000177564
0.00010128
0.000122145
-0.000143419
0.000150198
-0.000123547
0.000208006
0.000101584
-0.000307666
-0.000172109
0.000146953
-0.000249137
-7.11055e-05
0.000163922
-0.000213766
-1.56105e-06
0.000141867
-0.000165726
8.45806e-05
-0.0001354
0.000149514
0.00014295
-0.000312674
-0.000445577
0.000199485
-0.000243853
-0.000267052
0.000212141
-0.00020149
-0.000143364
0.000176282
-0.000149245
-1.39203e-06
-0.000119231
0.000100663
0.000184742
-0.000245649
-0.000706919
0.000241462
-0.000187094
-0.00041962
0.000247229
-0.000145174
-0.000268111
0.000195948
-0.000103946
-7.21358e-05
-7.56163e-05
4.36738e-05
0.000243427
-0.00119148
0.000310796
-0.000707448
0.0003062
-0.000446588
0.000235121
-0.000173556
-2.99635e-06
0.000129835
-0.000409392
5.47988e-05
0.000185404
-0.000320269
0.000127398
0.00020146
-0.00028266
0.000195324
0.000173659
-0.000209458
0.000253018
-0.000176251
0.000312616
0.000177372
-0.000596504
-0.0001627
0.000239629
-0.000438521
-1.51103e-05
0.000256787
-0.000366555
6.51761e-05
0.000206992
-0.000259434
0.000184352
-0.000204296
0.000252236
0.000296301
-0.00069985
-0.000638936
0.00036826
-0.000468007
-0.000309525
0.000363636
-0.000371747
-0.000133548
0.000279997
-0.000242752
6.55654e-05
-0.000188804
0.000194932
0.00040114
-0.000644165
-0.00116522
0.00046465
-0.000405211
-0.000545926
0.000435821
-0.000300024
-0.000311004
0.000317623
-0.0001808
-1.58904e-05
-0.000133189
0.000125071
0.000640943
-0.00247477
0.000696658
-0.00116481
0.000593818
-0.00063965
0.000406182
-0.00016321
5.30562e-05
0.000164749
-0.000573442
0.000164444
0.000229225
-0.000416933
0.00025581
0.000242112
-0.00035703
0.000326593
0.000206385
-0.000250522
0.000382121
-0.000208184
0.000436456
0.000257349
-0.000893101
-0.000100341
0.0003168
-0.000613602
0.000122108
0.000319756
-0.000492272
0.000197462
0.000248388
-0.000321816
0.000327014
-0.000243881
0.000380979
0.00044359
-0.00111341
-0.000862503
0.00052351
-0.000712112
-0.000290934
0.000490501
-0.000525498
-6.73124e-05
0.000355625
-0.000319511
0.000198137
-0.000230953
0.000325982
0.00067852
-0.00107488
-0.0018829
0.000709344
-0.000679499
-0.000609362
0.000611583
-0.000445562
-0.000293179
0.000414509
-0.000259627
0.000121299
-0.000165826
0.000252618
0.0010735
-0.00462429
0.00111131
-0.00188435
0.0008913
-0.000863044
0.000572284
-0.000101068
0.000163335
0.000243248
-0.000956016
0.000437471
0.000321907
-0.000638161
0.000506328
0.000325275
-0.000520223
0.000557117
0.000263377
-0.000333548
0.000582346
-0.000267204
0.000610053
0.000414926
-0.00168675
0.000214943
0.000479767
-0.00103049
0.000449598
0.000450714
-0.00076888
0.000475171
0.000330032
-0.000454241
0.000568389
-0.000329483
0.000581299
0.000845492
-0.00277497
-0.000620519
0.000930254
-0.00138807
-1.81231e-05
0.000764749
-0.000935394
0.000264707
0.000516132
-0.000483757
0.00047627
-0.000327044
0.000557102
0.00148384
-0.00319002
-0.000588953
-0.000623769
-0.000939934
-0.000802499
0.00138276
-0.00149146
-0.000404887
0.00102728
-0.00085246
-2.06345e-05
0.000634384
-0.000419391
0.000449826
-0.000248847
0.000503725
0.00318591
-0.00262835
-0.0020484
-0.00369298
-0.00262568
0.00277049
-0.000801003
-0.000623107
-0.000935236
-0.000584324
0.00168387
-0.000619004
0.000952108
0.000217579
0.000437828
0.000287484
-0.00126564
0.000904677
0.000350782
-0.000715146
0.000852444
0.000338012
-0.000579033
0.000842472
0.000272728
-0.000336673
0.000793547
-0.000274805
0.000778436
0.000531961
-0.0025188
0.000936415
0.000537764
-0.0011924
0.000921054
0.00046742
-0.000900526
0.000867009
0.000334024
-0.000469414
0.000834527
-0.000340271
0.000792693
0.00134477
-0.00129051
0.00104295
-0.00131023
-0.00154439
-0.00138275
0.00124163
-0.00207224
0.000964849
0.00089835
-0.00124193
0.00094939
0.000577636
-0.000540309
0.000867879
-0.000352692
0.000842353
0.000484975
-0.00179044
-0.000574906
0.00206854
-0.000679871
0.000359495
0.000224911
0.000311601
0.000362743
-0.00065591
-0.000684271
-0.000613533
-0.000950822
-0.000654936
-0.000954184
-0.000610887
0.00119034
-0.00134421
0.000959845
0.000711178
-0.000532275
0.000920952
-0.000289127
0.00085011
0.00129276
-0.00199549
0.00220073
-0.00112836
-0.000910954
-0.000901938
-0.0011888
-0.00153543
0.00157178
-0.000617235
-0.000899993
0.00251638
0.00103769
-0.00130717
-0.00128794
-0.00138067
-0.0015412
0.00126372
0.000935524
0.000903816
0.000293439
-0.00142862
0.0014374
0.000366704
-0.000838138
0.00127038
0.000345405
-0.000636271
0.00115551
0.000273732
-0.000360516
0.00102709
-0.000278583
0.000946422
0.000580699
-0.00282852
0.00175574
0.000589389
-0.00141631
0.00149054
0.000508508
-0.00102119
0.00133281
0.000356406
-0.000512293
0.00113841
-0.000351013
0.00102706
0.00141578
-0.00201037
0.00315356
-0.00160073
-0.00152141
-0.0012236
0.00141725
-0.000865063
0.00228092
-0.000682724
-0.000648374
-0.000537698
0.00101456
-0.00142784
0.00175874
0.000630916
-0.000593446
0.00133267
-0.000373334
0.00115648
0.000759063
0.000835305
0.000270504
-0.000934126
-0.000986942
-0.000983804
-0.000968781
-0.000865518
0.000812579
-0.00110853
0.000655898
0.00141271
-0.00143543
0.00228183
-0.000681188
-0.000862509
-0.000538307
-0.000645095
0.000834096
-0.000583916
0.00149003
-0.000299686
0.00127025
0.00171266
0.00124759
0.000568503
-0.00150812
-0.00201947
-0.000857513
0.00248286
-0.00117144
-0.000834154
-0.00114486
0.00142299
0.000337093
0.000323569
0.000360615
0.000301116
0.000217534
-0.000422977
-0.000389797
-0.000281789
-0.000343253
0.00282072
0.00315704
-0.00159373
-0.0020094
-0.00122385
-0.0015196
0.00142434
0.00175651
0.00144391
0.000151442
-0.000643652
0.00158648
0.000202765
-0.000366213
0.00139046
0.000204651
-0.000337366
0.00127345
0.000186845
-0.000202189
0.00111773
-0.000188486
0.00101125
0.000299176
-0.00105578
0.00186957
0.00029051
-0.000479359
0.00161235
0.000258473
-0.000457098
0.00148458
0.00019975
-0.00025976
0.0012547
-0.000206628
0.00111867
0.000590335
-0.00102918
0.00325723
-0.000712042
-6.82415e-05
5.94592e-05
0.000573325
-0.000523667
0.00234224
0.000456151
-0.000572026
0.00199084
0.000336789
-0.000291277
0.00148355
-0.000203663
0.00127434
0.000288474
0.00127454
-0.00146812
-0.000177368
-0.000423759
-0.000405625
-0.000115619
0.000519737
-0.00012813
0.00290486
-0.000352109
-0.000118134
-6.63348e-05
0.00047945
-0.000306631
0.000477383
-6.6807e-05
-0.000875726
-0.000730363
-0.00138518
-0.00087568
0.000476829
-0.000591845
0.00234456
0.000362246
-0.000297669
0.00161101
-0.000153378
0.00139345
0.000136772
0.00462266
-8.97774e-05
-4.02039e-05
-0.00462978
-0.000225346
0.000598638
0.00122424
4.16864e-05
3.29267e-05
0.000266276
-0.000535075
-2.55131e-05
9.14798e-05
-6.30823e-05
-0.000105036
-0.000438916
-0.000482944
-0.000507466
0.00105678
0.00325689
-0.000722729
-0.00103778
6.03899e-05
-7.47339e-05
0.000644683
0.00186463
0.00158892
-2.15904e-05
-0.000159519
0.00142754
4.2415e-05
-0.000142882
0.00132795
7.08075e-05
-0.000143397
0.00123037
9.69378e-05
-0.000114046
0.00111826
-0.00010102
0.00100339
0.00018544
-0.000298866
0.00182415
0.000153463
-8.05166e-05
0.00158196
0.000118154
-7.88184e-05
0.00145531
0.000109769
-0.000123556
0.0012726
-7.5441e-05
0.00111914
-0.000179023
0.000967603
0.00216984
-5.61682e-05
0.000178037
0.00196083
7.48926e-05
5.22327e-05
0.00172873
0.000139644
-0.00016097
0.00145622
-4.71857e-05
0.00123093
-0.000770532
0.0014656
-0.000686273
0.00169638
0.000722644
0.00120039
-0.000400028
-0.000297981
0.00182186
-0.000208425
-0.000463312
-0.00193861
-0.00117492
-0.000191134
0.000733466
0.00177004
7.82004e-05
0.000168717
0.00195874
0.000138878
-0.000193528
0.00158289
1.64536e-05
0.00133013
-0.00157717
0.000694184
-0.0125687
0.00351178
0.00313182
0.00435072
0.00391703
-0.000956903
-0.00119919
0.00165504
0.0014788
0.00121436
0.000735035
-0.000209956
-0.000300995
0.00181201
-0.000398776
-0.000457021
-0.00193801
-0.000678125
0.000304356
0.00217051
0.000158022
0.00182784
0.00142778
-5.09456e-05
3.7662e-06
0.0013415
-4.76038e-05
4.8529e-05
0.0012408
-2.42081e-05
1.39398e-05
0.00113405
2.9078e-05
3.50354e-06
0.00104126
-2.95629e-05
0.000927036
2.48252e-05
-6.48775e-05
0.0018693
8.4192e-06
2.84471e-05
0.00161845
-3.22402e-05
0.00011856
0.00139135
-5.07349e-06
3.03818e-05
0.00121855
2.3407e-05
0.00104269
-0.000112906
-0.00010652
0.00234633
0.000197959
-0.000151166
-6.70201e-05
-0.000153034
1.90886e-05
0.00201032
-0.000120329
0.000154833
0.00165975
-1.31158e-05
-1.15139e-05
0.0013909
4.82394e-05
0.00113428
-3.32843e-05
-0.000289278
-0.000471814
-1.00685e-05
-0.000266893
0.000784108
0.000628963
0.000831556
0.00078108
2.42412e-05
-0.000264778
0.000123578
-0.000513235
2.68347e-05
-0.000486648
0.000130385
-2.62633e-05
0.000116816
0.00201295
-4.93507e-05
-2.68194e-05
0.00162128
5.14627e-05
0.00124438
0.0026228
0.000205427
5.42413e-05
-0.000303489
-0.00257793
5.61006e-05
-4.88094e-05
-0.000346301
-0.000782482
-6.27478e-05
-3.63376e-05
-0.000245502
7.137e-05
0.00234092
0.000198783
-0.000111525
-6.44601e-05
-0.000148952
-3.49268e-07
0.00187559
0.00134067
-0.000110704
0.000336014
0.00120092
-0.00011231
0.00026126
0.00111384
-0.000106218
0.000172043
0.00100094
-5.23313e-05
0.000119925
0.00092708
4.77939e-05
0.00081171
-0.000120383
0.000632404
0.00169391
-0.000184611
0.000482284
0.00146165
-0.000183745
0.000299964
0.00126256
-0.000123014
0.000181212
0.00109653
0.000101389
0.000929672
-0.000398912
-0.000129929
0.00228566
9.40997e-05
0.000547008
0.0005838
-0.000375824
-0.000101435
0.00193023
5.39747e-05
0.00027351
0.000313234
-0.000305168
0.000369405
0.00151965
-0.000176274
0.000182384
0.00126083
0.000106953
0.00100289
6.04367e-05
0.000777348
-0.000250334
-0.000284147
-0.000259715
-7.98001e-05
-9.42651e-05
2.83407e-05
-4.62474e-05
-0.000101168
0.000801748
-0.000484463
0.000392909
0.00193911
5.16241e-05
-0.000102777
0.000313482
0.000272465
-0.000264086
0.000121035
0.00146226
0.000106239
0.00112057
0.00385604
0.000413062
0.000148741
-5.99355e-05
-0.0043576
-0.000208763
8.34171e-05
-0.000165375
0.000124483
-0.000130333
0.000296571
-0.000642823
0.00228447
9.18473e-05
-0.00012287
0.000573812
0.000540991
-0.000342571
0.00169188
0.00120353
-0.000208695
0.00101997
0.000850165
-0.0002365
0.000731735
0.000821731
-0.000210935
0.000445567
0.000755383
-0.000120477
0.000282669
0.000727318
0.000121964
0.000646012
-0.000354821
0.00206789
0.00100217
-0.000474701
0.00138518
0.000928087
-0.000425433
0.000772347
0.000886511
-0.000282077
0.000425495
0.000810351
0.000212852
0.000729579
-0.000945475
0.000881764
0.0012515
0.000952313
0.00119765
0.00101971
-0.00103156
0.00226467
0.00113682
-0.000770176
0.00103341
0.000997209
-0.000443356
0.000474569
0.000884938
0.000238497
0.00075754
-0.000345732
0.00163429
0.000313617
-0.000718914
-0.00226583
0.000872709
0.00102554
0.000529284
0.000882561
0.000515403
0.00113329
0.000532858
0.00111606
0.000513712
-0.000575112
-0.000498949
-0.000941873
-0.000574985
-0.00138469
0.000947794
0.00114359
-0.000729983
0.000353962
0.000928159
0.000210922
0.00082752
0.00340433
-0.000715387
-0.000369336
0.000574401
-0.00290002
0.000425056
-0.00137607
0.000719332
0.000128922
0.000689964
0.000460068
0.000705312
-0.000879879
-0.0020638
0.00126736
0.000951918
0.000877073
0.00101907
0.00118462
-0.00101673
0.000998389
0.00085681
-0.000225929
0.00106778
0.00051548
-0.00026909
0.000731626