/*--------------------------------*- C++ -*----------------------------------*\
| =========                 |                                                 |
| \\      /  F ield         | OpenFOAM: The Open Source CFD Toolbox           |
|  \\    /   O peration     | Version:  5.x                                   |
|   \\  /    A nd           | Web:      www.OpenFOAM.org                      |
|    \\/     M anipulation  |                                                 |
\*---------------------------------------------------------------------------*/
FoamFile
{
    version     2.0;
    format      ascii;
    class       volScalarField;
    location    "0.036";
    object      phiIB;
}
// * * * * * * * * * * * * * * * * * * * * * * * * * * * * * * * * * * * * * //

dimensions      [0 2 -1 0 0 0 0];

internalField   nonuniform List<scalar> 
1553
(
-8.24438e-06
-8.24253e-06
-8.25037e-06
-8.24646e-06
-8.25897e-06
-8.24254e-06
-8.24065e-06
-8.24852e-06
-8.24463e-06
-8.25715e-06
-8.25036e-06
-8.2485e-06
-8.2564e-06
-8.25255e-06
-8.265e-06
-8.24646e-06
-8.24462e-06
-8.25255e-06
-8.24868e-06
-8.26113e-06
-8.25894e-06
-8.25712e-06
-8.26499e-06
-8.26111e-06
-8.27357e-06
-2.27247e-05
-2.27262e-05
-2.27306e-05
-2.27333e-05
-2.27396e-05
-2.27262e-05
-2.27277e-05
-2.27322e-05
-2.2735e-05
-2.27414e-05
-2.27306e-05
-2.27322e-05
-2.27369e-05
-2.27399e-05
-2.27467e-05
-2.27333e-05
-2.2735e-05
-2.27399e-05
-2.27427e-05
-2.27492e-05
-2.27396e-05
-2.27414e-05
-2.27466e-05
-2.27492e-05
-2.27551e-05
-3.66899e-05
-3.66939e-05
-3.671e-05
-3.67148e-05
-3.67326e-05
-3.66938e-05
-3.66973e-05
-3.67127e-05
-3.6717e-05
-3.67346e-05
-3.67099e-05
-3.67126e-05
-3.67269e-05
-3.67305e-05
-3.67478e-05
-3.67148e-05
-3.67169e-05
-3.67305e-05
-3.67332e-05
-3.67501e-05
-3.67325e-05
-3.67345e-05
-3.67478e-05
-3.67501e-05
-3.67665e-05
-5.65978e-05
-5.66096e-05
-5.66369e-05
-5.66512e-05
-5.66724e-05
-5.66096e-05
-5.66199e-05
-5.66447e-05
-5.66571e-05
-5.66776e-05
-5.66369e-05
-5.66447e-05
-5.66656e-05
-5.66752e-05
-5.66946e-05
-5.66511e-05
-5.66571e-05
-5.66752e-05
-5.6683e-05
-5.67017e-05
-5.66724e-05
-5.66776e-05
-5.66945e-05
-5.67017e-05
-5.67203e-05
-6.93892e-05
-6.94101e-05
-6.94562e-05
-6.94805e-05
-6.95167e-05
-6.94101e-05
-6.94281e-05
-6.94701e-05
-6.94911e-05
-6.95258e-05
-6.94562e-05
-6.94701e-05
-6.95062e-05
-6.95225e-05
-6.9555e-05
-6.94805e-05
-6.9491e-05
-6.95225e-05
-6.95352e-05
-6.95661e-05
-6.95167e-05
-6.95257e-05
-6.9555e-05
-6.95661e-05
-6.95956e-05
-8.88277e-05
-8.88633e-05
-8.89349e-05
-8.89738e-05
-8.90201e-05
-8.88633e-05
-8.88933e-05
-8.89568e-05
-8.89896e-05
-8.90341e-05
-8.89349e-05
-8.89568e-05
-8.90075e-05
-8.90316e-05
-8.90739e-05
-8.89738e-05
-8.89896e-05
-8.90316e-05
-8.90496e-05
-8.90894e-05
-8.902e-05
-8.9034e-05
-8.90739e-05
-8.90894e-05
-8.91269e-05
-0.000102582
-0.000102628
-0.000102724
-0.000102774
-0.00010284
-0.000102628
-0.000102667
-0.000102753
-0.000102794
-0.000102857
-0.000102724
-0.000102753
-0.000102822
-0.00010285
-0.000102908
-0.000102774
-0.000102794
-0.00010285
-0.000102871
-0.000102926
-0.00010284
-0.000102857
-0.000102908
-0.000102926
-0.000102978
-0.000120748
-0.000120792
-0.000120902
-0.000120949
-0.000121029
-0.000120792
-0.00012083
-0.00012093
-0.000120969
-0.000121043
-0.000120902
-0.00012093
-0.000121013
-0.000121036
-0.0001211
-0.000120949
-0.000120969
-0.000121036
-0.000121048
-0.000121109
-0.000121029
-0.000121043
-0.0001211
-0.000121109
-0.000121168
-0.000135678
-0.000135623
-0.000135607
-0.000135542
-0.000135619
-0.000135623
-0.00013558
-0.000135584
-0.000135534
-0.00013561
-0.000135607
-0.000135584
-0.000135618
-0.000135583
-0.000135651
-0.000135543
-0.000135534
-0.000135583
-0.000135559
-0.000135629
-0.000135619
-0.000135611
-0.000135651
-0.000135629
-0.000135699
-0.000153628
-0.000153356
-0.000152991
-0.000152643
-0.000152669
-0.000153356
-0.000153121
-0.000152827
-0.000152545
-0.000152601
-0.000152992
-0.000152827
-0.000152679
-0.000152507
-0.000152583
-0.000152644
-0.000152546
-0.000152507
-0.00015241
-0.000152497
-0.000152669
-0.000152602
-0.000152583
-0.000152497
-0.000152574
-0.000169119
-0.000168676
-0.000167977
-0.000167258
-0.000167075
-0.000168676
-0.000168257
-0.000167615
-0.000166994
-0.000166901
-0.000167978
-0.000167615
-0.000167138
-0.000166712
-0.000166737
-0.000167259
-0.000166995
-0.000166712
-0.000166429
-0.000166504
-0.000167075
-0.000166901
-0.000166737
-0.000166504
-0.000166556
-0.000184347
-0.000184046
-0.000183649
-0.000182951
-0.000182653
-0.000184046
-0.000183723
-0.00018329
-0.000182622
-0.000182389
-0.000183649
-0.00018329
-0.000182756
-0.000182164
-0.000182111
-0.000182952
-0.000182623
-0.000182164
-0.00018168
-0.000181723
-0.000182653
-0.000182389
-0.000182111
-0.000181723
-0.000181742
-0.000195082
-0.000195061
-0.000195203
-0.000194876
-0.000194812
-0.000195061
-0.000194994
-0.000195053
-0.000194632
-0.00019448
-0.000195203
-0.000195052
-0.000194917
-0.000194343
-0.00019413
-0.000194876
-0.000194632
-0.000194343
-0.000193753
-0.000193635
-0.000194812
-0.00019448
-0.00019413
-0.000193635
-0.000193632
-0.000205854
-0.000206009
-0.000206503
-0.000206586
-0.000207066
-0.000206009
-0.00020611
-0.000206504
-0.00020644
-0.000206769
-0.000206503
-0.000206504
-0.00020672
-0.000206418
-0.000206489
-0.000206586
-0.00020644
-0.000206418
-0.000206009
-0.000206097
-0.000207066
-0.000206769
-0.000206489
-0.000206097
-0.00020631
-0.00021205
-0.000212332
-0.000213145
-0.000213723
-0.000214846
-0.000212332
-0.000212579
-0.000213324
-0.00021374
-0.000214667
-0.000213145
-0.000213324
-0.000213977
-0.000214113
-0.000214581
-0.000213722
-0.000213739
-0.000214113
-0.000214054
-0.000214415
-0.000214845
-0.000214667
-0.00021458
-0.000214415
-0.000214963
-0.000220224
-0.000220602
-0.000221743
-0.000222556
-0.000224025
-0.000220602
-0.000220956
-0.000222038
-0.000222713
-0.000224015
-0.000221743
-0.000222037
-0.000223003
-0.000223409
-0.000224338
-0.000222555
-0.000222712
-0.000223409
-0.000223556
-0.000224333
-0.000224024
-0.000224014
-0.000224338
-0.000224333
-0.000225168
-0.000223444
-0.000223856
-0.000225193
-0.000226217
-0.000228134
-0.000223856
-0.000224261
-0.000225574
-0.000226548
-0.000228439
-0.000225192
-0.000225573
-0.000226819
-0.000227679
-0.000229475
-0.000226216
-0.000226548
-0.000227679
-0.000228247
-0.000229708
-0.000228133
-0.000228438
-0.000229475
-0.000229708
-0.000230849
-0.000230665
-0.000231189
-0.000232919
-0.00023409
-0.000236568
-0.000231189
-0.000231703
-0.000233413
-0.00023453
-0.000236918
-0.000232918
-0.000233413
-0.000235089
-0.000236059
-0.000238146
-0.000234089
-0.00023453
-0.000236059
-0.000236769
-0.000238601
-0.000236568
-0.000236918
-0.000238146
-0.000238601
-0.000240501
-0.000231441
-0.000232035
-0.000234051
-0.000235345
-0.000238455
-0.000232035
-0.000232597
-0.000234569
-0.000235864
-0.000238993
-0.000234051
-0.000234568
-0.000236456
-0.000237757
-0.000240962
-0.000235344
-0.000235863
-0.000237757
-0.000238956
-0.000241929
-0.000238455
-0.000238992
-0.000240962
-0.000241928
-0.000244296
-0.000236512
-0.000237623
-0.000240555
-0.000242508
-0.000247017
-0.000237623
-0.000238623
-0.000241443
-0.000243295
-0.000247641
-0.000240554
-0.000241442
-0.000244235
-0.000245957
-0.000250031
-0.000242507
-0.000243295
-0.000245957
-0.000247492
-0.000251202
-0.000247016
-0.00024764
-0.000250031
-0.000251202
-0.000255083
-0.000234655
-0.000235894
-0.000239408
-0.000241723
-0.000247354
-0.000235895
-0.000237062
-0.000240435
-0.000242616
-0.000248088
-0.000239407
-0.000240434
-0.00024359
-0.000245644
-0.000251156
-0.000241723
-0.000242615
-0.000245644
-0.00024762
-0.000252933
-0.000247353
-0.000248087
-0.000251155
-0.000252933
-0.000256889
-0.000230019
-0.00023425
-0.000240606
-0.00024559
-0.000254731
-0.00023425
-0.0002375
-0.000243113
-0.000247407
-0.000255832
-0.000240606
-0.000243112
-0.000248329
-0.000251911
-0.00025983
-0.000245589
-0.000247407
-0.000251911
-0.000254925
-0.000262166
-0.00025473
-0.000255831
-0.000259829
-0.000262166
-0.000269115
-0.000232565
-0.000234255
-0.000240121
-0.000244699
-0.000255232
-0.000234254
-0.000236677
-0.000242152
-0.000246305
-0.000256142
-0.000240121
-0.000242152
-0.000247147
-0.000250781
-0.000259945
-0.000244699
-0.000246304
-0.000250781
-0.000253584
-0.000261444
-0.000255231
-0.000256141
-0.000259945
-0.000261444
-0.000268025
-0.000182939
-0.000204075
-0.000220086
-0.000235823
-0.00025615
-0.000204074
-0.000216995
-0.00022941
-0.000241368
-0.000258868
-0.000220085
-0.00022941
-0.000240239
-0.000249539
-0.000265284
-0.000235822
-0.000241367
-0.000249539
-0.000256124
-0.000269114
-0.00025615
-0.000258867
-0.000265284
-0.000269114
-0.000281069
-0.00022707
-0.000223524
-0.000236766
-0.00024377
-0.000262562
-0.000223522
-0.00023033
-0.000239579
-0.000246775
-0.000263008
-0.000236766
-0.000239579
-0.00024683
-0.000252786
-0.000266748
-0.000243768
-0.000246774
-0.000252786
-0.000256511
-0.000268692
-0.000262561
-0.000263007
-0.000266748
-0.000268693
-0.00027893
-4.53932e-06
-0.000117087
-0.000153738
-0.000202062
-0.000245977
-0.000117082
-0.000163589
-0.000187428
-0.000218155
-0.000251338
-0.000153735
-0.000187429
-0.00020876
-0.000232378
-0.000261276
-0.000202058
-0.000218153
-0.000232376
-0.000245658
-0.000269373
-0.000245976
-0.000251339
-0.000261277
-0.000269374
-0.000288274
-0.000188989
-0.000159944
-0.000218254
-0.000224381
-0.000261598
-0.000159936
-0.000204829
-0.00022173
-0.000235213
-0.000263647
-0.000218254
-0.000221733
-0.000234962
-0.000243555
-0.000269704
-0.000224376
-0.000235212
-0.000243552
-0.000252883
-0.000272854
-0.000261601
-0.00026365
-0.000269705
-0.000272855
-0.000288042
0.000613605
3.13291e-05
-2.90665e-05
-0.000145667
-0.000219548
3.13475e-05
-8.4123e-05
-0.000120517
-0.000171767
-0.000233494
-2.90494e-05
-0.000120521
-0.0001516
-0.000196719
-0.00024839
-0.000145656
-0.000171764
-0.000196714
-0.000224695
-0.000260908
-0.000219544
-0.000233494
-0.00024839
-0.000260911
-0.000286147
0.000415849
0.000150366
-6.88721e-05
-0.000146413
-0.000250903
0.000150394
-0.000160127
-0.000149517
-0.000205465
-0.000257262
-6.88693e-05
-0.000149524
-0.000196308
-0.000226214
-0.000268429
-0.000146398
-0.000205462
-0.000226208
-0.000243414
-0.000270685
-0.000250905
-0.000257264
-0.000268432
-0.000270688
-0.000291236
0.00290836
0.000692024
1.03792e-05
-7.68445e-05
-0.000219974
0.000692275
0.000163396
-5.94452e-05
-0.000115585
-0.000222108
1.04882e-05
-5.94586e-05
-0.000141034
-0.000175647
-0.000243029
-7.68399e-05
-0.000115581
-0.000175639
-0.000203343
-0.000248602
-0.000219951
-0.000222106
-0.000243026
-0.000248604
-0.000275576
0.00136023
-0.000733771
-0.000356717
-0.000261615
-0.000301963
-0.000733993
-0.000333707
-0.000315555
-0.000236183
-0.000284741
-0.000356662
-0.00031555
-0.000302694
-0.000268589
-0.000286716
-0.000261605
-0.000236182
-0.000268584
-0.000253291
-0.000271613
-0.000301954
-0.000284738
-0.000286719
-0.000271615
-0.000286738
-0.00272044
-0.00069619
-0.000140374
-0.000177637
-0.000209337
-0.000696191
-0.000166502
-0.000165452
-0.000181707
-0.000208987
-0.000140244
-0.000165454
-0.000190035
-0.000200061
-0.000231319
-0.000177627
-0.000181699
-0.000200052
-0.000215427
-0.000228744
-0.000209303
-0.000208975
-0.000231314
-0.00022874
-0.000248237
0.000555198
-0.000223046
-8.42247e-05
-0.000217253
-0.000219287
-0.000222769
-0.000165879
-0.000209915
-0.000221579
-0.000230517
-8.38956e-05
-0.000209914
-0.000226163
-0.000240453
-0.000240185
-0.000217256
-0.00022156
-0.000240445
-0.000236309
-0.000240304
-0.00021924
-0.000230497
-0.000240173
-0.0002403
-0.000251146
0.00434634
0.000504886
-0.000258435
-0.000266955
-0.000208939
0.000505077
-7.30168e-05
-0.000218379
-0.000235133
-0.00019243
-0.000258327
-0.000218362
-0.000229186
-0.000214076
-0.000206332
-0.000266931
-0.000235103
-0.000214065
-0.000211825
-0.000197542
-0.000208897
-0.000192396
-0.000206314
-0.000197536
-0.000204434
-0.00178175
-0.00107838
-0.000576869
-0.000336657
-0.000286809
-0.00107837
-0.00047461
-0.000409649
-0.000316218
-0.000264961
-0.000576823
-0.000409646
-0.000337721
-0.000285955
-0.000246664
-0.000336643
-0.000316203
-0.000285946
-0.000251939
-0.000233621
-0.000286784
-0.000264942
-0.000246654
-0.000233618
-0.000229373
-0.000779659
-0.00039859
-0.000228483
-0.000209376
-0.000164781
-0.000398585
-0.000187829
-0.000214653
-0.000172055
-0.000165866
-0.00022846
-0.000214643
-0.000189606
-0.000180303
-0.000161113
-0.000209364
-0.000172045
-0.0001803
-0.000167085
-0.000157073
-0.000164764
-0.000165852
-0.000161105
-0.000157069
-0.000151818
-0.000419827
-0.000472696
-0.000297617
-0.000264523
-0.000221175
-0.000472693
-0.000413982
-0.000300201
-0.000255188
-0.000213426
-0.00029761
-0.000300199
-0.000251808
-0.000226361
-0.000203437
-0.000264517
-0.000255184
-0.000226359
-0.000207768
-0.000191294
-0.000221169
-0.000213421
-0.000203435
-0.000191293
-0.000188873
-0.000275176
-0.000240737
-0.000171991
-0.000157636
-0.000123836
-0.000240737
-0.000180336
-0.000166238
-0.000147139
-0.000119849
-0.000171988
-0.000166233
-0.000145806
-0.00013491
-0.000108352
-0.000157632
-0.000147134
-0.000134909
-0.000121551
-0.000101026
-0.000123829
-0.000119841
-0.000108348
-0.000101023
-8.92628e-05
-0.000132646
-0.000159203
-0.000132323
-0.000125155
-0.000122245
-0.000159202
-0.000158555
-0.000134927
-0.000125675
-0.000121111
-0.000132322
-0.000134927
-0.00012892
-0.000127152
-0.000123995
-0.000125154
-0.000125673
-0.000127151
-0.000123617
-0.000119725
-0.000122244
-0.00012111
-0.000123995
-0.000119725
-0.000122668
-0.000121386
-0.000118054
-8.47576e-05
-7.56793e-05
-4.24635e-05
-0.000118057
-0.000106595
-8.00107e-05
-6.92865e-05
-4.36193e-05
-8.47579e-05
-8.0008e-05
-5.88117e-05
-5.29538e-05
-3.81639e-05
-7.56805e-05
-6.92851e-05
-5.29552e-05
-5.55834e-05
-4.01126e-05
-4.24623e-05
-4.36143e-05
-3.81624e-05
-4.01096e-05
-3.03263e-05
0.00151033
0.00151029
0.000160864
-0.00184604
-0.00167292
-0.00167288
-0.0005287
-0.000323608
-0.000167512
-0.0002116
-0.000981196
-0.000215701
-0.000514332
-0.000272405
-0.000167489
-0.000323708
-0.000211598
-0.000981147
-0.000514295
-0.000215759
-0.000272423
-0.00118042
-0.00118041
-0.000325254
0.000446046
-0.000199033
-0.000198893
-0.000282629
-0.00017933
-0.000474457
-0.000116944
7.62334e-05
-0.00015738
-0.000172347
-0.000196554
-0.000474315
-0.000179509
-0.000116963
7.6411e-05
-0.000172238
-0.000157478
-0.000196577
0.000253905
0.000253015
4.22677e-05
0.00424757
0.00117838
0.00117762
0.000257879
0.000887299
0.000887042
9.68491e-05
-0.00107131
-0.00268582
-0.00268587
-0.000925622
-9.87391e-05
6.57656e-05
-0.000149027
-0.00102102
-0.000666788
-0.000649814
-0.000571887
6.60322e-05
-9.88116e-05
-0.00014907
-0.001021
-0.000649765
-0.000666826
-0.000571894
-0.0026709
-0.00267091
-0.000937113
-0.00145185
-0.000696139
-0.000696132
-0.000188305
-0.000586787
-0.000885523
-0.000491233
-0.00091792
-0.000426774
-0.000747406
-0.000301851
-0.000885492
-0.000586798
-0.000491239
-0.000917906
-0.000747391
-0.000426767
-0.000301844
-0.000676111
-0.000676108
-0.00063864
-0.000379973
-0.000560243
-0.000560241
-0.000507397
-0.000195323
-0.00190286
-0.00190285
-0.00199052
-0.00128206
-0.000944499
-0.0009445
-0.00209009
-0.00186347
-0.00186347
-0.00231808
-0.00194449
-0.00229117
-0.00229117
-0.000717516
-0.00100917
-0.00102114
-0.00133207
-0.000873876
-0.00129912
-0.000846286
-0.000717498
-0.00102111
-0.00100916
-0.00133206
-0.000873856
-0.0012991
-0.000846274
-0.00134187
-0.00112226
-0.00167736
-0.00167737
-0.00148516
-0.00122052
-0.00122053
-0.00150739
-0.00251972
-0.00156604
-0.00140846
-0.0023309
-0.00145611
-0.00140898
-0.00150744
-0.0025197
-0.0015661
-0.00140845
-0.00233075
-0.00145615
-0.001409
-0.00220646
-0.00076514
-0.000951559
-0.00095153
-0.00122757
-0.00122748
-0.00205157
-0.000931895
-0.00163742
-0.000920019
-7.53136e-05
-0.00141463
0.000191284
-0.00142492
-0.00093206
-0.00163753
-0.000919959
-7.54956e-05
-0.00141466
0.000191112
-0.0014251
-0.0011304
-0.000892191
-0.000892172
0.000322071
-0.00146907
-0.000450184
-0.000450195
-0.000688106
3.01949e-05
-0.0012658
-0.0012658
-0.00145044
-0.000295097
-0.000295105
-0.00154743
-0.000241746
-0.00164706
-0.00213701
-0.000252827
-0.00170564
-0.00091342
-0.00154736
-0.000241869
-0.00164707
-0.00213704
-0.000252989
-0.00170565
-0.000913424
-0.00208207
-0.00190516
-0.00228498
-0.00185616
-0.00192344
-0.00150669
-0.00223327
-0.00208206
-0.00190515
-0.00228499
-0.00185615
-0.00192344
-0.00150668
-0.00223326
-0.00220558
-0.0014191
-0.00141914
-0.000789489
-0.00269029
-0.00143137
-0.00143138
-0.00158894
-0.00226896
-0.0010905
-0.00109049
-0.000884674
-0.00178015
-0.00178015
-0.00167494
-0.00138126
-0.00128241
-0.000510506
-0.00115614
-0.00113215
-0.00184899
-0.00167493
-0.00138125
-0.00128241
-0.000510502
-0.00115614
-0.00113215
-0.00184899
-0.00148047
-0.0005746
-0.000813704
-0.000813704
-0.00109733
-0.00109733
-0.0012436
0.00118981
0.00118991
0.000683625
0.00408178
0.00170161
0.00170171
0.000388933
-0.000825628
0.000780479
0.00078031
-0.000200992
0.000380187
-0.000520604
-0.00052066
-0.00142538
-0.000552653
0.000911644
-0.00160282
-0.00069843
-0.00113115
-0.00113594
-0.00142556
-0.000553242
0.000911946
-0.00160269
-0.000699221
-0.00113105
-0.00113606
-0.000528991
-0.000758439
-0.000361231
-0.000796623
-0.000656717
-0.000291503
-0.000606282
-0.000528895
-0.000758404
-0.000796619
-0.0003612
-0.000656634
-0.000291503
-0.000606245
-0.00123301
-0.000267187
-0.00136887
-0.00136894
-0.000971278
-0.00097141
-0.00238902
-0.00207402
-0.000519531
-0.000519107
-0.000434155
7.80286e-05
-0.00115084
-0.00115072
0.00102122
0.00405869
0.00405835
0.00177812
0.00263128
0.00136051
0.00136046
-0.000242076
-0.000242122
-0.000132113
-0.000458071
-0.000241038
-0.00024107
-0.000190983
-0.00049378
-0.000451367
-0.000814183
-0.000279337
-0.000678457
-0.000339189
-0.000446448
-0.000493723
-0.000451289
-0.000814117
-0.000279316
-0.000678396
-0.000339133
-0.000446408
0.000460685
0.00270086
0.000276823
0.00162868
0.00195439
0.000776109
0.000113858
0.000461757
0.0027011
0.000276286
0.00162837
0.00195494
0.000775889
0.000113944
-0.000239032
-0.00106845
-0.000837439
-0.000891649
-0.00103948
-0.000715237
-0.000183129
-0.000239017
-0.00106844
-0.000891584
-0.000837428
-0.00103941
-0.000715205
-0.000183131
0.00323961
0.00323936
0.00294827
0.00253186
0.00823147
0.00472954
0.0047295
0.00022007
0.00049098
3.088e-05
0.000610828
0.000556258
0.000391907
0.000173802
0.00049104
0.000219977
3.0844e-05
0.000610798
0.000392046
0.000556353
0.000173652
-0.000247591
0.000241893
-0.000455614
-0.000641139
0.000131368
-0.000663762
-0.000363544
-0.000247528
-0.000455819
0.000241925
-0.000641057
0.000131504
-0.000663853
-0.000363477
0.0018818
0.000842769
0.00173483
0.00277497
0.00112529
0.0011088
0.00286602
0.00188051
0.000844701
0.00173592
0.00277668
0.00112531
0.00110872
0.00286656
0.00112078
0.000348485
0.000348132
5.98954e-05
0.00146207
-0.000127057
-0.000127585
0.000392362
0.000391851
0.00126323
0.00216622
0.000586038
0.00102913
0.00102863
-0.000188097
-0.000188151
-0.00027927
-0.000275326
-0.000391567
-0.000391591
-0.000405393
-0.000440557
-0.000565645
-0.00079461
-0.000505402
-0.000651463
-0.000321531
-0.000578382
-0.000440518
-0.000565531
-0.000794572
-0.000505368
-0.000651399
-0.000321443
-0.000578359
0.00151073
0.0031808
0.00311579
0.00311451
0.00296939
0.00232398
0.00232331
-0.000366094
-0.000209471
-4.18851e-05
-0.000440552
-0.000153335
-0.000609926
-0.000207116
-0.000366022
-0.000209436
-4.18788e-05
-0.000440522
-0.000153286
-0.000609844
-0.000207087
-8.4411e-05
-0.000204087
-6.98523e-05
0.00060354
-0.000214483
0.000225648
-0.000273304
-0.000203245
-8.49252e-05
-6.98222e-05
0.000604533
0.000226136
-0.000214878
-0.000273408
3.53683e-07
9.08775e-05
0.000477008
-0.000392974
-5.21945e-05
-7.94175e-05
0.000200064
4.88868e-07
0.000477352
9.08733e-05
-0.000392827
-5.2236e-05
-7.90458e-05
0.000200154
0.00115328
0.000510067
0.00300782
0.000894414
0.000310547
0.00241534
0.00146168
0.00115358
0.00051015
0.00300721
0.00089401
0.000309043
0.00241717
0.00146254
0.000156228
0.000156245
5.88631e-05
0.00194483
0.00123563
0.00123564
0.000758723
0.0039728
0.0023975
0.00239753
0.00482304
0.00197577
0.00451272
0.00451278
0.00252131
0.00151116
0.00108093
0.0016143
0.00135457
0.00139235
0.00299778
0.00252157
0.0015113
0.00108097
0.00161453
0.00135478
0.00139233
0.00299778
0.000463098
0.000662617
0.000259965
0.000958155
0.00108448
0.000419825
0.000465503
0.000663051
0.000463189
0.000260462
0.000958448
0.00108424
0.000419819
0.000465647
0.000727108
0.000152861
0.000609495
0.000608645
0.000294855
0.000294954
0.00156114
)
;

boundaryField
{
    inlet
    {
        type            fixedValue;
        value           uniform 0;
    }
    wall
    {
        type            zeroGradient;
    }
    outlet
    {
        type            fixedValue;
        value           uniform 0;
    }
    procBoundary3to1
    {
        type            processor;
        value           nonuniform List<scalar> 
320
(
-8.24455e-06
-8.24271e-06
-8.25048e-06
-8.24658e-06
-8.25906e-06
-2.27251e-05
-2.27265e-05
-2.27308e-05
-2.27335e-05
-2.27398e-05
-3.66903e-05
-3.66942e-05
-3.67102e-05
-3.67151e-05
-3.67328e-05
-5.65984e-05
-5.66101e-05
-5.66373e-05
-5.66515e-05
-5.66727e-05
-6.93898e-05
-6.94105e-05
-6.94566e-05
-6.94809e-05
-6.9517e-05
-8.88283e-05
-8.88637e-05
-8.89353e-05
-8.89741e-05
-8.90203e-05
-0.000102582
-0.000102628
-0.000102724
-0.000102774
-0.00010284
-0.000120749
-0.000120792
-0.000120902
-0.000120949
-0.000121029
-0.000135676
-0.000135621
-0.000135606
-0.000135542
-0.000135618
-0.000153624
-0.000153352
-0.000152988
-0.000152641
-0.000152667
-0.000169115
-0.000168671
-0.000167973
-0.000167255
-0.000167073
-0.000184347
-0.000184046
-0.000183649
-0.000182951
-0.000182652
-0.000195089
-0.000195068
-0.00019521
-0.000194881
-0.000194814
-0.000205867
-0.000206021
-0.000206514
-0.000206596
-0.000207074
-0.000212068
-0.00021235
-0.000213163
-0.00021374
-0.000214863
-0.000220246
-0.000220626
-0.000221767
-0.000222579
-0.000224046
-0.000223471
-0.000223885
-0.000225223
-0.000226247
-0.000228165
-0.000230698
-0.000231225
-0.000232957
-0.000234129
-0.000236607
-0.000231481
-0.000232079
-0.000234096
-0.000235393
-0.000238506
-0.000236562
-0.000237679
-0.000240613
-0.000242571
-0.000247082
-0.000234721
-0.000235966
-0.000239482
-0.000241803
-0.000247436
-0.000230097
-0.000234338
-0.000240701
-0.000245695
-0.000254845
-0.000232688
-0.000234382
-0.000240252
-0.000244838
-0.000255374
-0.000183044
-0.000204194
-0.000220232
-0.000235987
-0.000256337
-0.000227416
-0.000223796
-0.000237029
-0.000244018
-0.000262831
-4.58058e-06
-0.000117146
-0.000153922
-0.000202276
-0.00024627
-0.000190024
-0.000160629
-0.000218825
-0.000224778
-0.000262031
0.000613397
3.15473e-05
-2.92475e-05
-0.000145806
-0.000219932
0.000413207
0.000149233
-6.94364e-05
-0.000147101
-0.000251458
0.00291594
0.000694966
1.00435e-05
-7.74867e-05
-0.000220535
0.00135993
-0.000736658
-0.000357032
-0.000262341
-0.000302528
-0.00271963
-0.000676325
-0.000137961
-0.000178617
-0.000209682
0.000519805
-0.00022695
-8.35177e-05
-0.000217693
-0.000220035
0.00436691
0.000505359
-0.00025861
-0.000267367
-0.000209656
-0.0017865
-0.00107893
-0.000577219
-0.000337487
-0.000287064
-0.00079195
-0.000396837
-0.000228333
-0.000209684
-0.000164905
-0.000400641
-0.000471762
-0.000295114
-0.00026466
-0.000221947
-0.000276409
-0.000239155
-0.00017177
-0.000158274
-0.00012445
-0.000129209
-0.000158051
-0.000132104
-0.000125291
-0.000122889
-0.000122416
-0.000118797
-8.5796e-05
-7.65752e-05
-4.31336e-05
-0.00184655
-0.00167307
0.00150783
-0.000981649
-0.00021495
-0.000326661
0.000466905
-0.000205599
-0.00118556
6.83607e-05
-0.000155688
-0.000197356
0.00426452
0.00118034
0.000248165
-0.00107234
-0.002687
0.000887895
-0.00102034
-0.000665632
-9.76344e-05
-0.00142586
-0.000699245
-0.00267708
-0.000919214
-0.000429345
-0.000582645
-0.000536288
-0.000527561
-0.000732844
-0.00200018
-0.000941262
-0.0019047
-0.00232131
-0.00235143
-0.00187495
-0.001332
-0.000848618
-0.00100923
-0.00167766
-0.00122109
-0.00112274
-0.00252397
-0.0014095
-0.00156841
-0.00163505
-0.00143199
-7.55962e-05
-0.00126741
-0.000293959
3.22772e-05
-0.000240808
-0.000912118
-0.00164596
-0.00114303
-0.00188183
-0.00221439
-0.00142416
-0.00183117
-0.0012784
-0.00190322
-0.0022304
-0.00186062
0.0040817
0.00170436
0.00119814
-0.000201326
-0.000521032
0.000779606
-0.000555184
-0.00113616
-0.00160249
-0.000360061
-0.000603203
-0.000757507
0.00178558
0.00136349
0.00406386
0.00270348
0.000113778
0.00163046
-0.000836757
-0.000181948
-0.00106774
0.00323772
0.00472489
0.00823381
0.000612966
0.000556683
0.000217881
-0.000639521
-0.000361604
0.000242153
0.00112057
0.00287041
0.00187561
0.00312513
0.0023299
0.00320004
0.000602632
-0.000214603
-8.90576e-05
-0.000393795
0.000200341
9.15864e-05
0.000514385
0.00146682
0.00301098
0.00194813
0.00123602
0.000151327
0.0048188
0.00450843
0.00240314
0.00151827
0.00299286
0.00161296
0.000465113
0.000460019
0.000952019
)
;
    }
    procBoundary3to2
    {
        type            processor;
        value           nonuniform List<scalar> 
320
(
-8.24453e-06
-8.2427e-06
-8.25045e-06
-8.24656e-06
-8.25901e-06
-2.2725e-05
-2.27265e-05
-2.27308e-05
-2.27335e-05
-2.27397e-05
-3.66903e-05
-3.66942e-05
-3.67102e-05
-3.6715e-05
-3.67328e-05
-5.65983e-05
-5.66101e-05
-5.66373e-05
-5.66515e-05
-5.66726e-05
-6.93897e-05
-6.94105e-05
-6.94565e-05
-6.94808e-05
-6.95169e-05
-8.88283e-05
-8.88637e-05
-8.89352e-05
-8.8974e-05
-8.90202e-05
-0.000102582
-0.000102628
-0.000102724
-0.000102774
-0.00010284
-0.000120749
-0.000120792
-0.000120902
-0.000120949
-0.000121029
-0.000135676
-0.000135621
-0.000135606
-0.000135542
-0.000135618
-0.000153624
-0.000153352
-0.000152988
-0.000152641
-0.000152668
-0.000169115
-0.000168672
-0.000167973
-0.000167255
-0.000167074
-0.000184347
-0.000184046
-0.000183649
-0.000182952
-0.000182652
-0.000195089
-0.000195068
-0.00019521
-0.000194881
-0.000194814
-0.000205867
-0.000206021
-0.000206514
-0.000206596
-0.000207074
-0.000212068
-0.000212349
-0.000213162
-0.000213739
-0.000214862
-0.000220246
-0.000220626
-0.000221766
-0.000222578
-0.000224046
-0.000223471
-0.000223886
-0.000225223
-0.000226247
-0.000228164
-0.000230699
-0.000231225
-0.000232956
-0.000234129
-0.000236607
-0.000231481
-0.000232079
-0.000234096
-0.000235393
-0.000238506
-0.000236563
-0.00023768
-0.000240613
-0.000242571
-0.000247082
-0.000234722
-0.000235967
-0.000239482
-0.000241803
-0.000247436
-0.000230098
-0.000234338
-0.000240701
-0.000245695
-0.000254845
-0.000232689
-0.000234383
-0.000240253
-0.000244839
-0.000255375
-0.000183046
-0.000204194
-0.000220232
-0.000235987
-0.000256337
-0.000227418
-0.000223797
-0.00023703
-0.000244018
-0.000262832
-4.58817e-06
-0.000117146
-0.000153923
-0.000202275
-0.000246271
-0.000190028
-0.00016063
-0.000218828
-0.000224778
-0.000262036
0.000613373
3.15517e-05
-2.92489e-05
-0.000145802
-0.000219931
0.000413169
0.000149233
-6.94424e-05
-0.000147096
-0.000251461
0.00291586
0.000695066
1.00578e-05
-7.74811e-05
-0.000220527
0.00135987
-0.000736737
-0.000357014
-0.000262336
-0.000302525
-0.00271955
-0.000676257
-0.000137895
-0.000178604
-0.00020966
0.000520037
-0.000226688
-8.33785e-05
-0.00021768
-0.00022001
0.0043671
0.000505524
-0.000258546
-0.000267344
-0.000209625
-0.0017865
-0.00107892
-0.00057719
-0.000337468
-0.000287042
-0.000791945
-0.000396823
-0.000228309
-0.000209662
-0.00016488
-0.000400631
-0.00047175
-0.0002951
-0.000264647
-0.000221936
-0.000276397
-0.00023914
-0.00017175
-0.000158256
-0.00012443
-0.000129207
-0.000158047
-0.000132101
-0.000125286
-0.000122884
-0.0001224
-0.000118784
-8.57819e-05
-7.65658e-05
-4.31238e-05
0.00150773
-0.00167306
-0.00184653
-0.000326693
-0.000214954
-0.000981637
-0.00118552
-0.00020567
0.000466826
-0.000197407
-0.000155705
6.84328e-05
0.00024819
0.00118017
0.00426528
0.000887695
-0.00268701
-0.00107234
-9.76292e-05
-0.000665628
-0.00102032
-0.00267707
-0.000699235
-0.00142585
-0.000582639
-0.000429334
-0.000919199
-0.000732833
-0.000527554
-0.000536282
-0.00190465
-0.000941247
-0.00200014
-0.00187495
-0.00235142
-0.00232131
-0.00100921
-0.000848604
-0.00133199
-0.00156841
-0.00140946
-0.00252393
-0.00112273
-0.00122108
-0.00167764
-7.56554e-05
-0.00143204
-0.00163506
-0.00164596
-0.000912108
-0.00024086
3.22869e-05
-0.000293953
-0.0012674
-0.0018606
-0.00223039
-0.00190321
-0.00127839
-0.00183116
-0.00142415
-0.00221439
-0.00188182
-0.00114303
0.00119804
0.0017046
0.00408161
0.000779488
-0.000521065
-0.000201345
-0.00160236
-0.00113619
-0.000555387
-0.00075745
-0.000603138
-0.000360057
0.00406385
0.00136351
0.00178562
0.00163036
0.000113933
0.00270375
-0.0010677
-0.000181929
-0.000836736
0.00823373
0.00472469
0.00323751
0.00021783
0.000556705
0.000612892
0.000242205
-0.000361564
-0.000639505
0.00187491
0.00287044
0.00112043
0.00320054
0.00232969
0.00312522
-8.90887e-05
-0.000214729
0.000602912
9.16016e-05
0.000200393
-0.000393681
0.003012
0.0014671
0.000513714
0.000151313
0.00123605
0.00194817
0.00240306
0.00450838
0.00481874
0.00161279
0.0029927
0.00151821
0.000951905
0.000460004
0.000465166
)
;
    }
}


// ************************************************************************* //
