/*--------------------------------*- C++ -*----------------------------------*\
| =========                 |                                                 |
| \\      /  F ield         | OpenFOAM: The Open Source CFD Toolbox           |
|  \\    /   O peration     | Version:  5.x                                   |
|   \\  /    A nd           | Web:      www.OpenFOAM.org                      |
|    \\/     M anipulation  |                                                 |
\*---------------------------------------------------------------------------*/
FoamFile
{
    version     2.0;
    format      ascii;
    class       volVectorField;
    location    "0.036";
    object      U;
}
// * * * * * * * * * * * * * * * * * * * * * * * * * * * * * * * * * * * * * //

dimensions      [0 1 -1 0 0 0 0];

internalField   nonuniform List<vector> 
1553
(
(-7.81854e-08 -8.77294e-08 -0.000202353)
(2.76076e-06 -9.62872e-08 -0.000202878)
(2.80443e-06 -8.4484e-08 -0.000201463)
(4.70905e-06 -8.54201e-08 -0.00020271)
(4.76672e-06 -7.07623e-08 -0.000200057)
(-8.67174e-08 2.75127e-06 -0.000202877)
(2.7577e-06 2.74822e-06 -0.000203408)
(2.80369e-06 2.74797e-06 -0.000201989)
(4.70962e-06 2.74674e-06 -0.000203237)
(4.76833e-06 2.74074e-06 -0.000200582)
(-7.50149e-08 2.79596e-06 -0.000201463)
(2.75745e-06 2.79523e-06 -0.000201991)
(2.80296e-06 2.7945e-06 -0.000200573)
(4.70181e-06 2.79467e-06 -0.00020182)
(4.76056e-06 2.78661e-06 -0.000199177)
(-7.59835e-08 4.7002e-06 -0.000202709)
(2.75624e-06 4.70079e-06 -0.000203237)
(2.80313e-06 4.69298e-06 -0.000201818)
(4.70173e-06 4.69289e-06 -0.000203063)
(4.76003e-06 4.66849e-06 -0.000200418)
(-6.13864e-08 4.75968e-06 -0.00020006)
(2.75024e-06 4.76129e-06 -0.000200586)
(2.79506e-06 4.75352e-06 -0.000199179)
(4.67732e-06 4.75299e-06 -0.000200421)
(4.73559e-06 4.72854e-06 -0.000197787)
(2.6003e-07 2.51747e-07 0.000533863)
(1.77751e-06 2.7305e-07 0.000534085)
(2.21418e-06 2.92508e-07 0.000534515)
(3.04274e-06 3.02046e-07 0.000534963)
(2.30674e-06 3.09993e-07 0.000535538)
(2.81421e-07 1.76934e-06 0.000534085)
(1.79369e-06 1.78547e-06 0.000534307)
(2.22494e-06 1.79274e-06 0.000534733)
(3.04886e-06 1.79886e-06 0.00053518)
(2.30846e-06 1.79014e-06 0.000535752)
(3.00907e-07 2.20725e-06 0.000534514)
(1.80091e-06 2.21791e-06 0.000534733)
(2.22758e-06 2.22058e-06 0.000535145)
(3.04013e-06 2.22404e-06 0.000535587)
(2.29777e-06 2.21459e-06 0.000536145)
(3.10524e-07 3.03646e-06 0.000534961)
(1.80703e-06 3.04252e-06 0.000535179)
(2.23106e-06 3.03382e-06 0.000535586)
(3.04286e-06 3.03654e-06 0.000536026)
(2.29869e-06 3.0307e-06 0.000536582)
(3.18498e-07 2.30312e-06 0.000535537)
(1.79827e-06 2.30481e-06 0.000535752)
(2.22161e-06 2.29413e-06 0.000536145)
(3.03701e-06 2.29503e-06 0.000536582)
(2.29138e-06 2.28772e-06 0.000537126)
(1.56501e-07 1.46057e-07 -0.000182327)
(3.4587e-06 1.38841e-07 -0.000182358)
(3.73811e-06 1.41488e-07 -0.000180402)
(5.80922e-06 1.39065e-07 -0.000180445)
(5.41845e-06 1.45642e-07 -0.000177127)
(1.49325e-07 3.44837e-06 -0.000182358)
(3.4525e-06 3.44215e-06 -0.00018239)
(3.73268e-06 3.4243e-06 -0.00018043)
(5.80602e-06 3.41748e-06 -0.000180473)
(5.41717e-06 3.39499e-06 -0.000177156)
(1.51915e-07 3.72894e-06 -0.000180404)
(3.43463e-06 3.72348e-06 -0.000180432)
(3.71344e-06 3.70425e-06 -0.000178465)
(5.77989e-06 3.69699e-06 -0.000178505)
(5.39548e-06 3.67212e-06 -0.000175203)
(1.49499e-07 5.8001e-06 -0.000180447)
(3.42782e-06 5.79688e-06 -0.000180475)
(3.70619e-06 5.77076e-06 -0.000178505)
(5.77388e-06 5.76475e-06 -0.000178546)
(5.39173e-06 5.72558e-06 -0.000175252)
(1.56036e-07 5.41169e-06 -0.000177131)
(3.4053e-06 5.4104e-06 -0.00017716)
(3.68131e-06 5.3887e-06 -0.000175205)
(5.73471e-06 5.38495e-06 -0.000175254)
(5.35524e-06 5.34846e-06 -0.000172005)
(2.10409e-07 2.00054e-07 0.000428623)
(3.70335e-06 2.18479e-07 0.000428883)
(4.12747e-06 2.46266e-07 0.000431086)
(6.31909e-06 2.55921e-07 0.00043161)
(5.69866e-06 2.67372e-07 0.000435122)
(2.28884e-07 3.69319e-06 0.000428882)
(3.72176e-06 3.71155e-06 0.00042914)
(4.14205e-06 3.72982e-06 0.000431335)
(6.32422e-06 3.73935e-06 0.000431853)
(5.69948e-06 3.71409e-06 0.000435358)
(2.56667e-07 4.11856e-06 0.000431084)
(3.73999e-06 4.13309e-06 0.000431333)
(4.15527e-06 4.14634e-06 0.000433495)
(6.30335e-06 4.1517e-06 0.000434002)
(5.67244e-06 4.1193e-06 0.000437473)
(2.66347e-07 6.31053e-06 0.000431607)
(3.74953e-06 6.31563e-06 0.000431851)
(4.16066e-06 6.29479e-06 0.000434001)
(6.29717e-06 6.2886e-06 0.000434497)
(5.66593e-06 6.23034e-06 0.00043795)
(2.77806e-07 5.69272e-06 0.000435118)
(3.72426e-06 5.6935e-06 0.000435355)
(4.12826e-06 5.66647e-06 0.000437471)
(6.23889e-06 5.65995e-06 0.000437949)
(5.6124e-06 5.60642e-06 0.000441351)
(4.01253e-07 3.88528e-07 -5.68679e-05)
(5.92209e-06 3.81058e-07 -5.65984e-05)
(6.46498e-06 3.73925e-07 -5.29726e-05)
(9.84524e-06 3.6666e-07 -5.24029e-05)
(9.01362e-06 3.63497e-07 -4.64285e-05)
(3.93792e-07 5.90965e-06 -5.65992e-05)
(5.90523e-06 5.89277e-06 -5.63307e-05)
(6.44605e-06 5.83275e-06 -5.27081e-05)
(9.82978e-06 5.80968e-06 -5.21392e-05)
(9.00488e-06 5.74597e-06 -4.61756e-05)
(3.86604e-07 6.45392e-06 -5.29759e-05)
(5.84518e-06 6.43494e-06 -5.27106e-05)
(6.38189e-06 6.3708e-06 -4.9114e-05)
(9.75843e-06 6.34056e-06 -4.85519e-05)
(8.94831e-06 6.26393e-06 -4.26536e-05)
(3.79342e-07 9.83444e-06 -5.24068e-05)
(5.82211e-06 9.81896e-06 -5.21423e-05)
(6.35166e-06 9.74761e-06 -4.85525e-05)
(9.72289e-06 9.71207e-06 -4.79918e-05)
(8.92648e-06 9.60429e-06 -4.21087e-05)
(3.76136e-07 9.00571e-06 -4.64349e-05)
(5.75838e-06 8.99696e-06 -4.61812e-05)
(6.27503e-06 8.94038e-06 -4.26567e-05)
(9.6151e-06 8.91854e-06 -4.21111e-05)
(8.83799e-06 8.83005e-06 -3.63097e-05)
(4.6335e-07 4.49572e-07 0.000284884)
(7.59864e-06 4.65398e-07 0.000285411)
(8.32305e-06 4.89513e-07 0.000290465)
(1.28645e-05 4.97519e-07 0.000291525)
(1.1812e-05 4.98934e-07 0.000299666)
(4.79259e-07 7.5852e-06 0.00028541)
(7.61293e-06 7.59942e-06 0.00028593)
(8.33366e-06 7.58845e-06 0.000290964)
(1.2858e-05 7.59039e-06 0.000292009)
(1.18018e-05 7.48907e-06 0.000300119)
(5.03338e-07 8.31103e-06 0.000290461)
(7.6019e-06 8.3216e-06 0.000290961)
(8.31402e-06 8.302e-06 0.000295918)
(1.2765e-05 8.29912e-06 0.000296929)
(1.17078e-05 8.18634e-06 0.000304927)
(5.11383e-07 1.28528e-05 0.000291521)
(7.60389e-06 1.28463e-05 0.000292005)
(8.31118e-06 1.27534e-05 0.000296928)
(1.27423e-05 1.27306e-05 0.000297909)
(1.16856e-05 1.25753e-05 0.00030585)
(5.12772e-07 1.18036e-05 0.000299659)
(7.50254e-06 1.17933e-05 0.000300113)
(8.19839e-06 1.16993e-05 0.000304923)
(1.2587e-05 1.16771e-05 0.000305848)
(1.1547e-05 1.15385e-05 0.000313616)
(8.92177e-07 8.75351e-07 3.81378e-05)
(1.15022e-05 8.64663e-07 3.87821e-05)
(1.25792e-05 8.38556e-07 4.59338e-05)
(1.90484e-05 8.16062e-07 4.72733e-05)
(1.73451e-05 7.81376e-07 5.89782e-05)
(8.81469e-07 1.1486e-05 3.87804e-05)
(1.14591e-05 1.14428e-05 3.94284e-05)
(1.2525e-05 1.12857e-05 4.65762e-05)
(1.89867e-05 1.12129e-05 4.79089e-05)
(1.73053e-05 1.10064e-05 5.95807e-05)
(8.55277e-07 1.25648e-05 4.59289e-05)
(1.13019e-05 1.25105e-05 4.65729e-05)
(1.23494e-05 1.23348e-05 5.36165e-05)
(1.87691e-05 1.22405e-05 5.49111e-05)
(1.71342e-05 1.19955e-05 6.64469e-05)
(8.3274e-07 1.90344e-05 4.72672e-05)
(1.12291e-05 1.89726e-05 4.79044e-05)
(1.22551e-05 1.87551e-05 5.491e-05)
(1.86473e-05 1.86332e-05 5.6194e-05)
(1.70553e-05 1.82957e-05 6.76635e-05)
(7.97991e-07 1.73349e-05 5.8969e-05)
(1.10227e-05 1.72951e-05 5.95731e-05)
(1.20101e-05 1.7124e-05 6.64426e-05)
(1.83097e-05 1.70451e-05 6.76604e-05)
(1.679e-05 1.67797e-05 7.8878e-05)
(1.0805e-06 1.06162e-06 0.000170404)
(1.53947e-05 1.08238e-06 0.00017132)
(1.68144e-05 1.09997e-06 0.000181401)
(2.59114e-05 1.10043e-06 0.000183422)
(2.37978e-05 1.06867e-06 0.000200116)
(1.10135e-06 1.53763e-05 0.000171318)
(1.54087e-05 1.53903e-05 0.000172266)
(1.68142e-05 1.52712e-05 0.000182365)
(2.58651e-05 1.52283e-05 0.000184401)
(2.37537e-05 1.49578e-05 0.000201032)
(1.11898e-06 1.67978e-05 0.000181395)
(1.52895e-05 1.67976e-05 0.000182361)
(1.66524e-05 1.66359e-05 0.000192331)
(2.5598e-05 1.65843e-05 0.000194334)
(2.35187e-05 1.62692e-05 0.000210764)
(1.11947e-06 2.58955e-05 0.000183414)
(1.52467e-05 2.58491e-05 0.000184396)
(1.66008e-05 2.55821e-05 0.000194332)
(2.54983e-05 2.54824e-05 0.000196353)
(2.34289e-05 2.50087e-05 0.000212659)
(1.08768e-06 2.37862e-05 0.000200105)
(1.49762e-05 2.3742e-05 0.000201023)
(1.62857e-05 2.35071e-05 0.000210759)
(2.50247e-05 2.34172e-05 0.000212656)
(2.30316e-05 2.302e-05 0.000228504)
(1.74871e-06 1.72558e-06 7.36214e-05)
(2.24992e-05 1.75227e-06 7.5081e-05)
(2.46809e-05 1.74324e-06 8.97351e-05)
(3.77677e-05 1.73599e-06 9.26565e-05)
(3.44403e-05 1.63806e-06 0.000116104)
(1.7754e-06 2.24769e-05 7.50782e-05)
(2.25063e-05 2.24841e-05 7.65171e-05)
(2.46597e-05 2.22157e-05 9.10757e-05)
(3.76572e-05 2.21246e-05 9.39821e-05)
(3.43356e-05 2.16543e-05 0.000117289)
(1.7663e-06 2.46612e-05 8.9728e-05)
(2.22379e-05 2.46398e-05 9.10712e-05)
(2.43215e-05 2.43016e-05 0.000105168)
(3.72062e-05 2.4193e-05 0.000107879)
(3.39585e-05 2.36228e-05 0.00013071)
(1.75901e-06 3.77487e-05 9.26474e-05)
(2.21467e-05 3.7638e-05 9.39758e-05)
(2.42128e-05 3.7187e-05 0.000107877)
(3.69782e-05 3.69591e-05 0.000110542)
(3.37523e-05 3.60392e-05 0.000133172)
(1.66091e-06 3.44267e-05 0.000116091)
(2.16764e-05 3.43219e-05 0.000117278)
(2.36427e-05 3.39448e-05 0.000130704)
(3.60584e-05 3.37385e-05 0.000133167)
(3.3019e-05 3.30053e-05 0.000155163)
(2.48995e-06 2.46325e-06 6.26042e-05)
(3.15085e-05 2.46829e-06 6.5103e-05)
(3.43899e-05 2.39183e-06 8.69891e-05)
(5.22858e-05 2.37868e-06 9.18598e-05)
(4.78207e-05 2.20723e-06 0.000125671)
(2.49506e-06 3.1483e-05 6.50989e-05)
(3.14062e-05 3.13805e-05 6.7511e-05)
(3.42793e-05 3.07037e-05 8.92629e-05)
(5.20837e-05 3.04506e-05 9.40498e-05)
(4.76331e-05 2.95641e-05 0.000127501)
(2.41844e-06 3.43671e-05 8.69793e-05)
(3.07292e-05 3.42564e-05 8.92572e-05)
(3.346e-05 3.34371e-05 0.000109887)
(5.11459e-05 3.31438e-05 0.000114071)
(4.69111e-05 3.21519e-05 0.000146625)
(2.40525e-06 5.22639e-05 9.18471e-05)
(3.04762e-05 5.20617e-05 9.40412e-05)
(3.31668e-05 5.11239e-05 0.000114068)
(5.07982e-05 5.07761e-05 0.000118106)
(4.66151e-05 4.94665e-05 0.000150327)
(2.23367e-06 4.7805e-05 0.000125654)
(2.95894e-05 4.76173e-05 0.000127488)
(3.21747e-05 4.68953e-05 0.000146617)
(4.94885e-05 4.65992e-05 0.000150322)
(4.55651e-05 4.55492e-05 0.000181418)
(4.1434e-06 4.10988e-06 4.39171e-05)
(4.68841e-05 4.05617e-06 4.77901e-05)
(5.14377e-05 3.91334e-06 7.7893e-05)
(7.64573e-05 3.82452e-06 8.52965e-05)
(6.90756e-05 3.37236e-06 0.000135362)
(4.08969e-06 4.68521e-05 4.77854e-05)
(4.66704e-05 4.66383e-05 5.15359e-05)
(5.11985e-05 4.51133e-05 8.14123e-05)
(7.59025e-05 4.43352e-05 8.86252e-05)
(6.86073e-05 4.2608e-05 0.000138138)
(3.94674e-06 5.14094e-05 7.78821e-05)
(4.51454e-05 5.117e-05 8.1406e-05)
(4.91347e-05 4.91064e-05 0.000111558)
(7.39516e-05 4.82493e-05 0.000118238)
(6.73179e-05 4.64495e-05 0.000164905)
(3.8578e-06 7.64316e-05 8.52824e-05)
(4.43673e-05 7.58764e-05 8.86157e-05)
(4.82778e-05 7.39249e-05 0.000118235)
(7.32452e-05 7.32185e-05 0.000124646)
(6.6772e-05 7.08396e-05 0.00017026)
(3.40452e-06 6.90581e-05 0.000135342)
(4.2639e-05 6.85894e-05 0.000138122)
(4.64772e-05 6.72994e-05 0.000164896)
(7.08662e-05 6.67534e-05 0.000170254)
(6.48874e-05 6.48688e-05 0.000213618)
(6.27847e-06 6.23966e-06 -7.22263e-05)
(6.54845e-05 6.12587e-06 -6.73398e-05)
(7.18963e-05 5.82842e-06 -2.95095e-05)
(0.000109766 5.62961e-06 -2.05978e-05)
(9.90627e-05 4.91142e-06 4.46395e-05)
(6.16473e-06 6.54481e-05 -6.73452e-05)
(6.50331e-05 6.49965e-05 -6.25861e-05)
(7.13686e-05 6.43684e-05 -2.50084e-05)
(0.00010882 6.33922e-05 -1.63178e-05)
(9.83149e-05 5.9107e-05 4.92797e-05)
(5.86696e-06 7.18642e-05 -2.95217e-05)
(6.44049e-05 7.13361e-05 -2.50152e-05)
(7.0292e-05 7.02595e-05 1.27349e-05)
(0.000104504 6.91642e-05 2.19203e-05)
(9.4718e-05 6.42742e-05 8.69853e-05)
(5.66787e-06 0.000109735 -2.06138e-05)
(6.34284e-05 0.000108789 -1.63285e-05)
(6.91966e-05 0.000104473 2.1916e-05)
(0.000102834 0.000102803 3.08597e-05)
(9.33567e-05 9.81891e-05 9.48679e-05)
(4.94952e-06 9.9041e-05 4.46132e-05)
(5.91433e-05 9.8293e-05 4.92596e-05)
(6.43069e-05 9.46963e-05 8.69741e-05)
(9.82203e-05 9.3335e-05 9.48611e-05)
(9.00066e-05 8.99849e-05 0.000154795)
(8.90297e-06 8.85598e-06 -5.66157e-05)
(8.9601e-05 8.67373e-06 -4.79474e-05)
(9.81798e-05 8.26982e-06 1.07532e-05)
(0.000150623 7.96325e-06 2.6708e-05)
(0.000135991 7.84875e-06 0.000119992)
(8.72087e-06 8.95569e-05 -4.79542e-05)
(8.90073e-05 8.89631e-05 -3.94189e-05)
(9.74667e-05 8.73579e-05 1.8813e-05)
(0.000150207 8.68535e-05 3.44001e-05)
(0.000135874 8.49539e-05 0.000127105)
(8.31666e-06 9.81408e-05 1.07375e-05)
(8.74021e-05 9.74276e-05 1.88041e-05)
(9.60702e-05 9.60308e-05 7.47739e-05)
(0.000148218 9.54269e-05 8.96449e-05)
(0.000134016 9.20378e-05 0.000181975)
(8.00984e-06 0.000150583 2.66871e-05)
(8.68973e-05 0.000150168 3.4386e-05)
(9.5466e-05 0.00014818 8.96398e-05)
(0.000146213 0.000146175 0.000103954)
(0.000132396 0.000138665 0.000194446)
(7.89606e-06 0.000135963 0.000119963)
(8.50001e-05 0.000135846 0.000127083)
(9.20788e-05 0.000133991 0.000181962)
(0.000138703 0.000132371 0.000194438)
(0.000126373 0.000126348 0.000277661)
(1.48381e-05 1.47815e-05 -0.000317159)
(0.000132853 1.45292e-05 -0.000303662)
(0.000146551 1.37744e-05 -0.000221958)
(0.000219029 1.3208e-05 -0.000198582)
(0.000194758 1.19265e-05 -7.41417e-05)
(1.45861e-05 0.000132801 -0.00030367)
(0.0001318 0.000131748 -0.00029063)
(0.000145187 0.000128389 -0.000209898)
(0.000217136 0.000126329 -0.000187343)
(0.000193408 0.00012109 -6.46026e-05)
(1.38309e-05 0.000146505 -0.000221977)
(0.000128441 0.00014514 -0.000209909)
(0.000141132 0.000141086 -0.000132745)
(0.000211728 0.000138717 -0.000112188)
(0.000189361 0.000131614 8.36671e-06)
(1.32642e-05 0.000218985 -0.000198606)
(0.000126381 0.000217091 -0.00018736)
(0.000138764 0.000211683 -0.000112193)
(0.000207662 0.000207618 -9.30239e-05)
(0.000186122 0.000193897 2.65797e-05)
(1.19822e-05 0.000194728 -7.41717e-05)
(0.000121141 0.000193378 -6.46258e-05)
(0.000131661 0.000189331 8.35188e-06)
(0.000193941 0.000186092 2.65703e-05)
(0.000175384 0.000175354 0.000139775)
(2.22014e-05 2.21322e-05 -0.000298951)
(0.000184803 2.14875e-05 -0.000276397)
(0.00020326 2.01141e-05 -0.000155973)
(0.000298477 1.89869e-05 -0.000117239)
(0.000263908 1.71792e-05 7.20157e-05)
(2.15571e-05 0.00018474 -0.000276406)
(0.00018278 0.000182716 -0.000254669)
(0.000200754 0.000176572 -0.000136305)
(0.00029554 0.000173248 -9.86302e-05)
(0.000262054 0.000167463 8.80337e-05)
(2.01826e-05 0.000203205 -0.000155995)
(0.000176635 0.000200698 -0.000136318)
(0.000193792 0.000193736 -2.3062e-05)
(0.000289365 0.000189746 1.16855e-05)
(0.000257881 0.000183221 0.000191424)
(1.90552e-05 0.000298426 -0.000117269)
(0.000173311 0.000295488 -9.86504e-05)
(0.000189802 0.000289313 1.16783e-05)
(0.000285021 0.000284968 4.48787e-05)
(0.000255257 0.000270105 0.000220549)
(1.72459e-05 0.000263875 7.19755e-05)
(0.000167525 0.00026202 8.80023e-05)
(0.000183275 0.000257846 0.000191405)
(0.000270157 0.000255222 0.000220538)
(0.000242668 0.000242633 0.000379201)
(3.72515e-05 3.71689e-05 -0.000802746)
(0.00027583 3.6088e-05 -0.00076384)
(0.000305707 3.33119e-05 -0.000595143)
(0.000447068 3.16869e-05 -0.000531172)
(0.0003892 2.7851e-05 -0.00026843)
(3.61714e-05 0.000275756 -0.000763851)
(0.0002719 0.000271825 -0.000727299)
(0.000301224 0.000261298 -0.000562251)
(0.000441524 0.000255252 -0.00050131)
(0.000385163 0.000240497 -0.000243868)
(3.33942e-05 0.00030564 -0.000595172)
(0.000261372 0.000301157 -0.000562269)
(0.000289133 0.000289066 -0.000406256)
(0.000426261 0.000282223 -0.000351062)
(0.000373889 0.000264127 -0.000110411)
(3.17692e-05 0.000447006 -0.000531209)
(0.000255326 0.000441462 -0.000501337)
(0.00028229 0.000426197 -0.00035107)
(0.000416578 0.000416515 -0.000299984)
(0.000366431 0.000381717 -6.52377e-05)
(2.79321e-05 0.000389159 -0.000268481)
(0.00024057 0.000385122 -0.00024391)
(0.000264193 0.000373848 -0.000110435)
(0.00038178 0.00036639 -6.52533e-05)
(0.000338337 0.000338295 0.000160017)
(6.07807e-05 6.06777e-05 -0.000849245)
(0.00039241 5.76727e-05 -0.000781768)
(0.000435929 5.26695e-05 -0.000530644)
(0.000625275 4.85195e-05 -0.000423763)
(0.000534027 4.14393e-05 -3.56539e-05)
(5.77772e-05 0.000392319 -0.000781782)
(0.000384384 0.000384291 -0.000718721)
(0.000426744 0.000365464 -0.000475989)
(0.000614006 0.000353362 -0.000374675)
(0.000526733 0.000325486 2.61639e-06)
(5.27714e-05 0.000435847 -0.000530677)
(0.000365555 0.000426661 -0.000476009)
(0.000405 0.000404918 -0.000246523)
(0.000585289 0.000391073 -0.000156839)
(0.000505373 0.000361852 0.000200473)
(4.86215e-05 0.000625201 -0.000423806)
(0.000353453 0.000613931 -0.000374705)
(0.000391156 0.000585212 -0.00015685)
(0.000570929 0.000570852 -7.47153e-05)
(0.000496627 0.000540598 0.000268119)
(4.15377e-05 0.000533979 -3.57126e-05)
(0.000325575 0.000526684 2.5704e-06)
(0.000361933 0.000505323 0.000200444)
(0.000540675 0.000496576 0.000268102)
(0.00047409 0.000474039 0.000572399)
(0.000104496 0.000104375 -0.00181187)
(0.000594433 9.88454e-05 -0.00169106)
(0.000663699 8.77891e-05 -0.00133868)
(0.00094216 8.05972e-05 -0.00115569)
(0.000788141 6.60669e-05 -0.000615746)
(9.89682e-05 0.000594326 -0.00169108)
(0.000577692 0.000577584 -0.00158187)
(0.000645257 0.000545413 -0.00124249)
(0.00092023 0.000522168 -0.00107352)
(0.000773011 0.000476618 -0.000550942)
(8.79091e-05 0.000663604 -0.00133873)
(0.000545519 0.00064516 -0.00124252)
(0.000608292 0.000608195 -0.000925168)
(0.000873353 0.000582172 -0.000774739)
(0.00074112 0.000529618 -0.000285478)
(8.07172e-05 0.000942072 -0.00115574)
(0.000522275 0.00092014 -0.00107356)
(0.000582268 0.000873261 -0.000774749)
(0.000841638 0.000841547 -0.000643125)
(0.000718708 0.000753733 -0.000181263)
(6.6183e-05 0.000788084 -0.000615821)
(0.000476721 0.000772953 -0.000551006)
(0.000529713 0.000741059 -0.000285512)
(0.000753824 0.000718649 -0.000181289)
(0.000650974 0.000650914 0.000244874)
(0.000180998 0.000180844 -0.00214608)
(0.000865606 0.00016622 -0.00192337)
(0.000971302 0.000148277 -0.00138174)
(0.00134841 0.000130113 -0.00106521)
(0.00108945 0.000105768 -0.000263181)
(0.000166377 0.000865473 -0.00192339)
(0.00083298 0.000832845 -0.00172387)
(0.000935094 0.000778993 -0.0012164)
(0.00130575 0.000734325 -0.000926499)
(0.00106432 0.000655767 -0.000165034)
(0.000148428 0.000971182 -0.00138179)
(0.000779126 0.000934972 -0.00121643)
(0.000872779 0.000872658 -0.000741696)
(0.00122516 0.000821465 -0.000495065)
(0.00100863 0.000731533 0.000219297)
(0.000130265 0.0013483 -0.00106527)
(0.000734458 0.00130564 -0.000926542)
(0.000821587 0.00122505 -0.000495079)
(0.00116458 0.00116447 -0.000282304)
(0.000971796 0.00107108 0.000377978)
(0.000105912 0.00108937 -0.000263267)
(0.000655897 0.00106425 -0.000165103)
(0.000731652 0.00100855 0.000219256)
(0.00107119 0.000971719 0.000377953)
(0.000912234 0.000912158 0.000962922)
(0.000326746 0.000326567 -0.00402428)
(0.0013588 0.000297715 -0.00361669)
(0.00152184 0.000252742 -0.00285531)
(0.00206097 0.000218887 -0.0023127)
(0.00161293 0.000164072 -0.00120792)
(0.000297898 0.00135865 -0.00361671)
(0.00128471 0.00128455 -0.00327018)
(0.0014426 0.00118546 -0.00256051)
(0.00197182 0.0010923 -0.00208064)
(0.00155623 0.000959077 -0.00103434)
(0.000252918 0.0015217 -0.00285537)
(0.00118561 0.00144246 -0.00256056)
(0.0013296 0.00132946 -0.00191355)
(0.00183453 0.00122632 -0.00149704)
(0.0014756 0.00107259 -0.000534029)
(0.000219063 0.00206084 -0.00231277)
(0.00109246 0.00197169 -0.00208069)
(0.00122646 0.0018344 -0.00149705)
(0.00171487 0.00171474 -0.001153)
(0.00139765 0.00149754 -0.000271471)
(0.000164238 0.00161285 -0.00120803)
(0.000959225 0.00155615 -0.00103444)
(0.00107273 0.00147552 -0.000534081)
(0.00149768 0.00139757 -0.000271513)
(0.00125197 0.00125189 0.000503661)
(0.000587321 0.000587094 -0.00545212)
(0.00203461 0.000511334 -0.0046268)
(0.00227527 0.000441876 -0.00337992)
(0.00299622 0.000360972 -0.00239262)
(0.00222738 0.000278378 -0.000710571)
(0.000511572 0.00203441 -0.00462683)
(0.0018892 0.001889 -0.00393731)
(0.00212461 0.00172078 -0.0028428)
(0.00283232 0.00155 -0.00198022)
(0.00214209 0.00132972 -0.000449229)
(0.000442098 0.0022751 -0.00338)
(0.00172097 0.00212443 -0.00284284)
(0.0019363 0.00193612 -0.00183234)
(0.00260508 0.00174909 -0.0011307)
(0.0020003 0.00149442 0.000295663)
(0.000361198 0.00299607 -0.00239271)
(0.0015502 0.00283216 -0.00198029)
(0.00174927 0.00260491 -0.00113072)
(0.00239051 0.00239035 -0.000564891)
(0.00187986 0.00210902 0.000672492)
(0.000278587 0.00222727 -0.000710698)
(0.0013299 0.00214198 -0.000449333)
(0.00149459 0.00200018 0.000295601)
(0.00210919 0.00187974 0.000672447)
(0.00171006 0.00170994 0.00177468)
(0.00115122 0.00115095 -0.00925715)
(0.00343104 0.000985835 -0.00776648)
(0.00375592 0.000788855 -0.00601943)
(0.00473099 0.000630109 -0.00436243)
(0.00334423 0.000424654 -0.00209921)
(0.000986116 0.00343082 -0.00776649)
(0.00306876 0.00306853 -0.00660416)
(0.0033996 0.00273306 -0.00507423)
(0.00436597 0.00235422 -0.00369899)
(0.00313262 0.00196523 -0.00163846)
(0.000789119 0.00375573 -0.0060195)
(0.00273329 0.00339939 -0.00507429)
(0.00304163 0.00304143 -0.00372946)
(0.00396299 0.00264154 -0.0025765)
(0.00294319 0.00219416 -0.000731152)
(0.000630371 0.00473081 -0.00436251)
(0.00235444 0.00436578 -0.00369906)
(0.00264174 0.0039628 -0.00257651)
(0.00351848 0.00351829 -0.00170169)
(0.00267141 0.00297699 -9.04682e-05)
(0.000424895 0.00334411 -0.00209935)
(0.00196544 0.00313249 -0.00163859)
(0.00219436 0.00294306 -0.000731219)
(0.00297719 0.00267128 -9.05269e-05)
(0.00238454 0.00238441 0.00122665)
(0.00207504 0.00207472 -0.0150145)
(0.00527262 0.00167028 -0.0114804)
(0.00567945 0.00138432 -0.00824081)
(0.00691744 0.00102165 -0.00504055)
(0.0045626 0.000737069 -0.00145641)
(0.00167063 0.00527235 -0.0114805)
(0.00458162 0.00458135 -0.0088631)
(0.00502979 0.00401086 -0.00637323)
(0.00626899 0.00333596 -0.00377225)
(0.00426851 0.00269793 -0.000746617)
(0.00138463 0.00567921 -0.00824093)
(0.00401112 0.00502953 -0.00637329)
(0.00443407 0.00443382 -0.00413117)
(0.00560423 0.00374631 -0.00213173)
(0.00390408 0.00304241 0.000647753)
(0.00102197 0.00691722 -0.00504069)
(0.00333623 0.00626877 -0.00377235)
(0.00374657 0.005604 -0.00213175)
(0.00487722 0.00487699 -0.000654375)
(0.00354249 0.00406718 0.0015489)
(0.00073736 0.00456243 -0.0014566)
(0.00269819 0.00426835 -0.000746766)
(0.00304265 0.0039039 0.000647665)
(0.00406741 0.00354231 0.00154884)
(0.00306816 0.00306798 0.00347045)
(0.00468583 0.00468535 -0.0229477)
(0.0102048 0.00360137 -0.017125)
(0.0101958 0.00265426 -0.012645)
(0.0115169 0.00189562 -0.00760039)
(0.00703645 0.00113184 -0.0030174)
(0.00360183 0.0102044 -0.0171251)
(0.00817593 0.00817556 -0.013024)
(0.00849027 0.00684268 -0.00956564)
(0.00999371 0.00526295 -0.00574279)
(0.00625183 0.00406921 -0.00185678)
(0.00265468 0.0101955 -0.0126451)
(0.00684302 0.00848997 -0.00956572)
(0.00728291 0.00728263 -0.00670836)
(0.00874294 0.00575916 -0.00365253)
(0.00580609 0.00448942 -0.000286598)
(0.00189602 0.0115167 -0.00760049)
(0.00526329 0.00999344 -0.00574289)
(0.00575946 0.00874266 -0.00365253)
(0.00719993 0.00719965 -0.00158287)
(0.0049421 0.00580071 0.00109246)
(0.00113219 0.00703628 -0.00301756)
(0.00406952 0.00625165 -0.00185693)
(0.0044897 0.00580589 -0.000286686)
(0.005801 0.0049419 0.00109238)
(0.00436164 0.00436144 0.00318955)
(0.00789275 0.00789237 -0.0476344)
(0.0155762 0.00576359 -0.0299801)
(0.0152062 0.00445679 -0.0200785)
(0.0165473 0.0028724 -0.00968662)
(0.00930122 0.00189239 -0.00203892)
(0.00576409 0.0155759 -0.0299804)
(0.0121413 0.0121409 -0.0193291)
(0.0123118 0.00994783 -0.0133645)
(0.0139799 0.00728383 -0.00584098)
(0.00828877 0.00542901 -0.000188608)
(0.00445719 0.0152059 -0.0200787)
(0.00994817 0.0123115 -0.0133645)
(0.0103476 0.0103473 -0.00820797)
(0.0120276 0.00790616 -0.00284511)
(0.00738514 0.00599139 0.00223669)
(0.00287287 0.016547 -0.00968687)
(0.00728419 0.0139796 -0.00584112)
(0.00790651 0.0120273 -0.00284516)
(0.00962317 0.00962286 0.000691127)
(0.00630981 0.00754347 0.00413602)
(0.00189278 0.00930099 -0.00203918)
(0.00542935 0.00828855 -0.000188794)
(0.0059917 0.00738488 0.00223657)
(0.00754379 0.00630955 0.00413593)
(0.00523465 0.0052344 0.0070689)
(0.0223806 0.0223795 -0.0646026)
(0.037757 0.0142624 -0.0403692)
(0.0304935 0.0093669 -0.0259305)
(0.0295583 0.00573662 -0.0112345)
(0.0149226 0.00297495 -0.00235954)
(0.0142633 0.0377565 -0.0403693)
(0.0247891 0.0247884 -0.0246124)
(0.02198 0.018712 -0.0160823)
(0.0231707 0.0121039 -0.00634012)
(0.0120885 0.00834482 0.000270698)
(0.00936766 0.0304933 -0.0259305)
(0.0187125 0.0219796 -0.0160823)
(0.0178024 0.0178021 -0.00988152)
(0.0191893 0.0122911 -0.00268835)
(0.0110467 0.00881407 0.00268624)
(0.00573727 0.029558 -0.0112346)
(0.0121044 0.0231703 -0.00634023)
(0.0122915 0.0191889 -0.00268836)
(0.0141825 0.014182 0.00148871)
(0.00850004 0.0106351 0.00520723)
(0.00297548 0.0149224 -0.00235966)
(0.00834527 0.0120883 0.000270566)
(0.00881445 0.0110465 0.00268616)
(0.0106355 0.00849976 0.00520715)
(0.0073853 0.00738501 0.00795919)
(0.0322578 0.0322576 -0.180165)
(0.0541951 0.0215459 -0.0794289)
(0.0443529 0.0142905 -0.0439892)
(0.0401176 0.00775213 -0.0135978)
(0.0185051 0.00450794 0.00113814)
(0.0215465 0.0541949 -0.0794306)
(0.0364111 0.0364106 -0.036065)
(0.0305915 0.0259921 -0.0219005)
(0.0303345 0.0158286 -0.00359391)
(0.0151553 0.0104736 0.00500661)
(0.0142908 0.0443526 -0.0439898)
(0.0259923 0.0305911 -0.0219003)
(0.0237445 0.0237442 -0.010692)
(0.0245967 0.0157358 0.000974658)
(0.0129614 0.0109265 0.00832189)
(0.00775276 0.0401171 -0.0135983)
(0.0158291 0.030334 -0.00359409)
(0.0157362 0.0245963 0.000974525)
(0.0175189 0.0175185 0.00740458)
(0.0101706 0.0128157 0.011344)
(0.00450837 0.0185049 0.00113768)
(0.010474 0.015155 0.00500642)
(0.0109269 0.012961 0.0083217)
(0.0128161 0.0101702 0.0113439)
(0.00808705 0.0080867 0.0143891)
(0.124624 0.124621 -0.217919)
(0.174031 0.0579236 -0.108703)
(0.0963541 0.0315091 -0.0466524)
(0.0746806 0.0157443 -0.00813069)
(0.0301637 0.00682931 0.00603298)
(0.057926 0.17403 -0.108703)
(0.0822698 0.0822676 -0.0385783)
(0.0544528 0.0519869 -0.0171524)
(0.0500758 0.0266729 0.00240885)
(0.021001 0.0155296 0.0103045)
(0.0315108 0.0963552 -0.0466511)
(0.051988 0.0544522 -0.0171522)
(0.040684 0.0406837 -0.00466704)
(0.0382053 0.0232933 0.00722604)
(0.0186509 0.0151529 0.0131425)
(0.0157454 0.0746804 -0.00813103)
(0.0266738 0.0500749 0.0024087)
(0.0232939 0.0382047 0.00722593)
(0.0245545 0.0245539 0.0128963)
(0.0125902 0.0167048 0.0158142)
(0.00683021 0.0301635 0.00603312)
(0.0155303 0.0210008 0.0103045)
(0.0151534 0.0186505 0.0131425)
(0.0167054 0.0125899 0.0158142)
(0.0105423 0.0105419 0.0179969)
(0.141024 0.141029 -0.892482)
(0.312163 0.095371 -0.186561)
(0.144378 0.0439083 -0.0364862)
(0.0927269 0.0182898 0.00867468)
(0.0332504 0.00874474 0.0227168)
(0.0953706 0.312153 -0.186571)
(0.127769 0.127768 -0.0310126)
(0.0715402 0.0678833 -0.000815805)
(0.0577769 0.0311606 0.0201358)
(0.0234289 0.0175783 0.0257402)
(0.0439076 0.144378 -0.0364897)
(0.0678822 0.0715395 -0.000814636)
(0.0481291 0.0481289 0.0137256)
(0.0423998 0.0262252 0.0234247)
(0.0191444 0.0164374 0.0268116)
(0.0182906 0.0927252 0.00867505)
(0.0311613 0.0577762 0.0201357)
(0.0262258 0.0423993 0.0234245)
(0.0261051 0.0261045 0.027375)
(0.0132432 0.0176713 0.0277847)
(0.00874509 0.0332507 0.0227157)
(0.0175785 0.0234288 0.0257399)
(0.0164378 0.0191442 0.0268113)
(0.0176717 0.0132428 0.0277845)
(0.0103677 0.0103673 0.0274175)
(0.557297 0.557282 -2.85033)
(0.920975 0.225228 -0.394763)
(0.225535 0.0682332 0.0647817)
(0.132797 0.0273117 0.0538246)
(0.044912 0.00983229 0.0423256)
(0.22523 0.920894 -0.394697)
(0.231299 0.231286 0.028557)
(0.103867 0.101681 0.0505599)
(0.0765886 0.0413606 0.0461379)
(0.0268985 0.0196196 0.0390057)
(0.0682365 0.225527 0.0647812)
(0.101686 0.103866 0.0505597)
(0.0649293 0.06493 0.0491464)
(0.0512822 0.030533 0.0426424)
(0.0222472 0.0171984 0.0382108)
(0.0273131 0.1328 0.0538228)
(0.0413609 0.0765863 0.0461375)
(0.0305338 0.0512813 0.0426421)
(0.0289098 0.0289088 0.0396241)
(0.0130719 0.017309 0.0355281)
(0.00983378 0.0449104 0.0423255)
(0.019621 0.0268981 0.0390054)
(0.017199 0.0222466 0.0382107)
(0.01731 0.0130714 0.035528)
(0.0102001 0.0101996 0.0337808)
(0.0110754 0.0110603 -5.87568)
(1.87934 0.114006 0.328133)
(0.0863375 0.0300243 0.24576)
(0.0653286 0.0106844 0.11382)
(0.0218277 0.00541936 0.0812209)
(0.113662 1.87942 0.328274)
(0.218797 0.218742 0.430446)
(0.0620856 0.0490978 0.153418)
(0.0452877 0.0199594 0.0882364)
(0.0163895 0.0134953 0.0676985)
(0.0300243 0.0863445 0.24576)
(0.0490973 0.062084 0.153416)
(0.0391566 0.0391559 0.111873)
(0.0314179 0.0197249 0.0755344)
(0.0147414 0.0129759 0.0582727)
(0.0106865 0.0653274 0.113819)
(0.0199617 0.0452869 0.0882362)
(0.0197258 0.0314173 0.0755345)
(0.0190002 0.0189992 0.0595379)
(0.00911249 0.0132452 0.0500227)
(0.00541995 0.0218297 0.0812201)
(0.0134955 0.0163893 0.0676976)
(0.0129765 0.0147412 0.0582722)
(0.0132457 0.00911194 0.0500225)
(0.00858029 0.00857975 0.0420396)
(-0.0272343 -0.0272566 -5.94358)
(-0.917413 -0.181806 -0.0830221)
(-0.0268983 -0.0269134 0.138075)
(-0.0295862 0.00173897 0.0898811)
(0.0113664 -0.00377096 0.0710587)
(-0.181812 -0.917426 -0.0830383)
(-0.0987647 -0.0987716 0.128499)
(-0.0152062 -0.0315077 0.110454)
(-0.00707602 0.00342939 0.082449)
(0.00593488 -0.00331859 0.063714)
(-0.0269102 -0.0269023 0.138068)
(-0.0315037 -0.0152074 0.110454)
(-0.0107942 -0.0107949 0.0903084)
(-0.00205282 0.00202123 0.0711098)
(0.00448007 -0.000469029 0.057746)
(0.00174059 -0.0295853 0.0898835)
(0.00343061 -0.00707765 0.082449)
(0.00202216 -0.00205424 0.07111)
(0.00346778 0.00346668 0.0611398)
(0.00330934 0.00109577 0.0509479)
(-0.00376938 0.0113648 0.0710567)
(-0.00331685 0.0059338 0.0637131)
(-0.000467813 0.00447895 0.0577455)
(0.00109719 0.00330856 0.0509475)
(0.00196986 0.00196908 0.0447055)
(0.0539204 0.0541603 -3.0397)