/*--------------------------------*- C++ -*----------------------------------*\
| =========                 |                                                 |
| \\      /  F ield         | OpenFOAM: The Open Source CFD Toolbox           |
|  \\    /   O peration     | Version:  5.x                                   |
|   \\  /    A nd           | Web:      www.OpenFOAM.org                      |
|    \\/     M anipulation  |                                                 |
\*---------------------------------------------------------------------------*/
FoamFile
{
    version     2.0;
    format      ascii;
    class       volScalarField;
    location    "0.09";
    object      phiIB;
}
// * * * * * * * * * * * * * * * * * * * * * * * * * * * * * * * * * * * * * //

dimensions      [0 2 -1 0 0 0 0];

internalField   nonuniform List<scalar> 
1553
(
-0.00039696
-0.000396769
-0.000396757
-0.000396672
-0.0003967
-0.00039677
-0.000396524
-0.000396497
-0.000396391
-0.000396407
-0.000396758
-0.000396497
-0.000396469
-0.00039636
-0.000396375
-0.000396674
-0.000396392
-0.000396361
-0.000396241
-0.000396254
-0.000396701
-0.000396407
-0.000396376
-0.000396254
-0.000396269
-0.00078561
-0.000785493
-0.000785408
-0.00078534
-0.000785306
-0.000785495
-0.000785395
-0.000785311
-0.000785245
-0.000785208
-0.000785409
-0.000785312
-0.00078523
-0.000785165
-0.000785128
-0.000785342
-0.000785246
-0.000785166
-0.000785102
-0.000785066
-0.000785308
-0.00078521
-0.00078513
-0.000785066
-0.00078503
-0.00185402
-0.00185372
-0.00185358
-0.00185341
-0.00185336
-0.00185372
-0.00185339
-0.00185324
-0.00185305
-0.00185299
-0.00185358
-0.00185324
-0.00185308
-0.00185289
-0.00185283
-0.00185342
-0.00185306
-0.0018529
-0.00185269
-0.00185262
-0.00185337
-0.001853
-0.00185283
-0.00185263
-0.00185256
-0.00239771
-0.0023974
-0.00239721
-0.00239702
-0.00239694
-0.00239741
-0.00239709
-0.00239689
-0.0023967
-0.0023966
-0.00239721
-0.00239689
-0.00239669
-0.00239648
-0.00239639
-0.00239703
-0.0023967
-0.00239649
-0.00239627
-0.00239617
-0.00239694
-0.00239661
-0.00239639
-0.00239617
-0.00239606
-0.00340081
-0.00340034
-0.00340008
-0.00339981
-0.0033997
-0.00340034
-0.00339984
-0.00339957
-0.00339928
-0.00339915
-0.00340008
-0.00339957
-0.00339929
-0.00339898
-0.00339885
-0.00339982
-0.00339928
-0.00339898
-0.00339866
-0.00339852
-0.00339971
-0.00339916
-0.00339886
-0.00339852
-0.00339838
-0.00401017
-0.0040096
-0.00400926
-0.00400893
-0.00400879
-0.0040096
-0.004009
-0.00400864
-0.00400829
-0.00400813
-0.00400926
-0.00400864
-0.00400827
-0.0040079
-0.00400774
-0.00400893
-0.00400829
-0.00400791
-0.00400752
-0.00400734
-0.0040088
-0.00400814
-0.00400774
-0.00400734
-0.00400715
-0.00495615
-0.00495535
-0.00495489
-0.00495445
-0.00495428
-0.00495535
-0.0049545
-0.00495402
-0.00495354
-0.00495334
-0.0049549
-0.00495402
-0.00495352
-0.00495302
-0.00495281
-0.00495446
-0.00495355
-0.00495303
-0.00495249
-0.00495226
-0.00495429
-0.00495335
-0.00495282
-0.00495226
-0.00495203
-0.00561299
-0.00561194
-0.00561134
-0.00561078
-0.00561056
-0.00561195
-0.00561084
-0.0056102
-0.00560959
-0.00560935
-0.00561135
-0.00561021
-0.00560955
-0.00560891
-0.00560864
-0.00561079
-0.0056096
-0.00560891
-0.00560823
-0.00560794
-0.00561058
-0.00560936
-0.00560865
-0.00560795
-0.00560764
-0.00651284
-0.0065114
-0.00651059
-0.00650985
-0.00650957
-0.0065114
-0.00650987
-0.00650901
-0.0065082
-0.00650789
-0.0065106
-0.00650902
-0.00650813
-0.00650728
-0.00650694
-0.00650986
-0.00650821
-0.00650729
-0.00650638
-0.006506
-0.00650959
-0.0065079
-0.00650695
-0.00650601
-0.00650561
-0.00720448
-0.00720255
-0.00720148
-0.00720053
-0.00720019
-0.00720256
-0.0072005
-0.00719937
-0.00719831
-0.00719793
-0.0072015
-0.00719937
-0.00719819
-0.00719708
-0.00719667
-0.00720055
-0.00719833
-0.00719709
-0.00719592
-0.00719545
-0.00720022
-0.00719795
-0.00719668
-0.00719546
-0.00719497
-0.00806475
-0.00806209
-0.00806066
-0.0080594
-0.00805898
-0.0080621
-0.00805926
-0.00805774
-0.00805634
-0.00805585
-0.00806068
-0.00805775
-0.00805615
-0.00805469
-0.00805415
-0.00805943
-0.00805636
-0.0080547
-0.00805314
-0.00805255
-0.00805901
-0.00805587
-0.00805417
-0.00805255
-0.00805193
-0.00877893
-0.00877538
-0.00877354
-0.00877194
-0.00877145
-0.0087754
-0.00877158
-0.00876958
-0.00876779
-0.00876719
-0.00877356
-0.00876959
-0.0087675
-0.00876561
-0.00876496
-0.00877197
-0.00876781
-0.00876562
-0.00876361
-0.00876288
-0.00877149
-0.00876722
-0.00876498
-0.00876289
-0.00876212
-0.00960064
-0.00959581
-0.00959349
-0.00959146
-0.00959089
-0.00959582
-0.00959064
-0.00958811
-0.00958583
-0.00958513
-0.00959351
-0.00958812
-0.00958546
-0.00958307
-0.00958228
-0.0095915
-0.00958586
-0.00958309
-0.00958051
-0.00957963
-0.00959093
-0.00958516
-0.00958231
-0.00957964
-0.0095787
-0.0103215
-0.0103154
-0.0103127
-0.0103103
-0.0103098
-0.0103154
-0.0103086
-0.0103057
-0.010303
-0.0103023
-0.0103127
-0.0103057
-0.0103026
-0.0102999
-0.0102991
-0.0103104
-0.010303
-0.0102999
-0.010297
-0.0102961
-0.0103099
-0.0103023
-0.0102991
-0.0102961
-0.010295
-0.0110939
-0.011086
-0.0110835
-0.0110811
-0.0110808
-0.011086
-0.0110776
-0.011075
-0.0110723
-0.0110719
-0.0110835
-0.011075
-0.0110726
-0.0110702
-0.01107
-0.0110811
-0.0110724
-0.0110703
-0.011068
-0.0110681
-0.0110808
-0.011072
-0.01107
-0.0110681
-0.0110685
-0.0117886
-0.0117794
-0.0117775
-0.0117754
-0.0117755
-0.0117794
-0.0117699
-0.0117684
-0.0117666
-0.0117669
-0.0117775
-0.0117684
-0.0117682
-0.0117667
-0.011768
-0.0117754
-0.0117666
-0.0117667
-0.011768
-0.0117749
-0.0117756
-0.011767
-0.011768
-0.0117749
-0.0117855
-0.0124684
-0.0124552
-0.0124541
-0.0124524
-0.0124532
-0.0124552
-0.0124436
-0.0124445
-0.0124437
-0.0124463
-0.0124542
-0.0124445
-0.0124463
-0.012449
-0.0124573
-0.0124525
-0.0124437
-0.0124491
-0.0124622
-0.0124707
-0.0124533
-0.0124463
-0.0124574
-0.0124708
-0.0124791
-0.0130665
-0.0130386
-0.013031
-0.0130267
-0.0130268
-0.0130386
-0.013018
-0.0130153
-0.0130138
-0.0130175
-0.013031
-0.0130153
-0.0130161
-0.0130183
-0.0130195
-0.0130268
-0.0130139
-0.0130184
-0.0130181
-0.0130173
-0.0130269
-0.0130175
-0.0130196
-0.0130174
-0.0130148
-0.0135643
-0.0135244
-0.013502
-0.0134875
-0.0134842
-0.0135244
-0.0134812
-0.0134669
-0.0134608
-0.013458
-0.0135021
-0.0134669
-0.0134603
-0.0134487
-0.0134442
-0.0134876
-0.0134609
-0.0134487
-0.0134328
-0.0134261
-0.0134843
-0.0134581
-0.0134442
-0.0134261
-0.0134185
-0.0139251
-0.0138757
-0.0138439
-0.0138164
-0.0138034
-0.0138758
-0.0138168
-0.0137764
-0.0137523
-0.0137364
-0.013844
-0.0137765
-0.0137372
-0.0137037
-0.0136783
-0.0138165
-0.0137524
-0.0137038
-0.0136638
-0.0136288
-0.0138036
-0.0137366
-0.0136785
-0.0136289
-0.0135731
-0.0141202
-0.0140652
-0.0140392
-0.0140173
-0.0140061
-0.0140652
-0.0139976
-0.0139525
-0.0139165
-0.0138985
-0.0140393
-0.0139526
-0.0138985
-0.0138552
-0.0138329
-0.0140173
-0.0139165
-0.0138553
-0.0138062
-0.0137741
-0.0140062
-0.0138986
-0.013833
-0.0137742
-0.0137567
-0.0142396
-0.0141656
-0.0141342
-0.0141123
-0.0141017
-0.0141657
-0.014078
-0.0140203
-0.0139734
-0.0139302
-0.0141342
-0.0140203
-0.0139252
-0.0138606
-0.0137721
-0.0141125
-0.0139735
-0.0138607
-0.0137946
-0.0136725
-0.0141018
-0.0139303
-0.0137722
-0.0136725
-0.0134422
-0.0142258
-0.0141466
-0.0141355
-0.0141252
-0.014131
-0.0141465
-0.0140534
-0.0140207
-0.0139946
-0.0139727
-0.0141355
-0.0140207
-0.013972
-0.0139338
-0.0139198
-0.0141252
-0.0139946
-0.0139338
-0.0139049
-0.0138298
-0.0141311
-0.0139727
-0.0139198
-0.0138299
-0.0138541
-0.0142892
-0.0141889
-0.0141521
-0.0141309
-0.0141194
-0.014189
-0.01406
-0.0139822
-0.013942
-0.0138966
-0.0141521
-0.0139822
-0.0138786
-0.0138218
-0.0136732
-0.0141311
-0.0139421
-0.0138219
-0.0137831
-0.0135814
-0.0141195
-0.0138967
-0.0136733
-0.0135814
-0.0125949
-0.0142004
-0.0140957
-0.0140837
-0.0140628
-0.0140567
-0.0140956
-0.0139686
-0.0139129
-0.0138828
-0.0137968
-0.0140836
-0.0139129
-0.0138281
-0.0137926
-0.0136395
-0.0140628
-0.0138828
-0.0137926
-0.0139433
-0.0135301
-0.0140567
-0.0137968
-0.0136396
-0.0135301
-0.0139093
-0.0142369
-0.0141161
-0.0140877
-0.0140559
-0.0140759
-0.0141161
-0.013949
-0.0138555
-0.0137561
-0.0137082
-0.0140876
-0.0138554
-0.0137462
-0.013603
-0.0134956
-0.014056
-0.0137561
-0.0136031
-0.0132815
-0.0135077
-0.0140759
-0.0137082
-0.0134954
-0.0135081
-0.0121966
-0.0140256
-0.0139065
-0.0139231
-0.0139004
-0.0139486
-0.0139063
-0.0137944
-0.0137826
-0.0137622
-0.0138611
-0.013923
-0.0137826
-0.0137558
-0.0137834
-0.0137443
-0.0139002
-0.013762
-0.0137834
-0.0136164
-0.0137261
-0.0139486
-0.013861
-0.0137446
-0.0137256
-0.0135099
-0.0140161
-0.0139183
-0.0139099
-0.0138818
-0.0139528
-0.0139181
-0.0138126
-0.0137499
-0.0137136
-0.013724
-0.0139095
-0.0137497
-0.0136952
-0.0136078
-0.0136766
-0.0138818
-0.0137134
-0.0136078
-0.0133647
-0.013113
-0.0139527
-0.013724
-0.0136766
-0.0131129
-0.0136046
-0.0135864
-0.0134805
-0.0134878
-0.0134582
-0.01351
-0.01348
-0.0134077
-0.0133713
-0.0133209
-0.0133436
-0.0134871
-0.0133707
-0.0132495
-0.0132121
-0.0130404
-0.0134578
-0.0133205
-0.0132119
-0.0132305
-0.0128696
-0.0135098
-0.0133436
-0.0130403
-0.0128697
-0.0122529
-0.0135711
-0.013523
-0.0135078
-0.0135013
-0.0135471
-0.0135228
-0.0134964
-0.0134561
-0.0134438
-0.0134759
-0.0135074
-0.0134557
-0.0134079
-0.0133656
-0.0135141
-0.0135011
-0.0134436
-0.0133655
-0.0132931
-0.0126618
-0.0135468
-0.0134758
-0.013514
-0.0126621
-0.0130361
-0.0128591
-0.0128456
-0.0128693
-0.0128834
-0.0129275
-0.0128454
-0.0128534
-0.0128846
-0.0128638
-0.0129191
-0.0128692
-0.0128846
-0.0129313
-0.0130006
-0.0131827
-0.0128831
-0.0128637
-0.0130004
-0.0128212
-0.0131787
-0.0129273
-0.012919
-0.0131825
-0.0131786
-0.0134984
-0.0128833
-0.0128938
-0.0128721
-0.0128933
-0.0128487
-0.0128938
-0.0129238
-0.0129253
-0.0129595
-0.0129795
-0.0128721
-0.0129254
-0.012837
-0.0129272
-0.0127487
-0.0128933
-0.0129595
-0.0129271
-0.0130154
-0.0129461
-0.0128487
-0.0129796
-0.0127486
-0.0129461
-0.0131359
-0.0118396
-0.0118468
-0.0118535
-0.0118746
-0.0118724
-0.0118467
-0.0118839
-0.0118966
-0.0119375
-0.0119334
-0.0118535
-0.0118966
-0.0119046
-0.0119727
-0.0119376
-0.0118745
-0.0119374
-0.0119726
-0.0120748
-0.0120379
-0.0118724
-0.0119334
-0.0119375
-0.0120379
-0.011791
-0.0116391
-0.011646
-0.0116384
-0.0116525
-0.0116361
-0.0116459
-0.0116724
-0.0116746
-0.0117047
-0.0117142
-0.0116383
-0.0116747
-0.0116399
-0.0116798
-0.0116102
-0.0116523
-0.0117046
-0.0116797
-0.0117405
-0.0117936
-0.011636
-0.0117142
-0.0116101
-0.0117936
-0.0116896
-0.00994372
-0.00993118
-0.00989201
-0.00987541
-0.00984657
-0.00993111
-0.00992291
-0.00988322
-0.00986706
-0.0098304
-0.00989188
-0.00988321
-0.00981657
-0.00981213
-0.00977333
-0.00987504
-0.00986683
-0.00981199
-0.00986962
-0.009857
-0.00984624
-0.0098302
-0.00977326
-0.00985707
-0.00976473
-0.00887211
-0.00887833
-0.00887755
-0.00888698
-0.0088859
-0.0088782
-0.00889192
-0.00888896
-0.00890885
-0.00891544
-0.00887743
-0.00888894
-0.00887728
-0.00891765
-0.00894234
-0.00888666
-0.00890859
-0.00891744
-0.00904355
-0.00915368
-0.00888563
-0.00891525
-0.00894215
-0.00915364
-0.00927236
-0.00636103
-0.00636682
-0.00638408
-0.00640982
-0.00642344
-0.00636675
-0.0063805
-0.00639417
-0.00642607
-0.00644969
-0.00638405
-0.00639418
-0.00641746
-0.00646259
-0.00648514
-0.00640968
-0.006426
-0.00646247
-0.00653186
-0.0065706
-0.00642329
-0.00644958
-0.00648506
-0.00657061
-0.00660844
-0.00516053
-0.00517418
-0.00519128
-0.00522091
-0.00523505
-0.00517403
-0.00519515
-0.00521803
-0.00525957
-0.00527585
-0.00519114
-0.00521805
-0.00524941
-0.00531166
-0.005351
-0.00522063
-0.00525944
-0.00531153
-0.00541342
-0.00549086
-0.00523471
-0.00527566
-0.00535085
-0.00549084
-0.00558282
-0.00217409
-0.00216932
-0.00217974
-0.00219741
-0.00221562
-0.00216928
-0.00217022
-0.0022001
-0.00222074
-0.00222757
-0.00217969
-0.00220016
-0.00223918
-0.0022662
-0.00226271
-0.00219733
-0.00222065
-0.00226619
-0.00226424
-0.00224849
-0.00221536
-0.00222735
-0.00226268
-0.00224853
-0.00221655
-0.00113512
-0.00114482
-0.00114832
-0.0011608
-0.00116347
-0.00114467
-0.00116122
-0.0011696
-0.00118823
-0.00119324
-0.00114822
-0.00116965
-0.00118589
-0.0012178
-0.00122814
-0.00116053
-0.00118811
-0.00121767
-0.00129331
-0.00135639
-0.00116325
-0.00119318
-0.00122808
-0.00135649
-0.0014548
-0.0150943
-0.0150933
-0.0146223
-0.0125916
-0.0125045
-0.0125041
-0.0134861
-0.0127207
-0.0127206
-0.012905
-0.0124155
-0.0124208
-0.0124207
-0.0124963
-0.0106208
-0.0106201
-0.01122
-0.0136585
-0.0160759
-0.0160748
-0.0143533
-0.0120345
-0.0120345
-0.0117983
-0.0127684
-0.0112674
-0.011267
-0.0101929
-0.0142887
-0.0142891
-0.0142693
-0.013275
-0.0130033
-0.0130038
-0.0123987
-0.0131731
-0.0138389
-0.0137843
-0.0135151
-0.013445
-0.0132526
-0.0131036
-0.0138391
-0.0131725
-0.0137843
-0.0135148
-0.0132519
-0.0134448
-0.0131036
-0.0135949
-0.013818
-0.0131707
-0.0131704
-0.0129335
-0.0136744
-0.0136741
-0.0132513
-0.0137486
-0.0138509
-0.0124208
-0.0125596
-0.0127996
-0.0134657
-0.0137485
-0.0132511
-0.0138502
-0.0124208
-0.0127996
-0.0125594
-0.0134655
-0.0142533
-0.0134794
-0.0123256
-0.0137647
-0.0133183
-0.0140579
-0.0137768
-0.0142532
-0.0134789
-0.0123254
-0.0137644
-0.0133179
-0.0140579
-0.0137764
-0.014278
-0.0142786
-0.0133401
-0.0140289
-0.0147579
-0.0147584
-0.0147789
-0.0132002
-0.0142844
-0.0142846
-0.0144311
-0.0139312
-0.0138862
-0.0138866
-0.0142279
-0.0139143
-0.0145454
-0.0134135
-0.0142629
-0.0126861
-0.0149599
-0.0142286
-0.0139149
-0.0145461
-0.0134135
-0.0142635
-0.0126863
-0.0149606
-0.0149006
-0.0141612
-0.0141611
-0.0124854
-0.01455
-0.0137877
-0.0137873
-0.0140858
-0.0147389
-0.0147383
-0.0146263
-0.0148862
-0.0143731
-0.0143725
-0.0147745
-0.0148276
-0.0149126
-0.0141359
-0.0149907
-0.0138873
-0.0147348
-0.0147744
-0.014827
-0.0149116
-0.0141352
-0.0149904
-0.0138869
-0.0147342
-0.0149445
-0.0149447
-0.0148744
-0.0155032
-0.0150159
-0.0153126
-0.0153127
-0.0140217
-0.0138918
-0.0153048
-0.0137123
-0.013808
-0.01407
-0.0150409
-0.0138918
-0.0140215
-0.0153056
-0.013712
-0.0140704
-0.0138075
-0.0150408
-0.0144382
-0.0156901
-0.0152246
-0.0156643
-0.0156303
-0.0153991
-0.0158469
-0.0144392
-0.0156908
-0.0152254
-0.0156651
-0.0156308
-0.0153996
-0.0158474
-0.0167631
-0.0140653
-0.0140651
-0.0117085
-0.0158825
-0.0136812
-0.013681
-0.0146508
-0.0146502
-0.0155077
-0.0160267
-0.0139119
-0.0144751
-0.0144748
-0.0145474
-0.0145468
-0.0147928
-0.0142606
-0.0137003
-0.0139317
-0.0139312
-0.0127529
-0.0126348
-0.0120065
-0.0133487
-0.0134323
-0.0135255
-0.0139682
-0.0126344
-0.0127526
-0.0120054
-0.0133487
-0.0135256
-0.0134319
-0.0139672
-0.0157881
-0.0148667
-0.0150648
-0.0149289
-0.0150818
-0.0145983
-0.0144283
-0.0157874
-0.0148656
-0.0150643
-0.0149286
-0.0150802
-0.0145974
-0.0144273
-0.0137158
-0.0138693
-0.014144
-0.0136649
-0.0141087
-0.0132093
-0.0133881
-0.0138688
-0.0137152
-0.0141434
-0.0136645
-0.0141084
-0.0132091
-0.0133876
-0.0121452
-0.0121447
-0.00773206
-0.0131632
-0.0118568
-0.0118568
-0.010406
-0.0156126
-0.0141427
-0.0141432
-0.014668
-0.0149814
-0.0151597
-0.01516
-0.0142282
-0.014228
-0.0158732
-0.0158954
-0.0137192
-0.0143833
-0.0143831
-0.0163269
-0.0138663
-0.0156881
-0.016708
-0.0167561
-0.0157887
-0.0160638
-0.0163279
-0.0138653
-0.01569
-0.0167081
-0.0167623
-0.0157886
-0.0160643
-0.0148403
-0.0132071
-0.0129003
-0.0144578
-0.0143869
-0.0139274
-0.0141539
-0.0148403
-0.0132072
-0.0129004
-0.014458
-0.0143864
-0.0139271
-0.0141541
-0.0169615
-0.0147407
-0.0147396
-0.0141468
-0.0157439
-0.0149132
-0.0149128
-0.0129509
-0.0110781
-0.0110775
-0.0125911
-0.0110597
-0.0127249
-0.0127244
-0.0137372
-0.0137372
-0.0139435
-0.0136386
-0.0136213
-0.013621
-0.0137952
-0.0134931
-0.0120268
-0.0108798
-0.0112839
-0.010769
-0.0121799
-0.0130786
-0.0134928
-0.0120265
-0.0108787
-0.0112826
-0.0107675
-0.0121793
-0.0130778
-0.0136833
-0.0139257
-0.0136995
-0.0137628
-0.0138759
-0.0134076
-0.0134429
-0.0139251
-0.0136827
-0.0136991
-0.0137617
-0.0138754
-0.0134072
-0.0134421
-0.0115451
-0.0115458
-0.0123913
-0.00979219
-0.005183
-0.00676828
-0.00676824
-0.013307
-0.0128137
-0.0123203
-0.0134098
-0.0130198
-0.0132314
-0.0139723
-0.0128137
-0.0133072
-0.0123195
-0.0134103
-0.0132313
-0.013019
-0.0139731
-0.0124588
-0.0123215
-0.0123216
-0.0132113
-0.00983908
-0.0132223
-0.0132221
-0.0150317
-0.0146742
-0.0144899
-0.0136706
-0.0136281
-0.0135181
-0.0139603
-0.0150332
-0.0146741
-0.0144902
-0.0136709
-0.0136284
-0.0135181
-0.0139605
-0.0127721
-0.014136
-0.0137743
-0.0112651
-0.012866
-0.0133137
-0.0102756
-0.0127658
-0.0141393
-0.0137725
-0.011258
-0.0128662
-0.0133128
-0.0102751
-0.0138748
-0.0138764
-0.0128434
-0.0117728
-0.0130148
-0.0130338
-0.0130363
-0.0130241
-0.0130239
-0.0125999
-0.0133685
-0.0134261
-0.0134259
-0.0133789
-0.0134105
-0.0137776
-0.0136174
-0.0136677
-0.0135711
-0.0136587
-0.0135183
-0.0134105
-0.0137775
-0.0136173
-0.0136677
-0.0135709
-0.0136586
-0.0135185
-0.00991004
-0.00990949
-0.0102703
-0.0107776
-0.0095348
-0.0100352
-0.0100346
-0.0144185
-0.0138435
-0.0148208
-0.0136705
-0.0135913
-0.0139
-0.0133544
-0.0144186
-0.0138435
-0.0148196
-0.0136711
-0.0135921
-0.0139003
-0.0133559
-0.0128363
-0.0130188
-0.013116
-0.0133743
-0.01334
-0.0128292
-0.0121756
-0.0130184
-0.0128361
-0.0131156
-0.0133741
-0.0128289
-0.0133396
-0.012175
-0.011818
-0.00938597
-0.00953242
-0.0108384
-0.0121364
-0.0127771
-0.00988005
-0.011818
-0.00938507
-0.00953194
-0.0108382
-0.0121357
-0.0127768
-0.00987954
-0.0121785
-0.0132189
-0.0131915
-0.0127839
-0.0129679
-0.0129102
-0.0127189
-0.0121777
-0.0132179
-0.0131909
-0.0127833
-0.0129677
-0.0129099
-0.0127183
-0.0136168
-0.0136167
-0.0129419
-0.012328
-0.0116831
-0.0116829
-0.0107052
-0.00797303
-0.00927513
-0.00927492
-0.00609578
-0.0104246
-0.00803483
-0.00803427
-0.0120908
-0.0120908
-0.0103276
-0.0111752
-0.0134215
-0.0124595
-0.0124594
-0.00948956
-0.0121836
-0.0113627
-0.0114351
-0.0117161
-0.0116721
-0.00857925
-0.00948865
-0.0121831
-0.0113621
-0.0114347
-0.0117148
-0.0116713
-0.00858027
-0.0135287
-0.0132218
-0.0133789
-0.0128789
-0.0126375
-0.0131983
-0.013192
-0.0135264
-0.013222
-0.0133774
-0.012878
-0.0126373
-0.0131983
-0.0131915
-0.0106817
-0.0127432
-0.012743
-0.0126656
-0.0127477
-0.0123702
-0.0123713
-0.0113444
-0.0132653
-0.0122716
-0.0128853
-0.0129252
-0.013462
-0.0132808
-0.0113441
-0.0132652
-0.0122713
-0.0128853
-0.012925
-0.0134617
-0.0132808
)
;

boundaryField
{
    inlet
    {
        type            fixedValue;
        value           uniform 0;
    }
    wall
    {
        type            zeroGradient;
    }
    outlet
    {
        type            fixedValue;
        value           uniform 0;
    }
    procBoundary0to1
    {
        type            processor;
        value           nonuniform List<scalar> 
320
(
-0.000396664
-0.000396361
-0.000396328
-0.000396198
-0.000396211
-0.000785279
-0.000785178
-0.000785097
-0.000785032
-0.000784994
-0.00185329
-0.00185291
-0.00185274
-0.00185253
-0.00185245
-0.00239686
-0.00239652
-0.00239629
-0.00239607
-0.00239595
-0.0033996
-0.00339904
-0.00339872
-0.00339837
-0.00339821
-0.00400868
-0.004008
-0.0040076
-0.00400717
-0.00400698
-0.00495415
-0.00495319
-0.00495264
-0.00495206
-0.0049518
-0.00561043
-0.00560918
-0.00560845
-0.00560771
-0.00560739
-0.00650943
-0.00650769
-0.00650671
-0.00650572
-0.0065053
-0.00720004
-0.00719771
-0.00719641
-0.00719514
-0.00719462
-0.00805883
-0.00805561
-0.00805386
-0.00805217
-0.0080515
-0.0087713
-0.00876693
-0.00876464
-0.00876246
-0.00876165
-0.00959076
-0.00958484
-0.00958191
-0.00957911
-0.0095781
-0.0103097
-0.010302
-0.0102986
-0.0102955
-0.0102944
-0.0110806
-0.0110714
-0.0110693
-0.0110672
-0.0110676
-0.0117752
-0.0117664
-0.0117676
-0.0117746
-0.0117853
-0.0124528
-0.0124456
-0.0124569
-0.01247
-0.0124781
-0.013026
-0.0130162
-0.0130179
-0.0130151
-0.013012
-0.0134833
-0.0134561
-0.0134417
-0.0134226
-0.0134143
-0.0138027
-0.0137346
-0.0136758
-0.013625
-0.0135685
-0.014006
-0.0138965
-0.0138298
-0.0137693
-0.0137509
-0.0141016
-0.0139279
-0.0137687
-0.0136672
-0.0134375
-0.0141312
-0.0139697
-0.0139149
-0.0138229
-0.0138453
-0.0141197
-0.0138936
-0.0136693
-0.0135744
-0.0125951
-0.0140577
-0.0137932
-0.0136354
-0.0135208
-0.0136076
-0.0140766
-0.0137051
-0.0134893
-0.0132982
-0.0121471
-0.0139496
-0.0138582
-0.0137411
-0.0140135
-0.0142823
-0.0139547
-0.0137221
-0.0136729
-0.0131683
-0.014285
-0.0135131
-0.0133445
-0.0130396
-0.0128352
-0.0120355
-0.0135497
-0.0134771
-0.0135121
-0.0127477
-0.01061
-0.0129313
-0.0129197
-0.0131834
-0.0132459
-0.0150912
-0.012852
-0.0129849
-0.0127492
-0.0129483
-0.0127145
-0.0118796
-0.0119376
-0.0119425
-0.0120421
-0.0117805
-0.0116447
-0.0117283
-0.0116207
-0.0118079
-0.0116854
-0.00985765
-0.00984362
-0.00979262
-0.00986496
-0.0097683
-0.00889912
-0.00893164
-0.00895853
-0.00916842
-0.00927505
-0.00642656
-0.00645478
-0.00649858
-0.00658061
-0.0066134
-0.00523673
-0.00527385
-0.00535389
-0.00550217
-0.00558789
-0.00221325
-0.00222398
-0.00225222
-0.00224821
-0.00221757
-0.00116738
-0.00119459
-0.00122258
-0.00134727
-0.00145298
-0.0146206
-0.0134859
-0.0125031
-0.0129095
-0.0124975
-0.0124529
-0.0112216
-0.0143519
-0.0160788
-0.011861
-0.0102036
-0.011268
-0.0142439
-0.0123941
-0.0130035
-0.0137832
-0.0131059
-0.0134436
-0.0131734
-0.0136726
-0.0138167
-0.0138481
-0.0134713
-0.0125554
-0.0134791
-0.013777
-0.0137699
-0.0133401
-0.0147664
-0.0147591
-0.0144129
-0.0138723
-0.014269
-0.0145397
-0.0149559
-0.013408
-0.014625
-0.0143679
-0.0147353
-0.0149118
-0.0147341
-0.0141389
-0.0149323
-0.0153096
-0.0150116
-0.0153034
-0.0150457
-0.0138058
-0.0156327
-0.0158491
-0.0156942
-0.0145464
-0.0139289
-0.0136976
-0.0120074
-0.0139662
-0.0134258
-0.0150708
-0.0144238
-0.014869
-0.0141457
-0.0133916
-0.0137152
-0.00774618
-0.0104109
-0.0118541
-0.0146662
-0.0151587
-0.014142
-0.0156857
-0.0160659
-0.0167136
-0.0132098
-0.0141566
-0.0144572
-0.0125889
-0.0127213
-0.0110812
-0.0108724
-0.0130691
-0.0112722
-0.0136848
-0.0134374
-0.0137565
-0.01155
-0.00680848
-0.0051993
-0.0123139
-0.0139773
-0.0130188
-0.0146736
-0.0139623
-0.0136304
-0.0128648
-0.0102833
-0.014132
-0.00994199
-0.0100732
-0.00956094
-0.0131183
-0.0121896
-0.0133354
-0.0121578
-0.00989955
-0.00939898
-0.0132161
-0.0127232
-0.0127743
-0.0129306
-0.0107015
-0.0116831
-0.00610868
-0.00805715
-0.00929472
-0.0113739
-0.00858924
-0.0114351
-0.0132203
-0.0131839
-0.0128671
)
;
    }
    procBoundary0to2
    {
        type            processor;
        value           nonuniform List<scalar> 
320
(
-0.000396666
-0.000396362
-0.000396329
-0.000396199
-0.000396212
-0.000785283
-0.000785181
-0.000785099
-0.000785033
-0.000784995
-0.0018533
-0.00185291
-0.00185275
-0.00185253
-0.00185245
-0.00239687
-0.00239652
-0.0023963
-0.00239607
-0.00239595
-0.00339961
-0.00339904
-0.00339873
-0.00339838
-0.00339822
-0.00400869
-0.00400801
-0.00400761
-0.00400718
-0.00400698
-0.00495417
-0.0049532
-0.00495265
-0.00495206
-0.00495181
-0.00561045
-0.00560919
-0.00560846
-0.00560772
-0.00560739
-0.00650946
-0.00650771
-0.00650673
-0.00650574
-0.00650531
-0.00720008
-0.00719774
-0.00719644
-0.00719515
-0.00719463
-0.00805887
-0.00805564
-0.00805389
-0.00805218
-0.00805151
-0.00877136
-0.00876698
-0.00876468
-0.00876249
-0.00876167
-0.00959082
-0.00958489
-0.00958195
-0.00957913
-0.00957812
-0.0103098
-0.010302
-0.0102987
-0.0102955
-0.0102944
-0.0110807
-0.0110715
-0.0110694
-0.0110672
-0.0110676
-0.0117754
-0.0117665
-0.0117677
-0.0117746
-0.0117853
-0.0124529
-0.0124457
-0.0124569
-0.01247
-0.0124782
-0.0130263
-0.0130164
-0.0130181
-0.0130152
-0.0130122
-0.0134836
-0.0134563
-0.0134419
-0.0134227
-0.0134144
-0.0138031
-0.013735
-0.0136761
-0.0136252
-0.0135687
-0.0140062
-0.0138967
-0.01383
-0.0137695
-0.013751
-0.0141021
-0.0139283
-0.013769
-0.0136674
-0.0134377
-0.0141313
-0.0139698
-0.0139151
-0.013823
-0.0138454
-0.0141202
-0.0138939
-0.0136698
-0.0135745
-0.0125952
-0.0140578
-0.0137933
-0.0136357
-0.0135209
-0.0136077
-0.0140772
-0.0137053
-0.0134897
-0.0132986
-0.0121472
-0.0139497
-0.0138582
-0.0137413
-0.0140137
-0.0142827
-0.0139553
-0.0137221
-0.0136733
-0.0131681
-0.0142855
-0.0135129
-0.0133442
-0.0130391
-0.0128352
-0.0120351
-0.0135499
-0.0134769
-0.0135117
-0.012747
-0.0106088
-0.0129312
-0.0129195
-0.013183
-0.0132454
-0.0150899
-0.0128522
-0.0129849
-0.0127491
-0.012948
-0.0127142
-0.0118795
-0.0119374
-0.0119423
-0.012042
-0.0117803
-0.0116445
-0.0117282
-0.0116206
-0.0118078
-0.0116854
-0.00985732
-0.00984349
-0.00979246
-0.00986491
-0.0097682
-0.00889866
-0.00893132
-0.00895827
-0.0091683
-0.00927495
-0.00642631
-0.00645456
-0.00649835
-0.00658041
-0.00661324
-0.00523628
-0.00527359
-0.00535362
-0.00550198
-0.00558765
-0.002213
-0.0022239
-0.00225212
-0.00224806
-0.00221748
-0.001167
-0.00119441
-0.00122236
-0.00134715
-0.00145285
-0.0125027
-0.0134857
-0.0146199
-0.0124528
-0.0124973
-0.0129093
-0.0160773
-0.0143513
-0.011221
-0.0112675
-0.0102028
-0.0118601
-0.0130027
-0.0123925
-0.0142441
-0.0134432
-0.0131043
-0.0137841
-0.0138163
-0.013672
-0.013173
-0.0125551
-0.0134709
-0.0138472
-0.0137695
-0.0137764
-0.0134784
-0.0147598
-0.0147664
-0.0133402
-0.0142691
-0.013873
-0.0144134
-0.0134086
-0.0149566
-0.0145404
-0.0147339
-0.0143669
-0.0146244
-0.0141381
-0.0147333
-0.0149104
-0.0150117
-0.0153098
-0.0149323
-0.0138056
-0.015045
-0.0153035
-0.0156946
-0.0158491
-0.015633
-0.0136969
-0.0139277
-0.0145451
-0.013425
-0.0139652
-0.0120061
-0.0148672
-0.0144221
-0.0150688
-0.0137145
-0.0133911
-0.014145
-0.0118525
-0.0104109
-0.00774608
-0.0141422
-0.0151589
-0.0146663
-0.0167134
-0.016066
-0.0156859
-0.0144572
-0.0141566
-0.0132095
-0.0110799
-0.0127202
-0.0125882
-0.0112706
-0.0130677
-0.0108707
-0.0137552
-0.0134366
-0.013684
-0.00519902
-0.00680815
-0.0115502
-0.0130187
-0.0139774
-0.0123139
-0.0136304
-0.0139624
-0.0146735
-0.0141329
-0.0102822
-0.0128649
-0.00956087
-0.0100728
-0.00994085
-0.0133348
-0.0121886
-0.0131175
-0.00939785
-0.00989889
-0.0121569
-0.0127733
-0.0127223
-0.0132148
-0.0116831
-0.0107014
-0.0129307
-0.00929458
-0.00805672
-0.00610817
-0.0114354
-0.00858964
-0.0113738
-0.0128674
-0.013184
-0.0132202
)
;
    }
}


// ************************************************************************* //
