/*--------------------------------*- C++ -*----------------------------------*\
| =========                 |                                                 |
| \\      /  F ield         | OpenFOAM: The Open Source CFD Toolbox           |
|  \\    /   O peration     | Version:  5.x                                   |
|   \\  /    A nd           | Web:      www.OpenFOAM.org                      |
|    \\/     M anipulation  |                                                 |
\*---------------------------------------------------------------------------*/
FoamFile
{
    version     2.0;
    format      ascii;
    class       volVectorField;
    location    "0.09";
    object      U;
}
// * * * * * * * * * * * * * * * * * * * * * * * * * * * * * * * * * * * * * //

dimensions      [0 1 -1 0 0 0 0];

internalField   nonuniform List<vector> 
1553
(
(-6.03043e-05 -6.02812e-05 0.0518568)
(-6.3428e-05 -7.1309e-05 0.0518248)
(-4.7069e-05 -7.50934e-05 0.0518325)
(-4.77045e-05 -7.99637e-05 0.0518158)
(-2.13555e-05 -8.21772e-05 0.051822)
(-7.13322e-05 -6.32828e-05 0.0518248)
(-7.78228e-05 -7.76766e-05 0.0517677)
(-5.54948e-05 -8.28304e-05 0.0517661)
(-5.46129e-05 -8.92149e-05 0.0517477)
(-2.62464e-05 -9.21085e-05 0.0517525)
(-7.51156e-05 -4.68849e-05 0.0518325)
(-8.29757e-05 -5.53089e-05 0.051766)
(-5.86086e-05 -5.8422e-05 0.0517599)
(-5.69826e-05 -6.32387e-05 0.0517408)
(-2.79115e-05 -6.5418e-05 0.0517454)
(-7.9985e-05 -4.74397e-05 0.0518158)
(-8.93586e-05 -5.43475e-05 0.0517477)
(-6.34247e-05 -5.67168e-05 0.0517408)
(-6.16089e-05 -6.13436e-05 0.0517217)
(-3.17322e-05 -6.33795e-05 0.0517264)
(-8.21988e-05 -2.10694e-05 0.0518221)
(-9.22527e-05 -2.59605e-05 0.0517526)
(-6.56047e-05 -2.76235e-05 0.0517455)
(-6.36453e-05 -3.14443e-05 0.0517265)
(-3.3452e-05 -3.31634e-05 0.0517317)
(-1.99652e-05 -1.97513e-05 -0.0305396)
(-2.96931e-05 -1.01729e-05 -0.0305377)
(-2.9039e-05 -7.32651e-06 -0.0305411)
(-3.0546e-05 -4.67504e-06 -0.0305412)
(-2.40345e-05 -3.76828e-06 -0.0305441)
(-1.03869e-05 -2.93444e-05 -0.0305376)
(-1.77396e-05 -1.73956e-05 -0.0305297)
(-2.37625e-05 -1.36946e-05 -0.0305311)
(-2.71344e-05 -1.06181e-05 -0.0305299)
(-2.28861e-05 -9.68344e-06 -0.0305321)
(-7.5452e-06 -2.86773e-05 -0.030541)
(-1.40433e-05 -2.34084e-05 -0.0305311)
(-2.22681e-05 -2.19136e-05 -0.0305317)
(-2.65395e-05 -2.08267e-05 -0.03053)
(-2.30118e-05 -2.08698e-05 -0.0305321)
(-4.89662e-06 -3.01403e-05 -0.0305411)
(-1.09691e-05 -2.67341e-05 -0.0305298)
(-2.11808e-05 -2.61376e-05 -0.0305299)
(-2.60906e-05 -2.56886e-05 -0.030528)
(-2.35133e-05 -2.61611e-05 -0.03053)
(-3.99247e-06 -2.3612e-05 -0.030544)
(-1.0036e-05 -2.24678e-05 -0.0305321)
(-2.12226e-05 -2.25959e-05 -0.030532)
(-2.65629e-05 -2.30981e-05 -0.03053)
(-2.44098e-05 -2.39963e-05 -0.0305321)
(-5.9825e-05 -5.97422e-05 0.0404322)
(-6.66612e-05 -6.44983e-05 0.0404)
(-5.20354e-05 -6.61001e-05 0.0403992)
(-5.19556e-05 -6.96278e-05 0.0403782)
(-2.44958e-05 -7.12342e-05 0.0403785)
(-6.45811e-05 -6.64409e-05 0.0404)
(-7.28562e-05 -7.26353e-05 0.0403596)
(-5.70418e-05 -7.4765e-05 0.0403562)
(-5.69713e-05 -7.94056e-05 0.0403322)
(-2.8589e-05 -8.15328e-05 0.0403312)
(-6.61824e-05 -5.17821e-05 0.0403992)
(-7.49854e-05 -5.67877e-05 0.0403562)
(-5.88056e-05 -5.85519e-05 0.0403518)
(-5.87231e-05 -6.27211e-05 0.040327)
(-3.00821e-05 -6.46935e-05 0.0403257)
(-6.97098e-05 -5.16303e-05 0.0403783)
(-7.9626e-05 -5.66451e-05 0.0403323)
(-6.29753e-05 -5.83973e-05 0.040327)
(-6.31129e-05 -6.27865e-05 0.0403005)
(-3.398e-05 -6.48704e-05 0.0402986)
(-7.13155e-05 -2.41437e-05 0.0403787)
(-8.17525e-05 -2.82377e-05 0.0403314)
(-6.4947e-05 -2.97317e-05 0.0403258)
(-6.51963e-05 -3.36294e-05 0.0402987)
(-3.59311e-05 -3.55811e-05 0.0402966)
(-5.35522e-05 -5.33206e-05 -0.0195721)
(-6.2902e-05 -5.2086e-05 -0.0195956)
(-5.08529e-05 -5.19242e-05 -0.0196003)
(-5.12216e-05 -5.22641e-05 -0.0196165)
(-2.73634e-05 -5.26669e-05 -0.0196198)
(-5.23176e-05 -6.25103e-05 -0.0195955)
(-6.15951e-05 -6.12038e-05 -0.0196186)
(-5.10691e-05 -6.10519e-05 -0.0196231)
(-5.1986e-05 -6.1751e-05 -0.0196397)
(-2.88077e-05 -6.23823e-05 -0.0196432)
(-5.21561e-05 -5.0427e-05 -0.0196001)
(-6.14436e-05 -5.06444e-05 -0.0196231)
(-5.14021e-05 -5.0978e-05 -0.0196275)
(-5.25537e-05 -5.24016e-05 -0.0196442)
(-2.95956e-05 -5.33702e-05 -0.0196478)
(-5.24969e-05 -5.07223e-05 -0.0196162)
(-6.21442e-05 -5.14864e-05 -0.0196395)
(-5.28263e-05 -5.20545e-05 -0.0196441)
(-5.43783e-05 -5.38774e-05 -0.0196617)
(-3.18077e-05 -5.50716e-05 -0.0196656)
(-5.28986e-05 -2.68345e-05 -0.0196196)
(-6.27742e-05 -2.82774e-05 -0.019643)
(-5.3793e-05 -2.90678e-05 -0.0196477)
(-5.55707e-05 -3.12801e-05 -0.0196656)
(-3.3217e-05 -3.26917e-05 -0.0196697)
(-8.43942e-05 -8.42245e-05 0.0312744)
(-9.47162e-05 -8.87246e-05 0.0312253)
(-7.29029e-05 -9.01931e-05 0.0312194)
(-7.15215e-05 -9.42525e-05 0.0311863)
(-2.97503e-05 -9.60445e-05 0.0311829)
(-8.88943e-05 -9.43745e-05 0.0312254)
(-0.000100535 -0.000100192 0.0311718)
(-7.83012e-05 -0.000102113 0.0311644)
(-7.72409e-05 -0.000107437 0.0311283)
(-3.45916e-05 -0.000109802 0.0311237)
(-9.03615e-05 -7.2516e-05 0.0312195)
(-0.000102455 -7.79147e-05 0.0311645)
(-8.01474e-05 -7.97627e-05 0.0311567)
(-7.92093e-05 -8.49062e-05 0.0311197)
(-3.63739e-05 -8.72918e-05 0.0311148)
(-9.44225e-05 -7.10523e-05 0.0311865)
(-0.000107782 -7.67696e-05 0.0311285)
(-8.52927e-05 -7.8738e-05 0.0311198)
(-8.477e-05 -8.42971e-05 0.0310805)
(-4.14192e-05 -8.68888e-05 0.0310746)
(-9.62107e-05 -2.92298e-05 0.0311832)
(-0.000110142 -3.40812e-05 0.0311239)
(-8.76749e-05 -3.58654e-05 0.031115)
(-8.736e-05 -4.09096e-05 0.0310747)
(-4.39597e-05 -4.34496e-05 0.0310685)
(-0.000105068 -0.000104767 -0.0116178)
(-0.000118197 -0.000107992 -0.011676)
(-8.98982e-05 -0.000109199 -0.0116854)
(-8.77155e-05 -0.000112524 -0.0117241)
(-3.44824e-05 -0.000114122 -0.0117301)
(-0.000108292 -0.000117683 -0.0116759)
(-0.000122529 -0.000122013 -0.0117367)
(-9.43366e-05 -0.000123594 -0.0117469)
(-9.25401e-05 -0.000128094 -0.0117881)
(-3.88532e-05 -0.000130201 -0.011795)
(-0.000109498 -8.93225e-05 -0.0116852)
(-0.000124108 -9.37585e-05 -0.0117469)
(-9.59788e-05 -9.54036e-05 -0.0117573)
(-9.43214e-05 -0.000100053 -0.0117993)
(-4.05166e-05 -0.000102287 -0.0118065)
(-0.000112822 -8.70355e-05 -0.0117238)
(-0.000128611 -9.18581e-05 -0.0117879)
(-0.000100631 -9.36415e-05 -0.0117992)
(-9.9424e-05 -9.87392e-05 -0.0118436)
(-4.5365e-05 -0.000101197 -0.0118518)
(-0.000114419 -3.37475e-05 -0.0117297)
(-0.000130715 -3.80979e-05 -0.0117947)
(-0.00010286 -3.97824e-05 -0.0118063)
(-0.000101877 -4.46291e-05 -0.0118517)
(-4.78531e-05 -4.71218e-05 -0.0118603)
(-0.00014526 -0.00014497 0.0245393)
(-0.000162189 -0.000152465 0.0244501)
(-0.000121061 -0.000154805 0.0244368)
(-0.000116245 -0.000161548 0.0243772)
(-3.87878e-05 -0.000164324 0.0243692)
(-0.000152755 -0.000161672 0.0244502)
(-0.000171757 -0.000171237 0.0243555)
(-0.000129914 -0.000174269 0.0243403)
(-0.000125535 -0.000183 0.0242764)
(-4.61738e-05 -0.000186639 0.0242667)
(-0.000155092 -0.000120474 0.024437)
(-0.000174786 -0.000129326 0.0243404)
(-0.000132821 -0.000132236 0.0243247)
(-0.000128612 -0.000140621 0.0242594)
(-4.88234e-05 -0.000144301 0.0242492)
(-0.000161836 -0.000115544 0.0243776)
(-0.000183522 -0.000124832 0.0242767)
(-0.00014121 -0.000127913 0.0242595)
(-0.0001376 -0.0001369 0.0241905)
(-5.66618e-05 -0.000140846 0.0241788)
(-0.000164608 -3.80216e-05 0.0243697)
(-0.000187158 -4.54101e-05 0.0242671)
(-0.000144889 -4.80622e-05 0.0242495)
(-0.000141545 -5.58896e-05 0.0241789)
(-6.05415e-05 -5.97663e-05 0.0241666)
(-0.000198923 -0.000198485 -0.00576707)
(-0.000221138 -0.000207017 -0.0058859)
(-0.000162773 -0.000210045 -0.00590597)
(-0.000155212 -0.000217661 -0.00598388)
(-4.67039e-05 -0.000221002 -0.0059957)
(-0.000207455 -0.000220406 -0.00588573)
(-0.000232364 -0.000231628 -0.0060116)
(-0.000173134 -0.000235522 -0.00603388)
(-0.000165892 -0.00024562 -0.00611779)
(-5.52206e-05 -0.000249941 -0.00613175)
(-0.000210478 -0.000161933 -0.00590573)
(-0.000236254 -0.000172293 -0.00603381)
(-0.000176762 -0.000175924 -0.00605692)
(-0.000169626 -0.000185636 -0.00614271)
(-5.81862e-05 -0.000189938 -0.00615745)
(-0.000218098 -0.000154219 -0.00598343)
(-0.00024636 -0.000164896 -0.0061175)
(-0.000186477 -0.000168636 -0.0061425)
(-0.000179905 -0.00017891 -0.00623366)
(-6.7146e-05 -0.000183494 -0.00625034)
(-0.000221432 -4.56017e-05 -0.00599514)
(-0.000250675 -5.41213e-05 -0.00613135)
(-0.000190775 -5.70931e-05 -0.00615714)
(-0.000184484 -6.60573e-05 -0.00625023)
(-7.13663e-05 -7.02809e-05 -0.00626782)
(-0.000269624 -0.000269166 0.0197025)
(-0.000300877 -0.000284374 0.0195319)
(-0.000219087 -0.000289106 0.0195037)
(-0.000206094 -0.000302188 0.0193912)
(-5.42379e-05 -0.000307177 0.0193748)
(-0.000284832 -0.000300121 0.0195322)
(-0.000320216 -0.000319455 0.0193512)
(-0.0002364 -0.000325643 0.0193188)
(-0.000223683 -0.00034241 0.0191982)
(-6.6854e-05 -0.000348985 0.0191783)
(-0.000289557 -0.000218215 0.019504)
(-0.000326399 -0.000235528 0.0193189)
(-0.000242035 -0.000241168 0.019285)
(-0.000229429 -0.000256818 0.0191613)
(-7.12733e-05 -0.000263226 0.0191403)
(-0.000302645 -0.000205073 0.0193918)
(-0.000343177 -0.000222659 0.0191986)
(-0.000257691 -0.000228412 0.0191616)
(-0.000245742 -0.000244717 0.0190312)
(-8.44451e-05 -0.000251514 0.0190072)
(-0.000307625 -5.31001e-05 0.0193756)
(-0.000349744 -6.57223e-05 0.0191789)
(-0.000264093 -7.01465e-05 0.0191408)
(-0.000252532 -8.33208e-05 0.0190074)
(-9.0608e-05 -8.94846e-05 0.0189822)
(-0.000378272 -0.000377608 -0.00151487)
(-0.000420504 -0.000396418 -0.00174906)
(-0.000303486 -0.000403662 -0.00179334)
(-0.000283958 -0.00041942 -0.0019453)
(-6.77663e-05 -0.000426344 -0.00197065)
(-0.000397081 -0.000419439 -0.00174884)
(-0.000445725 -0.00044465 -0.00199929)
(-0.000325801 -0.000454003 -0.00204953)
(-0.000305995 -0.00047515 -0.00221489)
(-8.36267e-05 -0.00048405 -0.00224511)
(-0.000404316 -0.000302222 -0.00179305)
(-0.000455069 -0.000324538 -0.00204946)
(-0.000333973 -0.000332717 -0.00210245)
(-0.000313995 -0.000352226 -0.00227233)
(-8.88903e-05 -0.000360678 -0.00230479)
(-0.000420083 -0.000282481 -0.0019447)
(-0.000476232 -0.000304514 -0.00221453)
(-0.00035349 -0.000312524 -0.00227204)
(-0.000333957 -0.000332475 -0.00245348)
(-0.00010503 -0.000341245 -0.00248978)
(-0.000426993 -6.60652e-05 -0.00196996)
(-0.000485121 -8.19393e-05 -0.00224463)
(-0.000361934 -8.72087e-05 -0.00230439)
(-0.000342715 -0.000103357 -0.00248968)
(-0.000112118 -0.000110448 -0.00252795)
(-0.000514927 -0.000514247 0.0163952)
(-0.000579155 -0.000546955 0.0160664)
(-0.000415429 -0.000558017 0.0160041)
(-0.000383614 -0.000585133 0.0157889)
(-8.25478e-05 -0.000595149 0.0157537)
(-0.000547635 -0.00057811 0.0160667)
(-0.000621474 -0.000620417 0.0157145)
(-0.000452412 -0.000635482 0.0156405)
(-0.000419635 -0.000670341 0.0154081)
(-0.000105524 -0.000684035 0.0153638)
(-0.000558685 -0.000414187 0.0160046)
(-0.000636527 -0.000451174 0.0156406)
(-0.000465332 -0.000464101 0.0155623)
(-0.00043215 -0.000495859 0.0153215)
(-0.00011373 -0.000508363 0.0152742)
(-0.000585816 -0.00038219 0.0157899)
(-0.000671408 -0.00041821 0.0154088)
(-0.000497097 -0.000430736 0.015322)
(-0.000463898 -0.000462474 0.015068)
(-0.000136873 -0.000475101 0.0150128)
(-0.000595816 -8.09121e-05 0.0157548)
(-0.00068509 -0.000103909 0.0153646)
(-0.000509595 -0.00011212 0.0152749)
(-0.000476514 -0.000135277 0.015013)
(-0.000147292 -0.000145692 0.014955)
(-0.000724176 -0.000723173 0.00154711)
(-0.000812427 -0.000765576 0.00108908)
(-0.000580809 -0.000784785 0.000987768)
(-0.000534174 -0.000818089 0.000693015)
(-0.0001072 -0.000834427 0.000634505)
(-0.000766579 -0.000810897 0.00108934)
(-0.000871954 -0.000870402 0.000595005)
(-0.000631631 -0.000895624 0.000476173)
(-0.000582287 -0.000942195 0.000151379)
(-0.000138415 -0.00096314 8.04917e-05)
(-0.000785766 -0.000578904 0.000988054)
(-0.000897153 -0.000629729 0.000476206)
(-0.000652568 -0.000650677 0.000347206)
(-0.000601663 -0.000691804 1.03995e-05)
(-0.000148416 -0.000711069 -6.88053e-05)
(-0.000819095 -0.000531982 0.000693691)
(-0.000943761 -0.000580085 0.000151782)
(-0.000693705 -0.000599487 1.07748e-05)
(-0.000642681 -0.000640487 -0.000352658)
(-0.000179261 -0.000660007 -0.000439619)
(-0.000835397 -0.000104538 0.000635226)
(-0.000964686 -0.000135792 8.09445e-05)
(-0.000712967 -0.000145794 -6.83845e-05)
(-0.000662183 -0.000176667 -0.000439578)
(-0.000191798 -0.000189192 -0.000532043)
(-0.000994988 -0.000994051 0.0143842)
(-0.0011384 -0.00106544 0.0137536)
(-0.000811645 -0.00109492 0.0136108)
(-0.000737206 -0.00115342 0.0131984)
(-0.000141033 -0.00117628 0.0131173)
(-0.00106638 -0.00113707 0.0137541)
(-0.00123561 -0.00123426 0.0130663)
(-0.0008966 -0.00127729 0.0128878)
(-0.000815836 -0.00135441 0.0124365)
(-0.000185976 -0.00138883 0.012327)
(-0.00109584 -0.000809986 0.0136114)
(-0.00127862 -0.000894959 0.0128879)
(-0.000931733 -0.000930094 0.0126944)
(-0.000848709 -0.00100053 0.0122181)
(-0.00020462 -0.00102913 0.0121003)
(-0.00115438 -0.000735348 0.0131998)
(-0.00135578 -0.000813992 0.0124374)
(-0.00100217 -0.000846874 0.0122189)
(-0.000914877 -0.000913038 0.0117172)
(-0.000246361 -0.000938946 0.011572)
(-0.00117721 -0.000138806 0.0131189)
(-0.00139019 -0.000183812 0.0123282)
(-0.00103077 -0.000202447 0.0121012)
(-0.00094078 -0.000244234 0.0115722)
(-0.000265781 -0.000263617 0.0114163)
(-0.00138795 -0.00138647 0.0038069)
(-0.00158728 -0.00148727 0.00291765)
(-0.00113576 -0.00154315 0.00268144)
(-0.00102722 -0.00161664 0.00211223)
(-0.000189932 -0.0016622 0.00196955)
(-0.00148874 -0.00158517 0.00291785)
(-0.00173851 -0.00173634 0.00195156)
(-0.00126071 -0.00181197 0.00165951)
(-0.00114242 -0.00192226 0.00102191)
(-0.000259565 -0.00197995 0.000843141)
(-0.00154456 -0.00113292 0.00268157)
(-0.00181409 -0.00125789 0.00165943)
(-0.00132157 -0.00131875 0.00132972)
(-0.00119512 -0.00141031 0.000657859)
(-0.000280866 -0.00146524 0.000442627)
(-0.00161812 -0.00102403 0.00211276)
(-0.00192445 -0.00113919 0.00102219)
(-0.00141314 -0.00119199 0.00065826)
(-0.00128892 -0.00128576 -8.414e-05)
(-0.000350612 -0.00134324 -0.000310553)
(-0.00166358 -0.000185759 0.00197001)
(-0.00198212 -0.000255478 0.000843328)
(-0.00146812 -0.000276755 0.000442941)
(-0.00134638 -0.000346579 -0.000310664)
(-0.000377379 -0.000373266 -0.000553115)
(-0.00192755 -0.00192641 0.0135941)
(-0.00226402 -0.00207973 0.0124047)
(-0.00161719 -0.00216761 0.0120621)
(-0.00144957 -0.00229766 0.0112705)
(-0.000276599 -0.00235809 0.0110698)
(-0.00208087 -0.00226256 0.0124053)
(-0.00249564 -0.00249416 0.0110708)
(-0.00182704 -0.00263121 0.0106173)
(-0.00163298 -0.00281134 0.00973564)
(-0.000374344 -0.00291842 0.00943968)
(-0.00216872 -0.00161521 0.0120627)
(-0.00263267 -0.00182512 0.0106174)
(-0.00193418 -0.00193221 0.0101042)
(-0.00173665 -0.00210752 0.00914327)
(-0.000431286 -0.00218382 0.00882519)
(-0.00229885 -0.00144739 0.0112724)
(-0.00281284 -0.00163087 0.00973693)
(-0.00210945 -0.00173451 0.00914446)
(-0.00188461 -0.00188248 0.00815503)
(-0.000502771 -0.00193568 0.00773314)
(-0.00235928 -0.000273831 0.0110718)
(-0.00291991 -0.000371746 0.00944121)
(-0.00218576 -0.000428626 0.00882635)
(-0.00193782 -0.000500244 0.0077331)
(-0.000543836 -0.000541162 0.00726491)
(-0.00264148 -0.00263941 0.00572835)
(-0.00312179 -0.00288989 0.0040233)
(-0.00226972 -0.00306019 0.00346492)
(-0.00201895 -0.00322714 0.00236908)
(-0.000384887 -0.00337083 0.00200964)
(-0.00289196 -0.00311908 0.0040232)
(-0.00352742 -0.00352454 0.00217535)
(-0.00259462 -0.00377029 0.00142843)
(-0.00231911 -0.00404951 0.000170414)
(-0.000565737 -0.00422459 -0.000310599)
(-0.0030621 -0.00226562 0.00346456)
(-0.003773 -0.00259051 0.00142814)
(-0.00279433 -0.00279021 0.000540256)
(-0.00247303 -0.00298938 -0.000812255)
(-0.000613602 -0.00317012 -0.00146147)
(-0.00322921 -0.00201441 0.00236888)
(-0.00405238 -0.00231446 0.000170214)
(-0.00299349 -0.00246873 -0.000811989)
(-0.00269904 -0.00269473 -0.00240842)
(-0.000808446 -0.00290222 -0.0031254)
(-0.00337261 -0.000378405 0.0020092)
(-0.00422754 -0.000559358 -0.000311243)
(-0.00317458 -0.00060716 -0.00146182)
(-0.00290652 -0.000802124 -0.00312616)
(-0.000884974 -0.000878348 -0.00396847)
(-0.00371682 -0.00371579 0.0142542)
(-0.00452819 -0.00402219 0.0120602)
(-0.00327116 -0.00430677 0.0111908)
(-0.00290537 -0.00460683 0.00963476)
(-0.000615295 -0.00479401 0.00909324)
(-0.00402322 -0.00452709 0.0120609)
(-0.00509316 -0.00509206 0.00951555)
(-0.00383303 -0.00555972 0.00832221)
(-0.00337316 -0.0059973 0.00657347)
(-0.00086726 -0.00639434 0.00573273)
(-0.00430779 -0.00326928 0.0111911)
(-0.00556082 -0.00383131 0.00832214)
(-0.00417573 -0.00417378 0.00690562)
(-0.00373972 -0.0046875 0.00483117)
(-0.00109734 -0.00500008 0.00379058)
(-0.00460801 -0.00290327 0.00963727)
(-0.00599833 -0.00337141 0.00657524)
(-0.00468923 -0.00373791 0.00483295)
(-0.00419965 -0.00419802 0.00262523)
(-0.00127657 -0.00444464 0.00134878)
(-0.00479538 -0.000612432 0.00909488)
(-0.00639573 -0.000864754 0.00573414)
(-0.00500214 -0.00109452 0.00379185)
(-0.00444645 -0.00127418 0.00134892)
(-0.00144228 -0.00143941 -0.000161438)
(-0.00495603 -0.00495325 0.0081087)
(-0.00618957 -0.00556905 0.00503786)
(-0.00469511 -0.00607539 0.00376045)
(-0.00411605 -0.00644378 0.00164411)
(-0.000905439 -0.00689661 0.000744725)
(-0.00557184 -0.00618654 0.0050369)
(-0.00726875 -0.00726522 0.00176178)
(-0.00553423 -0.0080571 -0.000118528)
(-0.00490695 -0.00885353 -0.00254772)
(-0.00141377 -0.00952764 -0.00392304)
(-0.00607767 -0.00468921 0.00375906)
(-0.00806013 -0.00552834 -0.000119185)
(-0.00628233 -0.0062765 -0.00258606)
(-0.00558598 -0.00693428 -0.00544895)
(-0.00165977 -0.00755065 -0.00730835)
(-0.00644658 -0.00411019 0.00164182)
(-0.00885713 -0.00490082 -0.00254912)
(-0.00694016 -0.00558041 -0.00544953)
(-0.00618065 -0.00617442 -0.00851041)
(-0.00211472 -0.00685268 -0.0108876)
(-0.0068986 -0.000895175 0.000742039)
(-0.00953096 -0.00140407 -0.00392512)
(-0.00755636 -0.00164954 -0.00730961)
(-0.00685825 -0.00210537 -0.0108888)
(-0.00242846 -0.00241808 -0.0138271)
(-0.00694141 -0.00694136 0.0176745)
(-0.00887787 -0.00747107 0.0134058)
(-0.00666274 -0.00838383 0.0114201)
(-0.00592088 -0.00901372 0.00846327)
(-0.00147158 -0.00969375 0.00697199)
(-0.00747112 -0.00887817 0.0134063)
(-0.010252 -0.0102525 0.00886663)
(-0.00814329 -0.0119119 0.00598255)
(-0.00718001 -0.0130996 0.00253221)
(-0.00224274 -0.0144574 0.000158548)
(-0.00838409 -0.0066622 0.0114196)
(-0.0119116 -0.00814297 0.00598202)
(-0.0095079 -0.00950719 0.00195863)
(-0.00846488 -0.0106517 -0.00238773)
(-0.00295145 -0.0119659 -0.00592211)
(-0.00901399 -0.00592008 0.00846588)
(-0.0130989 -0.00717968 0.00253379)
(-0.0106521 -0.00846434 -0.00238528)
(-0.00963944 -0.00963962 -0.00728032)
(-0.00370553 -0.0109653 -0.0119776)
(-0.00969447 -0.00146971 0.00697155)
(-0.0144574 -0.00224163 0.000159176)
(-0.0119671 -0.00294986 -0.00592222)
(-0.0109659 -0.00370467 -0.0119787)
(-0.00442684 -0.00442497 -0.0182974)
(-0.00945347 -0.0094502 0.0133947)
(-0.012452 -0.0103521 0.00804655)
(-0.00963771 -0.0117936 0.0050963)
(-0.00856505 -0.0126765 0.00106412)
(-0.00235993 -0.0140403 -0.00116361)
(-0.0103554 -0.0124495 0.00804358)
(-0.0146992 -0.0146957 0.00212353)
(-0.0118648 -0.0175232 -0.00231628)
(-0.0107289 -0.0197086 -0.00679075)
(-0.00379537 -0.0224277 -0.0106646)
(-0.0117959 -0.00962971 0.00509273)
(-0.0175258 -0.0118573 -0.00231707)
(-0.014648 -0.0146403 -0.00856014)
(-0.0134668 -0.0167463 -0.0148548)
(-0.00519904 -0.0196874 -0.0208722)
(-0.0126803 -0.00855919 0.00105793)
(-0.0197124 -0.0107216 -0.00679414)
(-0.0167538 -0.0134614 -0.0148569)
(-0.0157746 -0.0157671 -0.0218993)
(-0.00687558 -0.0192288 -0.0301057)
(-0.0140412 -0.00234438 -0.00117072)
(-0.0224307 -0.00378149 -0.0106693)
(-0.0196949 -0.00518299 -0.0208758)
(-0.0192343 -0.00686231 -0.0301084)
(-0.00879866 -0.00878141 -0.0410711)
(-0.0125904 -0.0125933 0.0259192)
(-0.0171797 -0.0137199 0.0190088)
(-0.0136402 -0.0161805 0.0148544)
(-0.0121793 -0.017279 0.0092815)
(-0.0036288 -0.0196617 0.00546137)
(-0.013717 -0.0171836 0.0190078)
(-0.0206151 -0.0206194 0.0114929)
(-0.0170562 -0.0255774 0.00431919)
(-0.0155292 -0.0290301 -0.0018669)
(-0.00612665 -0.0341805 -0.00912769)
(-0.0161779 -0.0136428 0.0148519)
(-0.0255736 -0.0170593 0.00431879)
(-0.022048 -0.0220502 -0.006264)
(-0.0207781 -0.0257639 -0.0162766)
(-0.00896497 -0.0314151 -0.0288139)
(-0.0172764 -0.0121821 0.00928207)
(-0.0290253 -0.0155328 -0.00186602)
(-0.0257608 -0.0207812 -0.0162745)
(-0.0248882 -0.0248931 -0.0275469)
(-0.0120229 -0.031168 -0.0463399)
(-0.01966 -0.00362988 0.0054569)
(-0.034177 -0.00612888 -0.00912755)
(-0.0314143 -0.00896633 -0.028817)
(-0.0311649 -0.0120254 -0.0463408)
(-0.0154861 -0.0154866 -0.0775527)
(-0.016774 -0.0167718 0.0237772)
(-0.0235341 -0.0183274 0.0160636)
(-0.0193648 -0.0228943 0.0109161)
(-0.017961 -0.0244326 0.0044881)
(-0.00612364 -0.029346 -0.000602653)
(-0.0183295 -0.023534 0.0160571)
(-0.029401 -0.029399 0.00746941)
(-0.0252223 -0.0386543 -0.0020471)
(-0.0241702 -0.045273 -0.00987095)
(-0.0110584 -0.0567056 -0.0203849)
(-0.0228945 -0.0193551 0.0109093)
(-0.0386544 -0.0252139 -0.00204757)
(-0.0352402 -0.0352308 -0.0169631)
(-0.0360068 -0.0424275 -0.0306919)
(-0.0177259 -0.0569079 -0.0500775)
(-0.024436 -0.0179571 0.00447393)
(-0.0452753 -0.0241623 -0.00987828)
(-0.0424358 -0.0360045 -0.0306978)
(-0.0458218 -0.0458131 -0.0476114)
(-0.0257629 -0.0679443 -0.0789296)
(-0.0293421 -0.00610112 -0.000616214)
(-0.0567072 -0.0110397 -0.0203931)
(-0.0569165 -0.0177007 -0.0500853)
(-0.0679466 -0.0257449 -0.0789344)
(-0.0401062 -0.0400756 -0.123245)
(-0.0207978 -0.0208075 0.0434235)
(-0.0300381 -0.0228683 0.0344431)
(-0.025199 -0.0298885 0.027526)
(-0.0236856 -0.0324691 0.0193434)
(-0.00859684 -0.0404941 0.0111987)
(-0.0228586 -0.0300487 0.0344392)
(-0.0387121 -0.0387234 0.0246114)
(-0.0343958 -0.0534623 0.0108213)
(-0.0338613 -0.0642125 0.000911833)
(-0.0166598 -0.0836592 -0.0187297)
(-0.0298795 -0.0252092 0.0275211)
(-0.0534517 -0.0344062 0.0108221)
(-0.0507051 -0.0507137 -0.013799)
(-0.0538756 -0.0635418 -0.0353851)
(-0.0283676 -0.09003 -0.077828)
(-0.0324595 -0.0236952 0.0193397)
(-0.0641995 -0.0338726 0.000910408)
(-0.0635314 -0.0538864 -0.0353856)
(-0.0730736 -0.0730893 -0.0612939)
(-0.043707 -0.10424 -0.137981)
(-0.0404869 -0.0086061 0.0111872)
(-0.0836499 -0.0166696 -0.0187285)
(-0.0900259 -0.0283764 -0.0778377)
(-0.104229 -0.0437159 -0.137977)
(-0.060628 -0.0606329 -0.313986)
(-0.0264211 -0.026423 0.0431213)
(-0.0394599 -0.0288942 0.0350573)
(-0.0344682 -0.0406603 0.0295583)
(-0.0342926 -0.0440579 0.0210438)
(-0.0141906 -0.060884 0.012776)
(-0.0288923 -0.0394648 0.0350447)
(-0.0530297 -0.0530308 0.0271406)
(-0.0489378 -0.0799897 0.0128983)
(-0.0536857 -0.0999667 0.00288617)
(-0.0307249 -0.145635 -0.0220118)
(-0.0406545 -0.0344582 0.0295472)
(-0.0799849 -0.0489309 0.0128999)
(-0.0814599 -0.08145 -0.013709)
(-0.0999033 -0.104646 -0.0418882)
(-0.060269 -0.176215 -0.103688)
(-0.0440591 -0.0342952 0.0210168)
(-0.0999657 -0.0536775 0.00287344)
(-0.104653 -0.0999107 -0.0419007)
(-0.148097 -0.148084 -0.0809959)
(-0.103343 -0.304189 -0.219559)
(-0.0608671 -0.0141582 0.0127532)
(-0.145635 -0.0307019 -0.0220221)
(-0.17622 -0.0602294 -0.1037)
(-0.304182 -0.10332 -0.21957)
(-0.219628 -0.219569 -0.415363)
(-0.029586 -0.0296085 0.0756784)
(-0.043573 -0.0315423 0.0699903)
(-0.0391769 -0.0477568 0.0660658)
(-0.0404077 -0.0520455 0.0591961)
(-0.0167139 -0.077483 0.0511867)
(-0.0315197 -0.0435948 0.0699812)
(-0.060793 -0.0608155 0.064253)
(-0.058661 -0.0966603 0.0510164)
(-0.0686635 -0.127054 0.0418776)
(-0.0417497 -0.199873 0.0114481)
(-0.0477349 -0.0392015 0.0660599)
(-0.0966385 -0.0586841 0.0510209)
(-0.105577 -0.105597 0.0235588)
(-0.14349 -0.147487 -0.0104262)
(-0.0910296 -0.28842 -0.0908899)
(-0.0520213 -0.040429 0.0591838)
(-0.127027 -0.0686868 0.0418701)
(-0.147464 -0.143512 -0.0104332)
(-0.251284 -0.251325 -0.0660046)
(-0.192046 -0.592496 -0.339948)
(-0.077463 -0.0167401 0.0511744)
(-0.199853 -0.0417725 0.0114549)
(-0.288417 -0.0910518 -0.0909126)
(-0.592439 -0.192059 -0.339922)
(-0.261486 -0.261497 -0.945173)
(-0.0329162 -0.0329275 0.0719106)
(-0.0490726 -0.0354961 0.0717266)
(-0.0452755 -0.0572081 0.0769203)
(-0.0491353 -0.06314 0.0748605)
(-0.0222262 -0.103722 0.0800431)
(-0.0354849 -0.0490833 0.0717092)
(-0.0719882 -0.0719939 0.0771022)
(-0.0713788 -0.122471 0.0766111)
(-0.0929445 -0.169432 0.083231)
(-0.0618303 -0.286303 0.0770378)
(-0.0571917 -0.0452688 0.0769074)
(-0.12246 -0.0713794 0.0766174)
(-0.143044 -0.143036 0.0796805)
(-0.21325 -0.209959 0.0690895)
(-0.144645 -0.450186 0.0539323)
(-0.0631363 -0.0491443 0.0748213)
(-0.169425 -0.0929341 0.0832139)
(-0.209957 -0.213281 0.0690643)
(-0.433722 -0.433728 0.0420052)
(-0.358829 -0.858363 -0.158005)
(-0.103686 -0.022184 0.080015)
(-0.286313 -0.0618164 0.0770396)
(-0.450163 -0.144598 0.0538981)
(-0.858434 -0.358854 -0.158075)
(-1.21198 -1.21183 -1.02431)
(-0.030335 -0.0303753 0.116651)
(-0.0385059 -0.0267276 0.124154)
(-0.0360474 -0.0492206 0.139048)
(-0.0372077 -0.0448992 0.149513)
(-0.0115496 -0.0830803 0.170979)
(-0.0266874 -0.0385404 0.124137)
(-0.055793 -0.0558266 0.135398)
(-0.0525005 -0.0937431 0.156339)
(-0.0675245 -0.131186 0.17308)
(-0.0486273 -0.214391 0.196005)
(-0.0491791 -0.0360939 0.139043)
(-0.0937084 -0.0525407 0.15635)
(-0.11188 -0.111919 0.205996)
(-0.160318 -0.141559 0.252921)
(-0.108409 -0.315142 0.355378)
(-0.0448524 -0.0372446 0.149482)
(-0.131144 -0.0675519 0.173063)
(-0.141513 -0.16037 0.252889)
(-0.343341 -0.343404 0.294516)
(-0.370275 -0.796741 0.397447)
(-0.0830293 -0.0116041 0.170985)
(-0.214374 -0.0486667 0.19601)
(-0.315024 -0.108482 0.355401)
(-0.796458 -0.370037 0.397186)
(-1.53471 -1.53506 0.148275)
(-0.0256644 -0.0256934 0.0878235)
(-0.0267211 -0.0244907 0.100958)
(-0.0199243 -0.0406958 0.119846)
(-0.0171644 -0.0405687 0.134241)
(-0.000719717 -0.0809416 0.159063)
(-0.0244617 -0.0267374 0.100944)
(-0.039863 -0.0398751 0.121001)
(-0.0338767 -0.0556951 0.14845)
(-0.0533208 -0.0667364 0.170502)
(-0.0396301 -0.093465 0.19802)
(-0.0406628 -0.0199311 0.119842)
(-0.0556791 -0.0338944 0.148456)
(-0.0473862 -0.0473989 0.211535)
(-0.0550171 -0.0558533 0.267824)
(-0.0395089 -0.207714 0.378324)
(-0.0405514 -0.0171619 0.134203)
(-0.0667325 -0.0533167 0.17048)
(-0.0558593 -0.0549903 0.26777)
(-0.0513434 -0.0512812 0.348886)
(-0.114877 -0.126943 0.298884)
(-0.0809075 -0.000671503 0.15906)
(-0.0934333 -0.0396359 0.19798)
(-0.207707 -0.0394171 0.378307)
(-0.126719 -0.114723 0.298667)
(0.0820452 0.0817688 -1.32543)
(-0.0168358 -0.0168904 0.129867)
(-0.00642651 -0.00604526 0.142124)
(-0.00258692 -0.0201773 0.155615)
(0.00226609 -0.00812466 0.164948)
(0.0138915 -0.0451327 0.177238)
(-0.00599065 -0.00646492 0.142103)
(-0.00826715 -0.00830821 0.160132)
(-0.00320752 -0.00242458 0.180644)
(-0.0198167 -0.00179771 0.197312)
(-0.0220014 0.010419 0.228725)
(-0.0201251 -0.00265692 0.1556)
(-0.00238601 -0.00327032 0.180658)
(0.00362813 0.00354551 0.214421)
(0.016556 0.0122528 0.234002)
(0.0171364 -0.096881 0.262883)
(-0.00806275 0.00223082 0.164898)
(-0.00176887 -0.0198886 0.197308)
(0.0122976 0.01651 0.233947)
(0.0246607 0.0246547 0.194978)
(-0.0289023 0.216476 -0.262424)
(-0.0451175 0.0138141 0.177207)
(0.0104403 -0.0220838 0.228744)
(-0.096844 0.0169987 0.262844)
(0.21641 -0.0287935 -0.262418)
(0.491144 0.491101 -3.08694)
(-0.0126173 -0.012668 0.0615753)
(-0.00103213 -0.00544267 0.0777454)
(0.00286172 -0.0142955 0.0867075)
(0.00447487 -0.00623435 0.102392)
(0.0120591 -0.0274933 0.110224)
(-0.00539208 -0.00106332 0.0777455)
(-0.00137362 -0.00139304 0.103152)
(0.00348229 0.00331094 0.127208)
(-0.00597859 0.00158785 0.157284)
(-0.00772614 0.0081997 0.200909)
(-0.0142324 0.00282624 0.0867022)
(0.00334207 0.00345974 0.127199)
(0.00551388 0.0054582 0.159443)
(0.0107875 0.0151322 0.218687)
(0.010998 -0.0316958 0.254091)
(-0.00617033 0.00446085 0.102395)
(0.00158783 -0.0059703 0.157286)
(0.0151662 0.0107796 0.218707)
(-0.028767 -0.0286402 0.280601)
(-0.00433101 -0.0676272 -0.157151)
(-0.0274073 0.0120589 0.110214)
(0.00823317 -0.00770464 0.200907)
(-0.0315787 0.0110078 0.254082)
(-0.0676347 -0.00408394 -0.157128)
(-0.460535 -0.460188 -1.88582)
(0.000395139 0.000340543 0.121169)
(0.0184255 0.0208423 0.135629)
(0.0216882 0.0225788 0.145636)
(0.0250985 0.0495329 0.160079)
(0.0218944 0.049847 0.170339)
(0.020897 0.018382 0.13563)
(0.040591 0.0405418 0.156006)
(0.0502309 0.0688001 0.177041)
(0.0523859 0.110262 0.19941)
(0.0215516 0.170269 0.227134)
(0.0226281 0.021621 0.14563)
(0.0688437 0.0501705 0.177024)
(0.0916422 0.0915746 0.212618)
(0.127551 0.180541 0.268328)
(0.0767261 0.266831 0.310373)
(0.0495946 0.0250588 0.160073)
(0.110311 0.0523241 0.199397)
(0.180604 0.1275 0.268359)
(0.296559 0.296495 0.313809)
(0.180086 0.423767 -0.00968027)
(0.0498742 0.0218159 0.170322)
(0.170299 0.0214809 0.227083)
(0.266882 0.0766365 0.310365)
(0.423835 0.179952 -0.00969141)
(0.483339 0.483198 -0.819945)
(0.00341931 0.00336913 0.0101009)
(0.0236452 0.0172459 0.0199311)
(0.0276034 0.0207515 0.0193625)
(0.0294669 0.0379762 0.0272535)
(0.0233089 0.0371967 0.0234749)
(0.0172961 0.023608 0.0199376)
(0.0403514 0.0403152 0.0272391)
(0.0473616 0.0706237 0.0325546)
(0.0449822 0.108942 0.0345625)
(0.021334 0.163549 0.0365159)
(0.0208032 0.0275608 0.0193629)
(0.0706608 0.0473253 0.0325499)
(0.0961693 0.0961288 0.0318392)
(0.124393 0.162449 0.04181)
(0.0790856 0.233332 0.0139355)
(0.0380332 0.0294415 0.027269)
(0.108981 0.0449551 0.03457)
(0.162488 0.124365 0.0418282)
(0.295707 0.295656 0.0274025)
(0.294415 0.586465 -0.433461)
(0.0372473 0.0232804 0.0234688)
(0.163585 0.0213078 0.0365193)
(0.233343 0.0790551 0.0139367)
(0.586482 0.294357 -0.433414)
(1.10365 1.10358 -2.55361)
(0.0114377 0.0113897 0.0986401)
(0.0274346 0.0301434 0.107189)
(0.0287124 0.0387934 0.104951)
(0.0289029 0.0613052 0.110445)
(0.0184481 0.0694306 0.105856)
(0.0301915 0.0273915 0.107194)
(0.0529663 0.0529192 0.115869)
(0.0572872 0.0808132 0.116856)
(0.0560277 0.123512 0.121615)
(0.0232764 0.168445 0.121125)
(0.0388378 0.0286541 0.104948)
(0.0808564 0.0572345 0.116846)