/*--------------------------------*- C++ -*----------------------------------*\
| =========                 |                                                 |
| \\      /  F ield         | OpenFOAM: The Open Source CFD Toolbox           |
|  \\    /   O peration     | Version:  5.x                                   |
|   \\  /    A nd           | Web:      www.OpenFOAM.org                      |
|    \\/     M anipulation  |                                                 |
\*---------------------------------------------------------------------------*/
FoamFile
{
    version     2.0;
    format      ascii;
    class       surfaceScalarField;
    location    "0.012";
    object      phi;
}
// * * * * * * * * * * * * * * * * * * * * * * * * * * * * * * * * * * * * * //

dimensions      [0 3 -1 0 0 0 0];

internalField   nonuniform List<scalar> 
4297
(
9.88757e-10
9.88705e-10
-2.27925e-09
2.1003e-09
1.00473e-09
-2.23792e-09
2.46303e-09
1.03215e-09
-1.48059e-09
2.87363e-09
1.03647e-09
-1.52767e-09
1.05449e-09
-2.2309e-10
1.00479e-09
2.10027e-09
-2.23794e-09
2.11095e-09
2.11092e-09
-2.20824e-09
2.46827e-09
2.12691e-09
-1.45279e-09
2.87834e-09
2.12721e-09
-1.50256e-09
2.13258e-09
-1.98385e-10
1.0322e-09
2.46301e-09
-1.4806e-09
2.12695e-09
2.46826e-09
-1.45279e-09
2.47849e-09
2.47847e-09
-7.04879e-10
2.88435e-09
2.47691e-09
-7.5744e-10
2.4768e-09
5.36433e-10
1.03652e-09
2.87364e-09
-1.52771e-09
2.12725e-09
2.87834e-09
-1.50256e-09
2.47693e-09
2.88435e-09
-7.5745e-10
2.88128e-09
2.88128e-09
-8.10481e-10
2.87595e-09
4.79083e-10
1.05454e-09
-2.23119e-10
2.13262e-09
-1.98388e-10
2.47681e-09
5.3643e-10
2.87595e-09
4.7908e-10
1.75348e-09
9.84267e-10
9.84211e-10
-4.52676e-09
1.90687e-09
1.01925e-09
-4.27047e-09
2.35696e-09
1.0369e-09
-3.03708e-09
2.31356e-09
1.04561e-09
-2.58628e-09
1.04576e-09
-6.46548e-10
1.01931e-09
1.90682e-09
-4.2705e-09
1.92499e-09
1.92494e-09
-4.01787e-09
2.36558e-09
1.93111e-09
-2.78908e-09
2.31519e-09
1.93287e-09
-2.34159e-09
1.92502e-09
-4.08427e-10
1.03695e-09
2.35693e-09
-3.03711e-09
1.93116e-09
2.36555e-09
-2.78909e-09
2.36485e-09
2.36482e-09
-1.57444e-09
2.30965e-09
2.36254e-09
-1.13408e-09
2.34968e-09
7.79703e-10
1.04566e-09
2.31356e-09
-2.58632e-09
1.93292e-09
2.31519e-09
-2.34162e-09
2.36256e-09
2.30965e-09
-1.13409e-09
2.3047e-09
2.3047e-09
-6.96824e-10
2.28896e-09
1.20644e-09
1.04582e-09
-6.46594e-10
1.92507e-09
-4.08451e-10
2.34971e-09
7.79693e-10
2.28895e-09
1.20644e-09
3.07986e-09
1.48096e-09
1.4809e-09
-7.67908e-09
2.89339e-09
1.48736e-09
-7.25351e-09
3.51781e-09
1.50236e-09
-5.22435e-09
3.84067e-09
1.50238e-09
-4.46876e-09
1.50559e-09
-1.20776e-09
1.48743e-09
2.89334e-09
-7.25354e-09
2.89486e-09
2.89481e-09
-6.83108e-09
3.51779e-09
2.89869e-09
-4.80914e-09
3.83915e-09
2.89358e-09
-4.05553e-09
2.8811e-09
-8.05435e-10
1.50242e-09
3.51778e-09
-5.2244e-09
2.89874e-09
3.51776e-09
-4.80916e-09
3.51363e-09
3.5136e-09
-2.80561e-09
3.82899e-09
3.50581e-09
-2.06319e-09
3.48399e-09
1.15206e-09
1.50245e-09
3.84067e-09
-4.46883e-09
2.89363e-09
3.83915e-09
-4.05557e-09
3.50584e-09
3.82899e-09
-2.06321e-09
3.8192e-09
3.8192e-09
-1.32514e-09
3.79207e-09
1.8705e-09
1.50565e-09
-1.20783e-09
2.88115e-09
-8.05478e-10
3.48402e-09
1.15204e-09
3.79207e-09
1.87049e-09
5.01022e-09
2.00301e-09
2.00293e-09
-1.19173e-08
3.8729e-09
2.01975e-09
-1.12278e-08
4.68874e-09
2.02352e-09
-8.12207e-09
5.02247e-09
2.02024e-09
-6.87072e-09
2.0058e-09
-2.01061e-09
2.01982e-09
3.87284e-09
-1.12278e-08
3.8752e-09
3.87514e-09
-1.05397e-08
4.68418e-09
3.8545e-09
-7.44899e-09
5.01396e-09
3.83848e-09
-6.20412e-09
3.79847e-09
-1.3652e-09
2.02361e-09
4.6887e-09
-8.12214e-09
3.85456e-09
4.68414e-09
-7.44902e-09
4.65412e-09
4.65408e-09
-4.40535e-09
4.97958e-09
4.63434e-09
-3.18545e-09
4.58243e-09
1.58991e-09
2.0203e-09
5.02247e-09
-6.87082e-09
3.83855e-09
5.01395e-09
-6.20418e-09
4.63438e-09
4.97958e-09
-3.18548e-09
4.9587e-09
4.9587e-09
-1.97504e-09
4.90155e-09
2.76696e-09
2.00588e-09
-2.01071e-09
3.79854e-09
-1.36527e-09
4.58248e-09
1.58988e-09
4.90155e-09
2.76695e-09
7.41115e-09
3.00405e-09
3.00393e-09
-1.80348e-08
5.75357e-09
3.00364e-09
-1.70309e-08
6.99522e-09
2.99901e-09
-1.23975e-08
7.65431e-09
2.99396e-09
-1.05573e-08
2.96461e-09
-3.1541e-09
3.00376e-09
5.75348e-09
-1.70309e-08
5.74676e-09
5.74667e-09
-1.60227e-08
6.98553e-09
5.71945e-09
-1.14072e-08
7.64006e-09
5.70298e-09
-9.56751e-09
5.6353e-09
-2.19661e-09
2.99912e-09
6.99517e-09
-1.23976e-08
5.71954e-09
6.98547e-09
-1.14072e-08
6.94368e-09
6.94363e-09
-6.85362e-09
7.58401e-09
6.91881e-09
-5.04217e-09
6.82669e-09
2.22183e-09
2.99408e-09
7.65429e-09
-1.05574e-08
5.70307e-09
7.64004e-09
-9.56759e-09
6.91887e-09
7.584e-09
-5.04221e-09
7.55077e-09
7.55075e-09
-3.23991e-09
7.44632e-09
3.96291e-09
2.96473e-09
-3.15424e-09
5.6354e-09
-2.1967e-09
6.82674e-09
2.22179e-09
7.44633e-09
3.9629e-09
1.09865e-08
4.40969e-09
4.40954e-09
-2.69898e-08
8.40122e-09
4.40697e-09
-2.54819e-08
1.018e-08
4.36401e-09
-1.85732e-08
1.10596e-08
4.34392e-09
-1.58091e-08
4.27694e-09
-4.85658e-09
4.40713e-09
8.40109e-09
-2.5482e-08
8.38332e-09
8.3832e-09
-2.39716e-08
1.01504e-08
8.28987e-09
-1.70987e-08
1.10242e-08
8.24931e-09
-1.43464e-08
8.11588e-09
-3.45212e-09
4.36417e-09
1.01799e-08
-1.85734e-08
8.28999e-09
1.01503e-08
-1.70988e-08
1.00298e-08
1.00297e-08
-1.0333e-08
1.09029e-08
9.97744e-09
-7.64389e-09
9.81266e-09
3.07533e-09
4.34409e-09
1.10596e-08
-1.58093e-08
8.24944e-09
1.10242e-08
-1.43465e-08
9.97752e-09
1.09029e-08
-7.64394e-09
1.08489e-08
1.08489e-08
-4.98374e-09
1.06731e-08
5.64577e-09
4.2771e-09
-4.8568e-09
8.11601e-09
-3.45224e-09
9.81274e-09
3.07527e-09
1.06731e-08
5.64576e-09
1.59922e-08
6.3626e-09
6.3624e-09
-3.97543e-08
1.21531e-08
6.373e-09
-3.76659e-08
1.49253e-08
6.35347e-09
-2.77087e-08
1.64696e-08
6.37591e-09
-2.37404e-08
6.2724e-09
-7.3726e-09
6.37321e-09
1.21529e-08
-3.76661e-08
1.21672e-08
1.2167e-08
-3.5557e-08
1.49142e-08
1.21109e-08
-2.56024e-08
1.64358e-08
1.21304e-08
-2.16226e-08
1.19212e-08
-5.32833e-09
6.35369e-09
1.49252e-08
-2.7709e-08
1.21111e-08
1.49141e-08
-2.56025e-08
1.48007e-08
1.48006e-08
-1.57124e-08
1.62661e-08
1.47626e-08
-1.17421e-08
1.44654e-08
4.27965e-09
6.37611e-09
1.64695e-08
-2.37407e-08
1.21306e-08
1.64358e-08
-2.16227e-08
1.47628e-08
1.62661e-08
-1.17422e-08
1.61759e-08
1.61758e-08
-7.81096e-09
1.5831e-08
8.0343e-09
6.27261e-09
-7.3729e-09
1.19214e-08
-5.3285e-09
1.44655e-08
4.27956e-09
1.58311e-08
8.03428e-09
2.33468e-08
9.63425e-09
9.63398e-09
-5.90533e-08
1.83683e-08
9.63161e-09
-5.60512e-08
2.23177e-08
9.56607e-09
-4.12285e-08
2.44388e-08
9.49707e-09
-3.53621e-08
9.29609e-09
-1.10532e-08
9.63189e-09
1.83681e-08
-5.60514e-08
1.83394e-08
1.83391e-08
-5.29717e-08
2.22633e-08
1.81703e-08
-3.81311e-08
2.43448e-08
1.80358e-08
-3.22434e-08
1.76612e-08
-8.08972e-09
9.56635e-09
2.23176e-08
-4.12288e-08
1.81705e-08
2.22631e-08
-3.81312e-08
2.20267e-08
2.20265e-08
-2.34255e-08
2.40343e-08
2.18794e-08
-1.75938e-08
2.14233e-08
6.0662e-09
9.49735e-09
2.44388e-08
-3.53625e-08
1.80361e-08
2.43447e-08
-3.22436e-08
2.18796e-08
2.40343e-08
-1.75939e-08
2.38731e-08
2.38731e-08
-1.17983e-08
2.33627e-08
1.16116e-08
9.29638e-09
-1.10536e-08
1.76615e-08
-8.08996e-09
2.14235e-08
6.06608e-09
2.33628e-08
1.16116e-08
3.41247e-08
1.41086e-08
1.41082e-08
-8.72085e-08
2.70109e-08
1.41621e-08
-8.31032e-08
3.31358e-08
1.41336e-08
-6.14615e-08
3.65009e-08
1.4115e-08
-5.28203e-08
1.37578e-08
-1.64182e-08
1.41624e-08
2.70106e-08
-8.31034e-08
2.70744e-08
2.70741e-08
-7.8798e-08
3.31023e-08
2.69393e-08
-5.69662e-08
3.63542e-08
2.68332e-08
-4.82139e-08
2.60761e-08
-1.20462e-08
1.4134e-08
3.31356e-08
-6.14619e-08
2.69396e-08
3.3102e-08
-5.69663e-08
3.28083e-08
3.28081e-08
-3.51636e-08
3.58837e-08
3.2575e-08
-2.64105e-08
3.15935e-08
8.8966e-09
1.41154e-08
3.65008e-08
-5.28208e-08
2.68335e-08
3.63541e-08
-4.82142e-08
3.25752e-08
3.58836e-08
-2.64107e-08
3.55109e-08
3.55109e-08
-1.76688e-08
3.44035e-08
1.7093e-08
1.37582e-08
-1.64187e-08
2.60765e-08
-1.20465e-08
3.15938e-08
8.89644e-09
3.44036e-08
1.70929e-08
5.0178e-08
2.22762e-08
2.22758e-08
-1.31635e-07
4.19543e-08
2.21158e-08
-1.24855e-07
5.05533e-08
2.1772e-08
-9.17769e-08
5.48267e-08
2.14066e-08
-7.84479e-08
2.07279e-08
-2.42427e-08
2.21162e-08
4.19539e-08
-1.24856e-07
4.17402e-08
4.17399e-08
-1.1805e-07
5.03156e-08
4.1097e-08
-8.48675e-08
5.45515e-08
4.042e-08
-7.14621e-08
3.92415e-08
-1.76764e-08
2.17724e-08
5.0553e-08
-9.17773e-08
4.10973e-08
5.03154e-08
-8.48677e-08
4.96677e-08
4.96675e-08
-5.23037e-08
5.35865e-08
4.90585e-08
-3.89658e-08
4.75405e-08
1.33853e-08
2.1407e-08
5.48266e-08
-7.84486e-08
4.04204e-08
5.45514e-08
-7.14625e-08
4.90588e-08
5.35864e-08
-3.89659e-08
5.30342e-08
5.30341e-08
-2.56168e-08
5.13153e-08
2.60358e-08
2.07284e-08
-2.42434e-08
3.92419e-08
-1.76768e-08
4.75407e-08
1.33851e-08
5.13154e-08
2.60358e-08
7.48916e-08
3.71455e-08
3.7145e-08
-2.05667e-07
6.74424e-08
3.61285e-08
-1.91183e-07
7.88853e-08
3.39294e-08
-1.3704e-07
8.30789e-08
3.27979e-08
-1.1534e-07
3.15455e-08
-3.48604e-08
3.61289e-08
6.74419e-08
-1.91183e-07
6.62016e-08
6.62012e-08
-1.78196e-07
7.78416e-08
6.34543e-08
-1.26031e-07
8.22845e-08
6.17011e-08
-1.04805e-07
5.91198e-08
-2.47364e-08
3.39297e-08
7.8885e-08
-1.37041e-07
6.34546e-08
7.78413e-08
-1.26031e-07
7.57019e-08
7.57016e-08
-7.67955e-08
8.06136e-08
7.4055e-08
-5.62279e-08
7.10358e-08
2.16859e-08
3.27984e-08
8.30788e-08
-1.15341e-07
6.17015e-08
8.22844e-08
-1.04806e-07
7.40553e-08
8.06135e-08
-5.6228e-08
7.91091e-08
7.9109e-08
-3.57205e-08
7.58671e-08
4.08796e-08
3.1546e-08
-3.48613e-08
5.91203e-08
-2.47369e-08
7.10361e-08
2.16856e-08
7.58672e-08
4.08795e-08
1.12536e-07
5.90605e-08
5.90599e-08
-3.23356e-07
1.07529e-07
5.75683e-08
-2.97036e-07
1.2347e-07
5.38677e-08
-2.0667e-07
1.26414e-07
5.12042e-08
-1.69323e-07
4.78585e-08
-4.95707e-08
5.75688e-08
1.07529e-07
-2.97036e-07
1.04643e-07
1.04642e-07
-2.72341e-07
1.20824e-07
9.89989e-08
-1.8734e-07
1.24796e-07
9.42308e-08
-1.518e-07
8.87735e-08
-3.33932e-08
5.38682e-08
1.2347e-07
-2.06671e-07
9.89993e-08
1.20824e-07
-1.8734e-07
1.16542e-07
1.16542e-07
-1.11877e-07
1.21231e-07
1.12264e-07
-7.89465e-08
1.05906e-07
3.60836e-08
5.12046e-08
1.26414e-07
-1.69324e-07
9.42312e-08
1.24796e-07
-1.518e-07
1.12264e-07
1.21231e-07
-7.89467e-08
1.18296e-07
1.18296e-07
-4.77809e-08
1.12467e-07
6.44514e-08
4.7859e-08
-4.95718e-08
8.87741e-08
-3.33939e-08
1.05906e-07
3.60833e-08
1.12467e-07
6.44514e-08
1.70598e-07
8.65069e-08
8.65061e-08
-4.95706e-07
1.63195e-07
8.5479e-08
-4.58917e-07
1.88169e-07
8.17233e-08
-3.13106e-07
1.92573e-07
7.73126e-08
-2.50807e-07
7.14671e-08
-6.68749e-08
8.54796e-08
1.63194e-07
-4.58917e-07
1.60323e-07
1.60322e-07
-4.22021e-07
1.83889e-07
1.51193e-07
-2.80372e-07
1.88032e-07
1.42804e-07
-2.21432e-07
1.31256e-07
-4.22098e-08
8.17238e-08
1.88169e-07
-3.13106e-07
1.51193e-07
1.83889e-07
-2.80372e-07
1.73301e-07
1.73301e-07
-1.5609e-07
1.7926e-07
1.65546e-07
-1.07645e-07
1.53818e-07
6.07074e-08
7.73132e-08
1.92573e-07
-2.50808e-07
1.42805e-07
1.88032e-07
-2.21433e-07
1.65546e-07
1.7926e-07
-1.07645e-07
1.72484e-07
1.72484e-07
-6.16556e-08
1.6073e-07
1.00841e-07
7.14677e-08
-6.68762e-08
1.31257e-07
-4.22107e-08
1.53818e-07
6.0707e-08
1.6073e-07
1.00841e-07
2.5062e-07
1.25513e-07
1.25512e-07
-7.45806e-07
2.42886e-07
1.23894e-07
-6.99779e-07
2.72364e-07
1.15267e-07
-4.57492e-07
2.85981e-07
1.12289e-07
-3.76392e-07
1.0115e-07
-8.92987e-08
1.23895e-07
2.42885e-07
-6.99779e-07
2.35956e-07
2.35955e-07
-6.46139e-07
2.67539e-07
2.16225e-07
-4.12912e-07
2.79203e-07
2.08322e-07
-3.29131e-07
1.88279e-07
-5.49132e-08
1.15268e-07
2.72363e-07
-4.57493e-07
2.16226e-07
2.67538e-07
-4.12912e-07
2.52283e-07
2.52283e-07
-2.28203e-07
2.62759e-07
2.41659e-07
-1.51457e-07
2.21849e-07
9.43693e-08
1.1229e-07
2.8598e-07
-3.76393e-07
2.08323e-07
2.79203e-07
-3.29132e-07
2.41659e-07
2.62759e-07
-1.51458e-07
2.53068e-07
2.53068e-07
-8.44738e-08
2.3394e-07
1.50625e-07
1.01151e-07
-8.93003e-08
1.8828e-07
-5.49143e-08
2.2185e-07
9.43688e-08
2.33941e-07
1.50625e-07
3.62409e-07
1.51274e-07
1.51272e-07
-1.04724e-06
2.87125e-07
1.53835e-07
-9.8898e-07
3.78996e-07
1.60325e-07
-7.09261e-07
4.23004e-07
1.60132e-07
-5.80144e-07
1.43645e-07
-1.07879e-07
1.53836e-07
2.87123e-07
-9.8898e-07
2.96279e-07
2.96277e-07
-9.31023e-07
3.77612e-07
3.11251e-07
-6.45172e-07
4.1155e-07
3.00286e-07
-5.03225e-07
2.65612e-07
-6.15318e-08
1.60327e-07
3.78995e-07
-7.09262e-07
3.11253e-07
3.77611e-07
-6.45172e-07
3.57558e-07
3.57557e-07
-3.20814e-07
3.79919e-07
3.43948e-07
-2.17482e-07
3.14596e-07
1.39045e-07
1.60134e-07
4.23004e-07
-5.80146e-07
3.00287e-07
4.1155e-07
-5.03226e-07
3.43949e-07
3.79919e-07
-2.17483e-07
3.628e-07
3.62799e-07
-1.22176e-07
3.34874e-07
2.14583e-07
1.43646e-07
-1.07881e-07
2.65613e-07
-6.15332e-08
3.14597e-07
1.39045e-07
3.34875e-07
2.14582e-07
5.07205e-07
2.14425e-07
2.14424e-07
-1.47452e-06
3.97581e-07
2.14215e-07
-1.38565e-06
5.15505e-07
2.11836e-07
-1.03841e-06
5.95029e-07
2.13674e-07
-8.72781e-07
1.99515e-07
-1.55305e-07
2.14216e-07
3.97579e-07
-1.38565e-06
3.99182e-07
3.9918e-07
-1.30095e-06
5.15669e-07
4.02151e-07
-9.51974e-07
5.88839e-07
4.17049e-07
-7.79769e-07
3.71849e-07
-8.27234e-08
2.11838e-07
5.15504e-07
-1.03841e-06
4.02152e-07
5.15668e-07
-9.51974e-07
5.17026e-07
5.17024e-07
-5.50562e-07
5.50068e-07
4.93743e-07
-3.27219e-07
4.43386e-07
1.96065e-07
2.13676e-07
5.95028e-07
-8.72784e-07
4.1705e-07
5.88838e-07
-7.79771e-07
4.93744e-07
5.50067e-07
-3.2722e-07
5.23453e-07
5.23452e-07
-1.81597e-07
4.60092e-07
3.11869e-07
1.99517e-07
-1.55308e-07
3.71851e-07
-8.27255e-08
4.43388e-07
1.96064e-07
4.60092e-07
3.11868e-07
6.68858e-07
3.22193e-07
3.22191e-07
-2.11692e-06
5.83558e-07
3.15768e-07
-1.96188e-06
7.30122e-07
2.99308e-07
-1.48348e-06
8.10436e-07
2.95786e-07
-1.24815e-06
2.90183e-07
-2.81251e-07
3.1577e-07
5.83556e-07
-1.96188e-06
5.73469e-07
5.73467e-07
-1.81635e-06
7.24617e-07
5.45946e-07
-1.34976e-06
8.14824e-07
5.43756e-07
-1.11794e-06
5.24665e-07
-1.40842e-07
2.99311e-07
7.3012e-07
-1.48348e-06
5.45949e-07
7.24616e-07
-1.34976e-06
7.0469e-07
7.04688e-07
-8.68045e-07
8.00865e-07
7.1367e-07
-5.93309e-07
6.3555e-07
2.71161e-07
2.95788e-07
8.10433e-07
-1.24815e-06
5.43758e-07
8.14822e-07
-1.11795e-06
7.13672e-07
8.00864e-07
-5.9331e-07
7.5895e-07
7.5895e-07
-2.72158e-07
6.62174e-07
4.44099e-07
2.90186e-07
-2.81257e-07
5.24668e-07
-1.40844e-07
6.35552e-07
2.71159e-07
6.62175e-07
4.44099e-07
8.87257e-07
5.06974e-07
5.06971e-07
-3.12808e-06
9.09986e-07
4.92107e-07
-2.85569e-06
1.10651e-06
4.58953e-07
-2.13779e-06
1.16041e-06
4.43553e-07
-1.74451e-06
4.28739e-07
-5.14751e-07
4.9211e-07
9.09984e-07
-2.8557e-06
8.86288e-07
8.86285e-07
-2.6047e-06
1.08616e-06
8.26845e-07
-1.91752e-06
1.16536e-06
7.98555e-07
-1.55214e-06
7.55015e-07
-2.49203e-07
4.58956e-07
1.10651e-06
-2.1378e-06
8.26848e-07
1.08616e-06
-1.91752e-06
1.02766e-06
1.02765e-06
-1.26966e-06
1.13475e-06
9.96805e-07
-8.98659e-07
8.98468e-07
3.60633e-07
4.43556e-07
1.16041e-06
-1.74451e-06
7.98558e-07
1.16535e-06
-1.55214e-06
9.96808e-07
1.13475e-06
-8.9866e-07
1.09733e-06
1.09733e-06
-4.73212e-07
9.71162e-07
5.97557e-07
4.28742e-07
-5.14757e-07
7.55019e-07
-2.49208e-07
8.9847e-07
3.60632e-07
9.71163e-07
5.97557e-07
1.24281e-06
8.2327e-07
8.23265e-07
-4.77143e-06
1.45381e-06
7.9017e-07
-4.27491e-06
1.73958e-06
7.25819e-07
-3.14809e-06
1.7617e-06
6.81962e-07
-2.44733e-06
6.00157e-07
-8.0398e-07
7.90175e-07
1.4538e-06
-4.27491e-06
1.40232e-06
1.40231e-06
-3.82898e-06
1.68361e-06
1.29101e-06
-2.76401e-06
1.71669e-06
1.22016e-06
-2.12342e-06
1.12331e-06
-4.71669e-07
7.25824e-07
1.73958e-06
-3.1481e-06
1.29102e-06
1.6836e-06
-2.76401e-06
1.56004e-06
1.56003e-06
-1.8077e-06
1.6439e-06
1.48167e-06
-1.24403e-06
1.32153e-06
4.79502e-07
6.81967e-07
1.7617e-06
-2.44733e-06
1.22016e-06
1.71669e-06
-2.12342e-06
1.48167e-06
1.6439e-06
-1.24403e-06
1.5883e-06
1.5883e-06
-6.86483e-07
1.43555e-06
7.94366e-07
6.0016e-07
-8.03986e-07
1.12331e-06
-4.71676e-07
1.32153e-06
4.79499e-07
1.43556e-06
7.94365e-07
1.82264e-06
1.28913e-06
1.28912e-06
-7.34502e-06
2.24161e-06
1.22872e-06
-6.45391e-06
2.68558e-06
1.11824e-06
-4.70836e-06
2.70884e-06
1.03523e-06
-3.50391e-06
8.82538e-07
-1.12205e-06
1.22873e-06
2.2416e-06
-6.45391e-06
2.1475e-06
2.1475e-06
-5.66654e-06
2.57952e-06
1.96843e-06
-4.04621e-06
2.61285e-06
1.8378e-06
-2.95931e-06
1.5972e-06
-6.5405e-07
1.11825e-06
2.68558e-06
-4.70837e-06
1.96843e-06
2.57952e-06
-4.04621e-06
2.36679e-06
2.36679e-06
-2.60442e-06
2.4194e-06
2.22334e-06
-1.68218e-06
1.94495e-06
6.15638e-07
1.03524e-06
2.70884e-06
-3.50392e-06
1.8378e-06
2.61285e-06
-2.95932e-06
2.22334e-06
2.41939e-06
-1.68219e-06
2.30772e-06
2.30772e-06
-8.55234e-07
2.04723e-06
1.16227e-06
8.82543e-07
-1.12205e-06
1.5972e-06
-6.54057e-07
1.94495e-06
6.15635e-07
2.04723e-06
1.16227e-06
2.67019e-06
2.18614e-06
2.18613e-06
-1.17124e-05
3.66765e-06
2.0327e-06
-9.96577e-06
4.3407e-06
1.82127e-06
-7.20079e-06
4.26417e-06
1.63894e-06
-5.0643e-06
1.35619e-06
-1.47421e-06
2.03271e-06
3.66764e-06
-9.96578e-06
3.45505e-06
3.45504e-06
-8.51123e-06
4.11212e-06
3.12414e-06
-6.00614e-06
4.06366e-06
2.85951e-06
-4.13142e-06
2.41376e-06
-7.87604e-07
1.82128e-06
4.34069e-06
-7.2008e-06
3.12415e-06
4.11211e-06
-6.00614e-06
3.7291e-06
3.7291e-06
-3.81433e-06
3.69802e-06
3.43756e-06
-2.22915e-06
2.93685e-06
9.02072e-07
1.63895e-06
4.26417e-06
-5.06431e-06
2.85952e-06
4.06366e-06
-4.13143e-06
3.43757e-06
3.69802e-06
-2.22916e-06
3.47939e-06
3.47939e-06
-9.38873e-07
2.97926e-06
1.88621e-06
1.3562e-06
-1.47422e-06
2.41377e-06
-7.87612e-07
2.93685e-06
9.02069e-07
2.97926e-06
1.88621e-06
3.97764e-06
3.42979e-06
3.42978e-06
-1.85641e-05
5.65097e-06
3.16634e-06
-1.53495e-05
6.60936e-06
2.78288e-06
-1.09388e-05
6.33532e-06
2.46305e-06
-7.2501e-06
2.00801e-06
-1.8973e-06
3.16636e-06
5.65096e-06
-1.53495e-05
5.25607e-06
5.25606e-06
-1.26907e-05
6.19396e-06
4.68451e-06
-8.84565e-06
5.99607e-06
4.20942e-06
-5.6799e-06
3.50984e-06
-8.15093e-07
2.7829e-06
6.60935e-06
-1.09388e-05
4.68452e-06
6.19395e-06
-8.84565e-06
5.5528e-06
5.55279e-06
-5.55088e-06
5.44754e-06
5.02406e-06
-2.93854e-06
4.17613e-06
1.55437e-06
2.46307e-06
6.33531e-06
-7.25011e-06
4.20943e-06
5.99607e-06
-5.6799e-06
5.02407e-06
5.44754e-06
-2.93854e-06
4.99757e-06
4.99757e-06
-8.85875e-07
4.18762e-06
3.07114e-06
2.00802e-06
-1.89731e-06
3.50985e-06
-8.15104e-07
4.17614e-06
1.55436e-06
4.18762e-06
3.07114e-06
5.85292e-06
6.3796e-06
6.37958e-06
-3.13159e-05
9.79883e-06
5.55801e-06
-2.43228e-05
1.10998e-05
4.78337e-06
-1.70201e-05
1.01556e-05
4.00922e-06
-1.03118e-05
3.18114e-06
-2.24289e-06
5.55803e-06
9.79881e-06
-2.43228e-05
8.79581e-06
8.7958e-06
-1.91662e-05
1.01312e-05
7.67907e-06
-1.30767e-05
9.44537e-06
6.64253e-06
-7.62741e-06
5.44787e-06
-5.26434e-07
4.78339e-06
1.10998e-05
-1.70201e-05
7.67909e-06
1.01312e-05
-1.30767e-05
8.93149e-06
8.93148e-06
-8.05568e-06
8.4921e-06
7.83183e-06
-3.68843e-06
6.30327e-06
2.99033e-06
4.00924e-06
1.01556e-05
-1.03118e-05
6.64255e-06
9.44537e-06
-7.62743e-06
7.83184e-06
8.49209e-06
-3.68844e-06
7.63019e-06
7.63019e-06
-4.82577e-07
6.05265e-06
5.31835e-06
3.18116e-06
-2.24292e-06
5.44789e-06
-5.2645e-07
6.30328e-06
2.99032e-06
6.05266e-06
5.31835e-06
8.75585e-06
1.00013e-05
1.00012e-05
-5.13061e-05
1.52327e-05
8.77794e-06
-3.83255e-05
1.6834e-05
7.25097e-06
-2.58669e-05
1.49267e-05
5.96531e-06
-1.43639e-05
4.53586e-06
-2.38255e-06
8.77796e-06
1.52327e-05
-3.83255e-05
1.34289e-05
1.34288e-05
-2.8468e-05
1.50989e-05
1.14233e-05
-1.8919e-05
1.36421e-05
9.59455e-06
-9.7999e-06
7.4477e-06
5.08855e-07
7.251e-06
1.6834e-05
-2.58669e-05
1.14233e-05
1.50988e-05
-1.8919e-05
1.30341e-05
1.30341e-05
-1.12772e-05
1.20034e-05
1.11446e-05
-4.2078e-06
8.65302e-06
5.15939e-06
5.96533e-06
1.49267e-05
-1.4364e-05
9.59457e-06
1.36421e-05
-9.79991e-06
1.11446e-05
1.20034e-05
-4.20781e-06
1.03409e-05
1.03409e-05
1.12492e-06
8.347e-06
8.40008e-06
4.53588e-06
-2.38259e-06
7.44772e-06
5.08832e-07
8.65303e-06
5.15938e-06
8.34701e-06
8.40008e-06
1.28903e-05
2.15549e-05
2.15549e-05
-9.44045e-05
2.88467e-05
1.66023e-05
-6.22118e-05
2.98526e-05
1.34672e-05
-4.03346e-05
2.46931e-05
1.00121e-05
-1.92102e-05
7.53027e-06
-1.64049e-06
1.66023e-05
2.88466e-05
-6.22119e-05
2.36554e-05
2.36553e-05
-4.25741e-05
2.55328e-05
1.95835e-05
-2.69127e-05
2.20004e-05
1.54163e-05
-1.16716e-05
1.15282e-05
3.55907e-06
1.34672e-05
2.98526e-05
-4.03347e-05
1.95835e-05
2.55327e-05
-2.69127e-05
2.1521e-05
2.1521e-05
-1.51523e-05
1.8925e-05
1.75975e-05
-3.79298e-06
1.30373e-05
9.61699e-06
1.00122e-05
2.46931e-05
-1.92102e-05
1.54163e-05
2.20003e-05
-1.16716e-05
1.75975e-05
1.8925e-05
-3.79299e-06
1.57098e-05
1.57097e-05
4.90039e-06
1.19309e-05
1.41012e-05
7.53031e-06
-1.64054e-06
1.15282e-05
3.55904e-06
1.30373e-05
9.61698e-06
1.19309e-05
1.41012e-05
1.93855e-05
3.30061e-05
3.30061e-05
-0.000160403
4.55011e-05
2.71596e-05
-0.000101856
4.51839e-05
2.00482e-05
-6.00562e-05
3.60307e-05
1.47764e-05
-2.48224e-05
9.79783e-06
1.24521e-06
2.71596e-05
4.5501e-05
-0.000101856
3.66191e-05
3.66191e-05
-6.14931e-05
3.74858e-05
2.88313e-05
-3.65624e-05
3.0832e-05
2.17265e-05
-1.19679e-05
1.50767e-05
8.87406e-06
2.00482e-05
4.51838e-05
-6.00562e-05
2.88313e-05
3.74858e-05
-3.65625e-05
3.05289e-05
3.05289e-05
-1.85476e-05
2.56953e-05
2.39547e-05
-1.1876e-06
1.71488e-05
1.58671e-05
1.47764e-05
3.60307e-05
-2.48225e-05
2.17266e-05
3.0832e-05
-1.19679e-05
2.39548e-05
2.56953e-05
-1.18762e-06
2.04547e-05
2.04547e-05
1.19005e-05
1.57021e-05
2.17176e-05
9.79788e-06
1.24514e-06
1.50767e-05
8.87403e-06
1.71489e-05
1.58671e-05
1.57021e-05
2.17176e-05
2.82699e-05
8.74797e-05
8.74796e-05
-0.000335341
9.66387e-05
5.42197e-05
-0.000165215
8.41866e-05
4.03537e-05
-8.79471e-05
6.13088e-05
2.50078e-05
-2.69391e-05
1.63332e-05
1.00579e-05
5.42198e-05
9.66387e-05
-0.000165216
6.73019e-05
6.73018e-05
-8.76573e-05
6.44349e-05
5.15765e-05
-4.49182e-05
4.98483e-05
3.54757e-05
-7.84937e-06
2.33578e-05
2.06181e-05
4.03538e-05
8.41865e-05
-8.79472e-05
5.15765e-05
6.44348e-05
-4.49182e-05
5.13288e-05
5.13288e-05
-1.80522e-05
3.99606e-05
3.69464e-05
8.70995e-06
2.53385e-05
2.83984e-05
2.50078e-05
6.13088e-05
-2.69391e-05
3.54758e-05
4.98483e-05
-7.84942e-06
3.69464e-05
3.99606e-05
8.70993e-06
3.04596e-05
3.04596e-05
2.48742e-05
2.17796e-05
3.52454e-05
1.63332e-05
1.00578e-05
2.33578e-05
2.0618e-05
2.53385e-05
2.83984e-05
2.17796e-05
3.52454e-05
4.20376e-05
0.000124547
0.000124547
-0.000584456
0.00015471
9.69531e-05
-0.000292319
0.000128169
5.81395e-05
-0.00011953
8.60623e-05
3.75511e-05
-2.23616e-05
2.02984e-05
2.49814e-05
9.69532e-05
0.00015471
-0.000292319
0.000107787
0.000107786
-0.000109324
9.23803e-05
7.40644e-05
-4.54368e-05
6.56105e-05
4.76542e-05
8.81735e-06
2.93908e-05
3.76269e-05
5.81396e-05
0.000128169
-0.00011953
7.40645e-05
9.23802e-05
-4.54368e-05
6.90092e-05
6.90092e-05
-7.94163e-06
5.09842e-05
4.67452e-05
2.76439e-05
3.12686e-05
4.53965e-05
3.75512e-05
8.60623e-05
-2.23617e-05
4.76543e-05
6.56104e-05
8.81727e-06
4.67453e-05
5.09842e-05
2.76439e-05
3.77177e-05
3.77177e-05
4.29292e-05
2.60912e-05
5.36642e-05
2.02984e-05
2.49813e-05
2.93909e-05
3.76269e-05
3.12687e-05
4.53965e-05
2.60912e-05
5.36642e-05
5.93418e-05
0.00043055
0.00043055
-0.000477492
-0.000351819
-0.000351819
-0.000264337
0.000377434
0.000185524
-0.000424667
0.000238013
0.000118913
-9.89963e-05
0.000143496
5.78477e-05
1.4339e-05
3.31199e-05
6.22754e-05
0.000185524
0.000377434
-0.000424667
0.000197593
0.000197593
-0.000133461
0.000154745
0.000131303
-1.49786e-05
0.000101822
7.20763e-05
4.75118e-05
4.2755e-05
7.19376e-05
0.000118913
0.000238013
-9.89965e-05
0.000131303
0.000154745
-1.49786e-05
0.00010888
0.00010888
3.69027e-05
7.61158e-05
6.85329e-05
6.39519e-05
4.2704e-05
7.73748e-05
5.78478e-05
0.000143496
1.43388e-05
7.20764e-05
0.000101822
4.75117e-05
6.8533e-05
7.61158e-05
6.39519e-05
5.2139e-05
5.21389e-05
7.57172e-05
3.37632e-05
8.21858e-05
3.31201e-05
6.22752e-05
4.27551e-05
7.19375e-05
4.27041e-05
7.73748e-05
3.37633e-05
8.21858e-05
8.39013e-05
0.000125769
0.000125769
-0.000729104
0.000762741
0.000416026
-0.000270058
-9.11321e-05
-0.000144432
-3.24354e-05
-0.000172922
-0.000157465
-0.000421348
-0.000313644
0.000385591
0.000166119
0.000112065
0.000192465
8.19015e-05
0.000125605
3.56721e-05
0.000120728
0.000416026
0.00076274
-0.000270058
-0.000144433
-9.1132e-05
-3.24354e-05
-0.000172922
-0.000157465
-0.000421348
-0.000313644
0.000341261
0.000341261
1.60698e-05
0.000198924
0.000174334
0.000119144
0.000122787
8.94192e-05
0.000116131
4.55284e-05
0.000120505
0.000166119
0.000385591
0.000112065
0.000174334
0.000198924
0.000119144
0.000130466
0.000130466
0.000124639
8.57827e-05
7.57166e-05
0.000122337
4.35143e-05
0.000116718
8.19017e-05
0.000192465
0.000125605
8.94193e-05
0.000122787
0.00011613
7.57168e-05
8.57826e-05
0.000122337
5.49117e-05
5.49116e-05
0.000117327
3.35174e-05
0.000114364
3.56723e-05
0.000120728
4.55286e-05
0.000120505
4.35145e-05
0.000116717
3.35175e-05
0.000114364
0.000109171
0.000444964
0.000143009
0.000143009
-0.000731108
-0.000212842
0.000536583
0.000224307
-0.000209311
-0.000289681
-0.000270601
4.76877e-06
-3.18611e-05
-2.55949e-05
4.32643e-06
0.000501657
0.000234291
0.000526124
-0.000304098
-0.000228118
-0.000345802
-0.000271902
0.000243467
8.85259e-05
0.000295334
4.43081e-05
0.000211315
-0.000212842
0.000224307
0.000536582
-0.000209311
-0.000289681
-0.000270601
4.76878e-06
-3.18611e-05
-2.55949e-05
4.32643e-06
0.000539651
0.00053965
0.000246435
-0.00025173
-0.000127952
-0.000347513
-0.000171416
-0.00025173
-0.000127952
-0.000347513
-0.000171416
0.000169989
0.000169989
0.000147578
0.000301948
0.000236013
0.000355124
0.000157537
0.000108584
0.000240483
5.23365e-05
0.000186542
0.000234292
0.000501657
0.000526123
-0.000304098
-0.000228118
-0.000345802
-0.000271902
0.000236014
0.000301948
0.000355124
0.000163417
0.000163417
0.000269832
9.9302e-05
8.98874e-05
0.000205149
4.7089e-05
0.000168109
8.85262e-05
0.000243467
0.000295333
0.000108584
0.000157537
0.000240483
8.98876e-05
9.93019e-05
0.000205149
6.1453e-05
6.14529e-05
0.000174196
3.4439e-05
0.000151531
4.43084e-05
0.000211314
5.23367e-05
0.000186542
4.70891e-05
0.000168109
3.44391e-05
0.000151531
0.000136962
0.00139772
5.11527e-06
5.11552e-06
-0.00140797
-0.000150577
-0.000334954
0.000284667
2.95038e-05
0.000171391
0.000141012
6.03118e-05
0.000493607
-0.000212432
-0.000145994
0.000129866
5.9824e-05
8.89272e-05
3.52e-05
0.000312324
1.81353e-05
0.000230112
-0.000150577
-0.000334954
2.95038e-05
0.000284667
0.000171391
-8.5123e-05
-8.51231e-05
0.000146848
0.000146848
0.000335685
-5.27288e-05
-3.14451e-05
-2.21759e-05
-5.27289e-05
-3.14451e-05
-2.2176e-05
0.000111389
7.53957e-05
0.000365903
-0.000101549
-6.407e-05
3.31186e-05
-4.75034e-06
6.93743e-05
4.89e-05
0.000268798
2.34481e-05
0.000206495
6.03128e-05
0.000141012
0.000493603
-0.000212431
-0.000145994
0.000129866
5.98241e-05
7.53961e-05
0.000111389
0.000365903
-0.000101549
-6.40699e-05
3.31187e-05
-4.75036e-06
6.51535e-05
6.51533e-05
0.000290317
4.63977e-05
4.41095e-05
0.000228695
2.30613e-05
0.00018679
3.52004e-05
8.89269e-05
0.000312324
4.89002e-05
6.93741e-05
0.000268798
4.41097e-05
4.63975e-05
0.000228695
3.28992e-05
3.28991e-05
0.000196617
1.78831e-05
0.000168112
1.81357e-05
0.000230111
2.34484e-05
0.000206495
2.30616e-05
0.00018679
1.78833e-05
0.000168112
0.000150493
0.00142827
-1.57002e-05
-1.56997e-05
-0.00139694
-9.46064e-05
0.000428942
-0.000574295
-0.000258173
-0.0002488
-0.000105182
-0.000113401
-9.81135e-05
0.000387004
0.000367534
0.000310312
-0.000143986
-8.1282e-05
0.000158196
0.000213314
0.000157577
0.0001174
7.26482e-05
-4.53447e-05
-9.86286e-06
0.00022369
-4.99781e-06
0.000189383
-9.46066e-05
0.000428942
-0.000258176
-0.000574296
-0.000248802
-0.000113401
-0.000105182
-9.81137e-05
0.000387004
0.000367536
0.000310315
-0.000180583
-0.000180586
9.61628e-05
-0.000229087
-0.000154522
-0.000154522
-0.000127461
0.000233921
8.65151e-05
0.000107251
3.76093e-05
0.000233922
8.65168e-05
0.000107251
3.76115e-05
-5.62484e-05
-5.94258e-05
0.000219712
-1.24902e-05
-5.83974e-06
0.000221017
-2.2653e-06
0.000187117
-8.1279e-05
-0.000143986
0.000158189
0.000213316
0.000157577
0.0001174
7.26462e-05
-5.94249e-05
-5.62489e-05
0.000219712
-2.08831e-05
-2.08832e-05
0.000213233
-2.17184e-06
1.51435e-06
0.00020263
1.73917e-06
0.000176144
-9.86268e-06
-4.5345e-05
0.00022369
-5.83962e-06
-1.24907e-05
0.000221017
1.51457e-06
-2.17209e-06
0.00020263
5.50909e-06
5.5089e-06
0.000188628
3.22539e-06
0.000166247
-4.9969e-06
0.000189382
-2.26482e-06
0.000187117
1.73952e-06
0.000176144
3.2256e-06
0.000166247
0.000150815
0.00240953
5.57977e-05
5.5879e-05
-0.000556501
-0.000705304
-0.000629416
-0.000629403
0.000456067
-0.000105743
5.45214e-05
2.26231e-05
-0.000427188
8.21108e-05
4.50255e-05
0.000381883
-3.21287e-05
-1.97922e-05
-0.000186037
-0.000112602
2.80134e-05
4.96276e-06
0.000273017
-1.16509e-06
0.000210579
0.00045608
-0.000105664
2.26074e-05
5.44619e-05
-0.000427217
0.000120923
0.000120913
0.000113569
-3.15474e-05
-1.36491e-05
-0.00017613
-5.1654e-05
-3.15441e-05
-1.36375e-05
-0.000176153
-5.16485e-05
0.000100669
0.00010067
8.53822e-05
3.9616e-05
2.92746e-05
0.000316769
1.04441e-05
4.50209e-06
0.000250649
-5.36254e-06
0.000194262
4.50353e-05
8.21075e-05
0.000381888
-3.21207e-05
-1.98007e-05
-0.000186057
-0.000112604
2.92773e-05
3.9615e-05
0.000316768
4.79884e-06
4.79901e-06
0.000262187
-2.58659e-06
-2.41432e-06
0.000216932
-8.30525e-06
0.00017823
4.96244e-06
2.80144e-05
0.000273016
4.50186e-06
1.04432e-05
0.000250649
-2.41413e-06
-2.5869e-06
0.000216932
-4.10053e-06
-4.1007e-06
0.000192001
-7.80833e-06
0.000162939
-1.16381e-06
0.000210579
-5.3619e-06
0.000194262
-8.3049e-06
0.00017823
-7.80812e-06
0.000162939
0.000146009
0.0013463
4.40439e-05
4.40434e-05
-0.00143441
5.39502e-05
-0.000442472
0.000261551
6.46999e-05
6.2329e-05
4.75531e-05
4.44507e-05
0.00063828
-0.000188397
-0.000153484
-2.57437e-05
1.9978e-05
-2.83915e-06
-5.79396e-06
0.000329442
-3.70352e-06
0.000234682
5.39427e-05
-0.000442472
6.46993e-05
0.00026155
6.23356e-05
-0.000265069
-0.000265075
0.000162803
0.000162801
0.000318109
-3.00623e-05
9.23459e-06
0.000419837
-6.98285e-05
-3.01412e-05
2.55719e-05