FoamFile
{version 2.0; format ascii;class Cloud<passiveParticle>; location 0;object  positions;}
1
(
( 0.0499944 0.00718709 0.0499944 ) 0 
)
