/*--------------------------------*- C++ -*----------------------------------*\
| =========                 |                                                 |
| \\      /  F ield         | OpenFOAM: The Open Source CFD Toolbox           |
|  \\    /   O peration     | Version:  5.x                                   |
|   \\  /    A nd           | Web:      www.OpenFOAM.org                      |
|    \\/     M anipulation  |                                                 |
\*---------------------------------------------------------------------------*/
FoamFile
{
    version     2.0;
    format      ascii;
    class       surfaceScalarField;
    location    "0.021";
    object      phi;
}
// * * * * * * * * * * * * * * * * * * * * * * * * * * * * * * * * * * * * * //

dimensions      [0 3 -1 0 0 0 0];

internalField   nonuniform List<scalar> 
4381
(
3.4448e-09
-1.22271e-08
-1.4228e-09
7.45281e-09
-1.22173e-08
-1.71826e-09
9.09462e-09
-1.20517e-08
6.16227e-10
1.13764e-08
-1.2014e-08
-3.09213e-11
-1.18121e-08
4.3814e-09
3.53325e-09
-9.89375e-09
-6.16168e-09
7.60698e-09
-9.88513e-09
-6.40734e-09
9.27794e-09
-9.74342e-09
-3.98191e-09
1.15739e-08
-9.71205e-09
-4.60076e-09
-9.52906e-09
-8.324e-11
3.54155e-09
-8.22112e-09
-5.52288e-09
7.64086e-09
-8.20414e-09
-5.78062e-09
9.31463e-09
-8.07647e-09
-3.34294e-09
1.16184e-08
-8.04376e-09
-3.97445e-09
-7.8895e-09
5.67338e-10
3.62545e-09
-4.06512e-09
-8.05258e-09
7.76423e-09
-4.05236e-09
-8.28811e-09
9.4469e-09
-3.95345e-09
-5.80637e-09
1.17651e-08
-3.93378e-09
-6.42957e-09
-3.81864e-09
-1.8346e-09
3.63794e-09
-7.7784e-09
7.79073e-09
-8.03046e-09
9.47469e-09
-5.54132e-09
1.17989e-08
-6.17515e-09
-1.56498e-09
2.42512e-09
-7.73088e-09
-3.5816e-09
5.4356e-09
-7.59635e-09
-3.07033e-09
7.02821e-09
-7.44242e-09
6.56737e-10
7.10908e-09
-7.38407e-09
1.51085e-09
-7.26777e-09
7.53452e-09
2.72428e-09
-7.80086e-09
-9.75706e-09
5.63269e-09
-7.66735e-09
-9.24742e-09
7.18327e-09
-7.52225e-09
-5.45578e-09
7.23472e-09
-7.46253e-09
-4.577e-09
-7.3535e-09
1.57645e-09
2.84626e-09
-6.35129e-09
-1.05635e-08
5.70656e-09
-6.23702e-09
-1.00734e-08
7.23763e-09
-6.11618e-09
-6.28283e-09
7.27364e-09
-6.06405e-09
-5.41153e-09
-5.9697e-09
7.68203e-10
3.03477e-09
-3.61905e-09
-1.4279e-08
5.83925e-09
-3.52609e-09
-1.38025e-08
7.34493e-09
-3.43874e-09
-9.99037e-09
7.36437e-09
-3.39699e-09
-9.11727e-09
-3.33821e-09
-2.86245e-09
3.13004e-09
-1.4666e-08
5.90219e-09
-1.42102e-08
7.39032e-09
-1.0408e-08
7.39552e-09
-9.54657e-09
-3.28082e-09
4.79834e-09
-1.40884e-08
-6.21245e-09
9.45507e-09
-1.40833e-08
-5.4751e-09
1.16786e-08
-1.39297e-08
6.69983e-10
1.34348e-08
-1.38909e-08
1.99257e-09
-1.36572e-08
1.19404e-08
4.87468e-09
-1.22344e-08
-1.65833e-08
9.61318e-09
-1.22409e-08
-1.58302e-08
1.18813e-08
-1.21169e-08
-9.53871e-09
1.36651e-08
-1.2093e-08
-8.16073e-09
-1.18839e-08
2.04293e-09
4.8706e-09
-9.90239e-09
-1.78767e-08
9.62496e-09
-9.91743e-09
-1.71532e-08
1.19098e-08
-9.82288e-09
-1.08635e-08
1.37114e-08
-9.8126e-09
-9.49508e-09
-9.63964e-09
7.64372e-10
4.91664e-09
-5.09305e-09
-2.41063e-08
9.71292e-09
-5.10375e-09
-2.34127e-08
1.20321e-08
-5.04121e-09
-1.7092e-08
1.38629e-08
-5.03851e-09
-1.5723e-08
-4.92893e-09
-5.31665e-09
4.90848e-09
-2.46984e-08
9.71069e-09
-2.40441e-08
1.2044e-08
-1.77521e-08
1.38913e-08
-1.64077e-08
-5.97871e-09
5.38261e-09
-1.70773e-08
-9.86876e-09
1.12163e-08
-1.69655e-08
-8.54694e-09
1.41599e-08
-1.66911e-08
4.55252e-10
1.6058e-08
-1.65954e-08
2.81403e-09
-1.62513e-08
1.72167e-08
5.70723e-09
-1.51283e-08
-2.49318e-08
1.15475e-08
-1.50501e-08
-2.35865e-08
1.45061e-08
-1.48386e-08
-1.43503e-08
1.64098e-08
-1.47731e-08
-1.18872e-08
-1.44695e-08
2.95041e-09
5.76025e-09
-1.2103e-08
-2.72553e-08
1.15855e-08
-1.20668e-08
-2.59627e-08
1.45659e-08
-1.19387e-08
-1.67442e-08
1.64895e-08
-1.19106e-08
-1.42814e-08
-1.16697e-08
6.62676e-10
5.92131e-09
-6.36504e-09
-3.6128e-08
1.17245e-08
-6.32575e-09
-3.49575e-08
1.47476e-08
-6.24462e-09
-2.5809e-08
1.67053e-08
-6.22921e-09
-2.3362e-08
-6.08965e-09
-8.17085e-09
5.95745e-09
-3.71384e-08
1.17273e-08
-3.60421e-08
1.47713e-08
-2.70052e-08
1.67502e-08
-2.4604e-08
-9.37879e-09
8.92155e-09
-2.53167e-08
-1.48583e-08
1.72546e-08
-2.52869e-08
-1.29082e-08
2.13102e-08
-2.49738e-08
3.42923e-10
2.42577e-08
-2.48517e-08
3.78699e-09
-2.43039e-08
2.48669e-08
9.09574e-09
-2.19983e-08
-3.7358e-08
1.76034e-08
-2.20407e-08
-3.53395e-08
2.17832e-08
-2.18588e-08
-2.16438e-08
2.48036e-08
-2.17986e-08
-1.79593e-08
-2.13223e-08
3.92902e-09
9.04689e-09
-1.7325e-08
-4.09932e-08
1.75673e-08
-1.74935e-08
-3.90295e-08
2.18461e-08
-1.75581e-08
-2.53222e-08
2.49301e-08
-1.75939e-08
-2.15688e-08
-1.72375e-08
5.62019e-10
8.97677e-09
-8.885e-09
-5.35503e-08
1.74991e-08
-8.96475e-09
-5.20078e-08
2.20273e-08
-9.02083e-09
-3.88728e-08
2.52417e-08
-9.06337e-09
-3.51056e-08
-8.87592e-09
-1.25188e-08
8.89786e-09
-5.49164e-08
1.73463e-08
-5.3465e-08
2.19982e-08
-4.07251e-08
2.52839e-08
-3.7006e-08
-1.43393e-08
1.20971e-08
-3.57324e-08
-2.1808e-08
2.37877e-08
-3.56018e-08
-1.88977e-08
2.95181e-08
-3.49997e-08
2.18929e-10
3.36217e-08
-3.46913e-08
5.16622e-09
-3.36775e-08
3.5281e-08
1.25282e-08
-3.10725e-08
-5.49002e-08
2.44805e-08
-3.10701e-08
-5.18206e-08
3.04302e-08
-3.07129e-08
-3.18771e-08
3.46403e-08
-3.05039e-08
-2.63536e-08
-2.96178e-08
5.36877e-09
1.25011e-08
-2.33461e-08
-6.15248e-08
2.44608e-08
-2.38795e-08
-5.81767e-08
3.06351e-08
-2.45679e-08
-3.76381e-08
3.49389e-08
-2.45904e-08
-3.17832e-08
-2.39509e-08
5.17779e-10
1.21538e-08
-1.22277e-08
-7.70086e-08
2.37791e-08
-1.23152e-08
-7.51947e-08
3.09764e-08
-1.26804e-08
-5.79539e-08
3.55062e-08
-1.27203e-08
-5.15028e-08
-1.23916e-08
-1.83625e-08
1.20633e-08
-7.92555e-08
2.32577e-08
-7.69413e-08
3.09556e-08
-6.11504e-08
3.56012e-08
-5.44396e-08
-2.11255e-08
1.83247e-08
-5.23329e-08
-3.12132e-08
3.50945e-08
-5.21377e-08
-2.69389e-08
4.29373e-08
-5.11519e-08
8.63113e-10
4.86288e-08
-5.04152e-08
7.50451e-09
-4.84757e-08
4.98738e-08
1.88849e-08
-4.64361e-08
-7.95177e-08
3.61974e-08
-4.61299e-08
-7.51365e-08
4.46052e-08
-4.50309e-08
-4.64015e-08
5.05677e-08
-4.43889e-08
-3.83383e-08
-4.2719e-08
7.72788e-09
1.9167e-08
-3.91094e-08
-8.78509e-08
3.67433e-08
-3.83204e-08
-8.35576e-08
4.52484e-08
-3.64734e-08
-5.46959e-08
5.13076e-08
-3.59273e-08
-4.63001e-08
-3.48201e-08
1.19395e-09
2.01793e-08
-2.00897e-08
-1.16002e-07
3.85895e-08
-1.98483e-08
-1.12073e-07
4.63465e-08
-1.88655e-08
-8.33141e-08
5.22946e-08
-1.85893e-08
-7.4785e-08
-1.80302e-08
-2.63314e-08
2.04203e-08
-1.19709e-07
3.93524e-08
-1.15884e-07
4.66504e-08
-8.74704e-08
5.24925e-08
-7.90237e-08
-3.04542e-08
2.60812e-08
-7.6051e-08
-4.41251e-08
5.03068e-08
-7.58161e-08
-3.78508e-08
6.04145e-08
-7.44586e-08
4.01532e-09
6.80829e-08
-7.25173e-08
1.16313e-08
-6.78892e-08
6.83283e-08
2.69767e-08
-6.70635e-08
-1.15488e-07
5.18865e-08
-6.66323e-08
-1.09225e-07
6.39848e-08
-6.49563e-08
-6.79973e-08
7.27139e-08
-6.3736e-08
-5.58441e-08
-6.01735e-08
1.18903e-08
2.73544e-08
-5.44581e-08
-1.27791e-07
5.25964e-08
-5.38992e-08
-1.21527e-07
6.52024e-08
-5.23178e-08
-7.99356e-08
7.46562e-08
-5.16047e-08
-6.7881e-08
-5.00318e-08
4.40181e-09
2.8305e-08
-2.83189e-08
-1.70321e-07
5.41836e-08
-2.80009e-08
-1.63846e-07
6.68761e-08
-2.70897e-08
-1.2123e-07
7.60176e-08
-2.67243e-08
-1.08803e-07
-2.5879e-08
-3.70594e-08
2.86201e-08
-1.76618e-07
5.47181e-08
-1.70163e-07
6.72891e-08
-1.27328e-07
7.62353e-08
-1.14895e-07
-4.31623e-08
3.81567e-08
-1.13192e-07
-5.98071e-08
7.18825e-08
-1.1317e-07
-4.91115e-08
8.779e-08
-1.09546e-07
9.02886e-09
9.5411e-08
-1.06753e-07
2.29563e-08
-9.49896e-08
8.94296e-08
3.91782e-08
-9.69953e-08
-1.70466e-07
7.58726e-08
-9.64655e-08
-1.62619e-07
9.31865e-08
-9.4055e-08
-1.00798e-07
1.07175e-07
-9.26669e-08
-8.39143e-08
-8.7268e-08
2.32701e-08
3.96557e-08
-7.87075e-08
-1.85351e-07
7.68191e-08
-7.81095e-08
-1.77043e-07
9.45749e-08
-7.62101e-08
-1.15532e-07
1.09972e-07
-7.52534e-08
-1.00687e-07
-7.11722e-08
9.38788e-09
4.08054e-08
-4.0493e-08
-2.48966e-07
7.87212e-08
-4.01511e-08
-2.39718e-07
9.69972e-08
-3.90099e-08
-1.76704e-07
1.13688e-07
-3.85348e-08
-1.62208e-07
-3.75148e-08
-4.79951e-08
4.11474e-08
-2.58213e-07
7.93181e-08
-2.48803e-07
9.75279e-08
-1.8485e-07
1.13714e-07
-1.69907e-07
-5.86541e-08
5.09889e-08
-1.50694e-07
-9.13165e-08
1.00468e-07
-1.49276e-07
-8.0193e-08
1.24356e-07
-1.47088e-07
4.92761e-09
1.41876e-07
-1.4701e-07
2.64406e-08
-1.41325e-07
1.31666e-07
5.41825e-08
-1.36167e-07
-2.3877e-07
1.03361e-07
-1.34667e-07
-2.26403e-07
1.28991e-07
-1.2987e-07
-1.43641e-07
1.47564e-07
-1.28353e-07
-1.21139e-07
-1.2375e-07
2.68708e-08
5.55866e-08
-1.13354e-07
-2.63338e-07
1.05768e-07
-1.11278e-07
-2.50612e-07
1.30507e-07
-1.05022e-07
-1.65116e-07
1.47616e-07
-1.02638e-07
-1.43506e-07
-9.98558e-08
5.43201e-09
5.86343e-08
-5.88047e-08
-3.61718e-07
1.12031e-07
-5.78197e-08
-3.46575e-07
1.35285e-07
-5.48006e-08
-2.50178e-07
1.49704e-07
-5.34208e-08
-2.2584e-07
-5.02791e-08
-7.91147e-08
5.96168e-08
-3.76615e-07
1.14091e-07
-3.61513e-07
1.36764e-07
-2.62719e-07
1.51087e-07
-2.38031e-07
-9.01235e-08
7.38331e-08
-2.23499e-07
-1.33121e-07
1.37967e-07
-2.19523e-07
-1.1572e-07
1.81983e-07
-2.06469e-07
-1.75878e-08
2.10736e-07
-2.07382e-07
2.25563e-08
-2.09933e-07
2.05803e-07
8.06168e-08
-2.05216e-07
-3.36967e-07
1.52395e-07
-2.01711e-07
-3.15991e-07
1.88366e-07
-1.90764e-07
-1.95312e-07
2.08187e-07
-1.87456e-07
-1.6088e-07
-1.81132e-07
2.31918e-08
8.43855e-08
-1.84957e-07
-3.67287e-07
1.60365e-07
-1.79096e-07
-3.49207e-07
1.91675e-07
-1.59277e-07
-2.27911e-07
2.07219e-07
-1.51338e-07
-1.95163e-07
-1.37039e-07
-1.69575e-08
9.19765e-08
-9.30311e-08
-5.44931e-07
1.80177e-07
-9.07887e-08
-5.23086e-07
2.02591e-07
-8.32251e-08
-3.48643e-07
2.20156e-07
-7.94946e-08
-3.15245e-07
-7.27762e-08
-1.1468e-07
9.42095e-08
-5.63801e-07
1.86006e-07
-5.44677e-07
2.06063e-07
-3.66522e-07
2.24079e-07
-3.36028e-07
-1.31958e-07
1.11704e-07
-3.35417e-07
-1.85957e-07
2.14184e-07
-3.28037e-07
-1.65261e-07
2.60233e-07
-3.12022e-07
-1.63766e-08
2.90585e-07
-3.07526e-07
3.84947e-08
-2.89547e-07
2.94833e-07
1.24531e-07
-3.05767e-07
-4.90197e-07
2.33974e-07
-3.01005e-07
-4.52466e-07
2.77221e-07
-2.82807e-07
-2.67772e-07
3.0857e-07
-2.75956e-07
-2.23793e-07
-2.58958e-07
3.9152e-08
1.28344e-07
-2.48993e-07
-5.51466e-07
2.45604e-07
-2.48513e-07
-5.18959e-07
2.84058e-07
-2.44088e-07
-3.05082e-07
3.13079e-07
-2.32456e-07
-2.67681e-07
-2.12846e-07
-1.55273e-08
1.32706e-07
-1.32466e-07
-7.93264e-07
2.5006e-07
-1.31109e-07
-7.57845e-07
3.02244e-07
-1.26791e-07
-5.18122e-07
3.28921e-07
-1.23027e-07
-4.5135e-07
-1.10335e-07
-1.6413e-07
1.34062e-07
-8.30244e-07
2.50531e-07
-7.93011e-07
3.06934e-07
-5.50437e-07
3.36165e-07
-4.88979e-07
-1.84941e-07
1.66006e-07
-4.79812e-07
-2.75176e-07
3.19371e-07
-4.70183e-07
-2.50327e-07
3.83927e-07
-4.46636e-07
-2.10729e-08
4.2773e-07
-4.41597e-07
5.73585e-08
-4.26434e-07
4.47124e-07
1.80673e-07
-4.56477e-07
-6.93032e-07
3.44705e-07
-4.44392e-07
-6.4229e-07
4.09402e-07
-4.20197e-07
-3.58908e-07
4.42907e-07
-4.07881e-07
-2.91013e-07
-3.8249e-07
5.8207e-08
1.89519e-07
-3.82618e-07
-8.13635e-07
3.49761e-07
-3.76858e-07
-7.46735e-07
4.21691e-07
-3.47968e-07
-4.4924e-07
4.47862e-07
-3.43006e-07
-3.58727e-07
-3.17742e-07
-2.01653e-08
2.01877e-07
-2.02062e-07
-1.17452e-06
3.78672e-07
-1.99886e-07
-1.11161e-06
4.45802e-07
-1.87509e-07
-7.45712e-07
4.71303e-07
-1.78826e-07
-6.41033e-07
-1.64516e-07
-2.48929e-07
2.04064e-07
-1.23622e-06
3.84445e-07
-1.17418e-06
4.5773e-07
-8.12057e-07
4.80581e-07
-6.91397e-07
-2.74592e-07
2.2196e-07
-7.18833e-07
-3.5703e-07
4.41056e-07
-6.96108e-07
-3.48977e-07
5.44676e-07
-6.52462e-07
-2.31892e-08
5.89452e-07
-6.44063e-07
1.13466e-07
-5.87523e-07
6.21687e-07
2.56078e-07
-6.28876e-07
-1.03746e-06
4.91837e-07
-6.24634e-07
-9.49527e-07
5.85411e-07
-5.91677e-07
-5.13269e-07
6.46004e-07
-5.83291e-07
-4.1238e-07
-5.42727e-07
1.14822e-07
2.57467e-07
-5.00947e-07
-1.19748e-06
5.01044e-07
-5.03024e-07
-1.11192e-06
5.93722e-07
-4.98582e-07
-6.35015e-07
6.54193e-07
-4.89435e-07
-5.13058e-07
-4.39069e-07
-2.19779e-08
2.64958e-07
-2.61466e-07
-1.67745e-06
5.05521e-07
-2.62376e-07
-1.59282e-06
6.26666e-07
-2.54988e-07
-1.11045e-06
6.97429e-07
-2.53587e-07
-9.47648e-07
-2.19369e-07
-3.48259e-07
2.64032e-07
-1.76158e-06
5.03373e-07
-1.67706e-06
6.3092e-07
-1.19569e-06
7.20289e-07
-1.03537e-06
-3.56234e-07
3.09635e-07
-9.58207e-07
-5.36669e-07
6.02057e-07
-9.46263e-07
-5.17311e-07
7.52816e-07
-9.08827e-07
-5.71668e-08
8.77637e-07
-8.94896e-07
1.06811e-07
-8.75588e-07
9.26652e-07
3.36424e-07
-8.45529e-07
-1.48467e-06
6.479e-07
-8.40708e-07
-1.36656e-06
8.05288e-07
-8.13366e-07
-7.66121e-07
8.96941e-07
-8.0287e-07
-5.96063e-07
-7.50346e-07
1.08193e-07
3.38099e-07
-6.65989e-07
-1.71331e-06
6.44251e-07
-6.63287e-07
-1.5955e-06
8.15763e-07
-6.415e-07
-9.78397e-07
9.10903e-07
-6.4513e-07
-7.65941e-07
-5.99121e-07
-5.59259e-08
3.51036e-07
-3.49832e-07
-2.34294e-06
6.65973e-07
-3.48204e-07
-2.22285e-06
8.43112e-07
-3.35234e-07
-1.59386e-06
9.48568e-07
-3.33622e-07
-1.36462e-06
-3.07478e-07
-5.1511e-07
3.52614e-07
-2.46386e-06
6.68588e-07
-2.34248e-06
8.47802e-07
-1.71126e-06
9.59919e-07
-1.48213e-06
-5.36326e-07
4.45951e-07
-1.42851e-06
-7.65913e-07
8.1925e-07
-1.41823e-06
-6.74112e-07
1.05704e-06
-1.33438e-06
-1.06884e-07
1.16614e-06
-1.30635e-06
1.83204e-07
-1.16292e-06
1.21666e-06
4.82864e-07
-1.23486e-06
-2.15861e-06
9.18066e-07
-1.22522e-06
-1.99477e-06
1.16115e-06
-1.16846e-06
-1.17512e-06
1.30962e-06
-1.15766e-06
-8.93234e-07
-1.05375e-06
1.85412e-07
4.88039e-07
-9.70022e-07
-2.46377e-06
9.25818e-07
-9.62896e-07
-2.2956e-06
1.1719e-06
-9.2201e-07
-1.47093e-06
1.33745e-06
-9.14153e-07
-1.17499e-06
-8.15402e-07
-1.0547e-07
5.11801e-07
-5.12343e-07
-3.31014e-06
9.66694e-07
-5.07925e-07
-3.13271e-06
1.22867e-06
-4.84149e-07
-2.2937e-06
1.4212e-06
-4.78753e-07
-1.99255e-06
-4.40956e-07
-6.72492e-07
5.16141e-07
-3.49215e-06
9.73717e-07
-3.30972e-06
1.23828e-06
-2.46159e-06
1.43205e-06
-2.15621e-06
-7.63756e-07
6.45447e-07
-1.98473e-06
-1.15905e-06
1.19852e-06
-1.95882e-06
-9.78204e-07
1.53248e-06
-1.86583e-06
-2.14021e-07
1.73341e-06
-1.84032e-06
2.1959e-07
-1.73e-06
1.71877e-06
7.01552e-07
-1.79657e-06
-3.04536e-06
1.3032e-06
-1.76878e-06
-2.78647e-06
1.65392e-06
-1.6822e-06
-1.70948e-06
1.84374e-06
-1.65025e-06
-1.27313e-06
-1.52891e-06
2.22529e-07
7.21216e-07
-1.4278e-06
-3.55098e-06
1.33586e-06
-1.40387e-06
-3.27515e-06
1.68581e-06
-1.3319e-06
-2.17118e-06
1.86911e-06
-1.29909e-06
-1.70945e-06
-1.19432e-06
-2.1246e-07
7.62306e-07
-7.73452e-07
-4.72427e-06
1.40785e-06
-7.58229e-07
-4.42391e-06
1.7724e-06
-7.17126e-07
-3.27301e-06
1.96213e-06
-6.97294e-07
-2.78408e-06
-6.41162e-07
-9.75878e-07
7.77448e-07
-5.04271e-06
1.43168e-06
-4.72395e-06
1.80009e-06
-3.54865e-06
1.98791e-06
-3.04276e-06
-1.15621e-06
9.37271e-07
-2.9664e-06
-1.68178e-06
1.73984e-06
-2.92604e-06
-1.36443e-06
2.16743e-06
-2.77818e-06
-2.42102e-07
2.34708e-06
-2.70251e-06
4.46577e-07
-2.3425e-06
2.28449e-06
1.03671e-06
-2.68646e-06
-4.35799e-06
1.92421e-06
-2.63598e-06
-3.96401e-06
2.41999e-06
-2.48409e-06
-2.49936e-06
2.70717e-06
-2.41468e-06
-1.84814e-06
-2.16196e-06
4.49388e-07
1.07173e-06
-2.14597e-06
-5.1594e-06
1.98027e-06
-2.10102e-06
-4.71866e-06
2.48927e-06
-1.97453e-06
-3.18973e-06
2.78289e-06
-1.91823e-06
-2.49952e-06
-1.73336e-06
-2.40602e-07
1.14826e-06
-1.17011e-06
-6.84481e-06
2.10684e-06
-1.14241e-06
-6.34111e-06
2.64136e-06
-1.06592e-06
-4.71614e-06
2.9313e-06
-1.03074e-06
-3.96151e-06
-9.3123e-07
-1.36036e-06
1.17586e-06
-7.38829e-06
2.15163e-06
-6.8448e-06
2.69164e-06
-5.15704e-06
2.97141e-06
-4.35561e-06
-1.6781e-06
1.36883e-06
-4.36442e-06
-2.40101e-06
2.50129e-06
-4.24927e-06
-1.88121e-06
3.20387e-06
-3.95223e-06
-3.95738e-07
3.50444e-06
-3.83944e-06
7.03273e-07
-3.49965e-06
3.33994e-06
1.57378e-06
-4.13867e-06
-6.15298e-06
2.85216e-06
-4.00977e-06
-5.4819e-06
3.55922e-06
-3.71577e-06
-3.44288e-06
3.84422e-06
-3.55403e-06
-2.41854e-06
-3.19876e-06
7.06617e-07
1.67531e-06
-3.37137e-06
-7.59766e-06
3.01015e-06
-3.25468e-06
-6.80859e-06
3.72085e-06
-3.00443e-06
-4.61178e-06
3.95685e-06
-2.84632e-06
-3.44323e-06
-2.49558e-06
-3.94065e-07
1.82327e-06
-1.89411e-06
-1.01415e-05
3.26049e-06
-1.81742e-06
-9.2156e-06
4.01493e-06
-1.6695e-06
-6.80551e-06
4.25393e-06
-1.56783e-06
-5.47901e-06
-1.36279e-06
-1.87665e-06
1.89993e-06
-1.11816e-05
3.37714e-06
-1.01419e-05
4.14379e-06
-7.59509e-06
4.36904e-06
-6.15048e-06
-2.39661e-06
1.97408e-06
-6.42983e-06
-3.35342e-06
3.63792e-06
-6.24336e-06
-2.55526e-06
4.40551e-06
-5.84805e-06
-2.24818e-07
4.75523e-06
-5.53415e-06
1.23945e-06
-4.74802e-06
4.67602e-06
2.29992e-06
-6.11871e-06
-8.7576e-06
4.14845e-06
-5.90233e-06
-7.67147e-06
5.13665e-06
-5.42835e-06
-4.85079e-06
5.54147e-06
-5.12861e-06
-3.22891e-06
-4.39743e-06
1.24288e-06
2.45929e-06
-5.00384e-06
-1.11657e-05
4.40375e-06
-4.80743e-06
-9.84795e-06
5.43618e-06
-4.39504e-06
-6.67752e-06
5.85529e-06
-4.13954e-06
-4.8514e-06
-3.62863e-06
-2.23271e-07
2.71946e-06
-2.82908e-06
-1.50299e-05
4.81637e-06
-2.71044e-06
-1.34095e-05
5.91045e-06
-2.45044e-06
-9.84419e-06
6.25115e-06
-2.29093e-06
-7.66833e-06
-1.96512e-06
-2.549e-06
2.83793e-06
-1.68479e-05
5.01249e-06
-1.5031e-05
6.12643e-06
-1.11632e-05
6.43712e-06
-8.75559e-06
-3.34866e-06
2.99161e-06
-9.93943e-06
-4.46935e-06
5.31501e-06
-9.49429e-06
-3.1598e-06
6.74575e-06
-8.6086e-06
-1.64238e-07
7.02356e-06
-8.17273e-06
2.39752e-06
-7.01663e-06
7.11697e-06
3.645e-06
-9.87982e-06
-1.24553e-05
6.38353e-06
-9.35603e-06
-1.05483e-05
7.84452e-06
-8.47074e-06
-6.44964e-06
8.17961e-06
-7.83744e-06
-3.89929e-06
-6.73869e-06
2.40182e-06
4.05928e-06
-8.20931e-06
-1.68887e-05
6.98356e-06
-7.72143e-06
-1.44068e-05
8.47786e-06
-6.97544e-06
-9.66711e-06
8.61527e-06
-6.37551e-06
-6.45072e-06
-5.30754e-06
-1.62358e-07
4.5337e-06
-4.88568e-06
-2.28817e-05
7.72949e-06
-4.52557e-06
-1.98012e-05
9.36298e-06
-4.05109e-06
-1.4402e-05
9.50058e-06
-3.63686e-06
-1.05446e-05
-2.98336e-06
-3.15394e-06
4.89392e-06
-2.66258e-05
8.21741e-06
-2.28832e-05
9.88684e-06
-1.68855e-05
9.94579e-06
-1.2453e-05
-4.46428e-06
4.20585e-06
-1.43546e-05
-5.9175e-06
7.5391e-06
-1.36172e-05
-3.88982e-06
8.92757e-06
-1.24112e-05
7.95044e-07
9.4367e-06
-1.13084e-05
3.9585e-06
-9.42519e-06
1.02336e-05
5.26666e-06
-1.4491e-05
-1.75753e-05
9.1055e-06
-1.36096e-05
-1.43947e-05
1.10184e-05
-1.21321e-05
-8.64163e-06
1.13201e-05
-1.10059e-05
-4.50344e-06
-8.91511e-06
3.96342e-06
5.89184e-06
-1.22358e-05
-2.50259e-05
1.00889e-05
-1.13914e-05
-2.08221e-05
1.21441e-05
-1.00756e-05
-1.37788e-05
1.24225e-05
-9.0919e-06
-8.64322e-06
-7.52514e-06
7.97094e-07
6.81818e-06
-7.32738e-06
-3.4599e-05
1.14051e-05
-6.80406e-06
-2.89754e-05
1.36221e-05
-5.87808e-06
-2.08165e-05
1.36293e-05
-5.25275e-06
-1.4391e-05
-4.19182e-06
-3.88222e-06
7.34101e-06
-4.1293e-05
1.22487e-05
-3.46012e-05
1.45024e-05
-2.50228e-05
1.43655e-05
-1.75742e-05
-5.91292e-06
6.74741e-06
-2.27651e-05
-7.32714e-06
1.15825e-05
-2.11157e-05
-4.03671e-06
1.40818e-05
-1.89072e-05
2.44111e-06
1.38963e-05
-1.72642e-05
7.87952e-06
-1.38866e-05
1.59679e-05
8.64779e-06
-2.44433e-05
-2.45346e-05
1.43366e-05
-2.22208e-05
-1.89784e-05
1.72546e-05
-1.96083e-05
-1.08585e-05
1.72739e-05
-1.7245e-05
-4.54192e-06
-1.40722e-05
7.88569e-06
1.04202e-05
-2.12996e-05
-3.85793e-05
1.6641e-05
-1.90084e-05
-3.02553e-05
1.96181e-05
-1.66299e-05
-1.97343e-05
1.89165e-05
-1.43261e-05
-1.08605e-05
-1.15727e-05
2.44363e-06
1.20862e-05
-1.39966e-05
-5.39802e-05
1.90189e-05
-1.20754e-05
-4.28412e-05
2.22297e-05
-1.0409e-05
-3.02481e-05
2.11232e-05
-8.63703e-06
-1.89736e-05
-6.73643e-06
-4.03144e-06
1.40081e-05
-6.92936e-05
2.13106e-05
-5.39828e-05
2.44527e-05
-3.85748e-05
2.27729e-05
-2.45323e-05
-7.3235e-06
8.96452e-06
-3.3023e-05
-8.48882e-06
1.5336e-05
-3.00638e-05
-3.33246e-06
1.79354e-05
-2.63714e-05
5.75377e-06
1.79721e-05
-2.28753e-05
1.28589e-05
-1.79542e-05
2.27692e-05
1.24953e-05
-3.61753e-05
-3.38612e-05
2.01724e-05
-3.23776e-05
-2.43416e-05
2.3638e-05
-2.7643e-05
-1.30525e-05
2.28934e-05
-2.36186e-05
-3.05395e-06
-1.79152e-05
1.28659e-05
1.50258e-05
-3.24914e-05
-5.72732e-05
2.40063e-05
-2.85409e-05
-4.30724e-05
2.76616e-05
-2.39861e-05
-2.70465e-05
2.63893e-05
-2.01518e-05
-1.30551e-05
-1.53147e-05
5.75868e-06
1.87645e-05
-2.12411e-05
-8.39799e-05
2.85621e-05
-1.8742e-05
-6.24378e-05
3.2397e-05
-1.50045e-05
-4.30646e-05
3.00829e-05
-1.24739e-05
-2.43372e-05
-8.94228e-06
-3.32468e-06
2.12618e-05
-0.000111794
3.25103e-05
-8.39819e-05
3.61914e-05
-5.72682e-05
3.30386e-05
-3.38605e-05
-8.486e-06
1.53704e-05
-5.32297e-05
-7.97313e-06
2.49052e-05
-4.68238e-05
2.17432e-08
2.8367e-05
-4.09131e-05
1.35426e-05
2.64263e-05
-3.48441e-05
2.3818e-05
-2.64132e-05
3.56367e-05
2.10567e-05
-6.39688e-05
-4.4165e-05
3.2276e-05
-5.41241e-05
-2.82607e-05
3.72299e-05
-4.59479e-05
-1.29716e-05
3.48573e-05
-3.72167e-05
1.69123e-06
-2.83529e-05
2.38261e-05
2.89254e-05
-6.15373e-05
-8.86142e-05
4.14357e-05
-4.97389e-05
-5.99678e-05
4.59619e-05
-4.142e-05
-3.61006e-05
4.0926e-05
-3.22618e-05
-1.29742e-05
-2.48904e-05
1.35484e-05
3.55133e-05
-4.68898e-05
-0.00013413
4.97526e-05
-3.54989e-05
-9.09172e-05
5.41353e-05
-2.89093e-05
-5.99579e-05
4.68328e-05
-2.10429e-05
-2.82536e-05
-1.53579e-05
2.9051e-08
4.69084e-05
-0.000205583
6.15529e-05
-0.000134129
6.39811e-05
-8.86049e-05
5.32369e-05
-4.41584e-05
-7.97539e-06
1.91919e-05
-7.80814e-05
-4.03678e-06
2.9615e-05
-6.64139e-05
9.54964e-06
3.40208e-05
-5.50392e-05
2.39117e-05
3.21159e-05
-4.34407e-05
3.67307e-05
-3.20897e-05
4.92611e-05
3.0867e-05
-9.60551e-05
-5.7034e-05
4.47764e-05
-7.88963e-05
-2.96876e-05
4.97377e-05
-6.35494e-05
-9.42262e-06
4.34671e-05
-4.97066e-05
1.42277e-05
-3.39893e-05
3.67403e-05
4.12427e-05
-9.68085e-05
-0.000129081
5.96269e-05
-7.68145e-05
-8.04338e-05
6.35783e-05
-5.95948e-05
-4.40067e-05
5.50661e-05
-4.47435e-05
-9.42502e-06
-2.95803e-05
2.39225e-05
5.85093e-05
-7.13307e-05
-0.000218092
7.6849e-05
-5.84701e-05
-0.000127601
7.89277e-05
-4.12089e-05
-8.04225e-05
6.64458e-05
-3.08339e-05
-2.96813e-05
-1.9156e-05
9.56637e-06
7.13625e-05
-0.000348267
9.68358e-05
-0.00021808
9.60766e-05
-0.000129061
7.81042e-05
-5.70259e-05
-4.02908e-06
3.47353e-05
-0.000127959
1.06373e-05
4.81389e-05
-0.000103627
3.2167e-05
5.26394e-05
-8.46982e-05
4.80751e-05
4.56465e-05
-6.43466e-05
6.27313e-05
-4.56295e-05
7.52402e-05
5.14518e-05
-0.000177117
-5.93098e-05
7.13183e-05
-0.000133149
-2.00317e-05
7.68808e-05
-0.000106429
6.7457e-06
6.4363e-05
-7.68598e-05
3.92587e-05
-5.26168e-05
6.27399e-05
8.57679e-05
-0.000204942
-0.000187004
0.000106698
-0.0001388
-9.57121e-05
0.000106452
-0.00010667
-4.35199e-05
8.47157e-05
-7.12945e-05
6.74608e-06
-4.81149e-05
4.80894e-05
0.000115552
-0.000189821
-0.00034875
0.000138823
-0.000115522
-0.000174151
0.000133165
-8.57351e-05
-9.56997e-05
0.000103641
-5.14289e-05
-2.0023e-05
-3.47168e-05
3.21899e-05
0.000189871
-0.000727939
0.000204965
-0.000348698
0.000177133
-0.000186959
0.000127962
-5.92778e-05
1.06476e-05
3.64759e-05
-0.000182065
3.97922e-05
5.49312e-05
-0.000135687
6.35187e-05
5.88361e-05
-0.000105342
7.71144e-05
5.19248e-05
-7.57648e-05
9.28827e-05
-5.18908e-05
0.000101943
7.70704e-05
-0.000269733
-4.86826e-05
9.53327e-05
-0.000187664
1.36831e-05
9.31e-05
-0.000139413
4.30494e-05
7.57967e-05
-9.30535e-05
7.38506e-05
-5.87876e-05
9.28883e-05
0.00011949
-0.000332221
-0.000243986
0.000150407
-0.000221922
-9.23703e-05
0.00013946
-0.000150337
-2.16492e-05
0.000105371
-9.52731e-05
4.30549e-05
-5.48727e-05
7.71267e-05
0.000211507
-0.000283735
-0.000608708
0.000221996
-0.000211394
-0.000195167
0.00018771
-0.000119413
-9.23377e-05
0.000135715
-7.70085e-05
1.37071e-05
-3.64232e-05
6.35509e-05
0.000283816
-0.00129547
0.000332257
-0.000608518
0.000269741
-0.000243845
0.000182077
-4.86168e-05
3.98247e-05
6.68254e-05
-0.000291418
0.000113525
8.41107e-05
-0.000203982
0.000130077
8.43216e-05
-0.000153101
0.000138524
6.70556e-05
-0.000103956
0.000145516
-6.70396e-05
0.000148024
0.000114673
-0.000494895
4.01291e-05
0.00014138
-0.00030855
9.15446e-05
0.000135163
-0.00022098
0.000117145
0.000103971
-0.000135129
0.000136216
-8.42892e-05
0.000145514
0.000248277
-0.000803653
-0.000183519
0.000265684
-0.000398416
-1.99126e-05
0.000221016
-0.000265604
6.76429e-05
0.00015311
-0.000141322
0.000117153
-8.4069e-05
0.00013853
0.000403553
-0.000943095
-0.000872839
0.000398495
-0.000403292
-0.000185233
0.00030856
-0.000248117
-1.98903e-05
0.000203976
-0.000114592
9.15621e-05
-6.67857e-05
0.000130095
0.000943455
-0.000763235
-0.000522564
-0.00113303
-0.000763221
0.00080362
-0.000871934
0.000494839
-0.000183164
0.000291368
4.02827e-05
0.00011356
6.24321e-05
-0.000384028
0.000222231
8.0342e-05
-0.000233068
0.000218923
7.74118e-05
-0.00016465
0.000204161
6.21293e-05
-0.000103068
0.000199437
-6.20989e-05
0.000186366
0.000165127
-0.000788163
0.000279136
0.00016714
-0.000367486
0.00022395
0.000139559
-0.000248104
0.000228181
0.000103093
-0.000139507
0.000209121
-7.7357e-05
0.000199424
0.000335323
-0.00162366
0.000316586
0.000336107
-0.000649108
0.000260925
0.000248154
-0.000335949
0.000243441
0.000164671
-0.000167047
0.000228177
-8.02598e-05
0.000204143
0.000935323
-0.000543286
-6.97154e-05
1.04943e-05
-0.000333038
-0.000160028
-0.000404622
-0.00114307
-0.000788319
0.000649252
-0.000934177
0.00010353
0.000104447
7.74594e-05
0.00010047
0.000367489
-0.000334818
0.000260743
0.000233056
-0.000164929
0.000223877
-6.23201e-05
0.000218881
0.000306887
-0.000456545
-0.00115689
0.0016233
-0.000159248
1.14423e-05
-0.000332732
-6.82272e-05
-0.000404886
-0.000543494
-0.000788706
-0.00114336
0.00078785
0.000317504
0.000383903
0.000279337
0.000222257
8.69597e-05
-0.000440583
0.000390747
9.86142e-05
-0.000290088
0.000339744
8.9256e-05
-0.00018691
0.000300214
6.39154e-05
-0.000114368
0.00026674
-6.39225e-05
0.000237383
0.000142121
-0.000863783
0.000560139
0.000187724
-0.000561709
0.000449968
0.000165538
-0.000314334
0.000377791
0.000114365
-0.00016552
0.000311446
-8.92458e-05
0.00026672
0.000433651
-0.000661553
0.00107348
-0.000464304
-0.000512094
-0.00041675
0.000454461
-0.000269259
0.000724727
-0.000262198
-0.000255987
-0.000258877
0.00031434
-0.000454681
0.000523909
0.000186892
-0.000187677
0.000377782
-9.85801e-05
0.00030018
0.000203841
-0.00123958
0.000303439
-0.000267504
0.000308688
-0.000411762
0.000204849
0.000562162
-0.000431967
0.000724929
-0.000262605
-0.000271013
-0.000258791
-0.000256655
0.000290089
-0.000141676
0.000449949
-8.68616e-05
0.000339654
0.000556201
0.000354717
0.000176082
-0.000708263
-0.000378767
-0.000270906
0.000790494
-0.000573491
-0.000358652
-0.000310384
-0.000463079
0.00049279
0.000142257
0.000131444
0.000141539
0.000118739
0.000862294
0.0010721
-0.000460636
-0.000660661
-0.000415482
-0.000511919
0.000440224
0.000559806
0.000390658
1.59578e-05
-7.05689e-05
0.000375261
2.10364e-05
-7.48866e-05
0.000339442
2.5121e-05
-5.23812e-05
0.000309165
2.08273e-05
-4.42034e-05
0.000280657
-2.08191e-05
0.000251345
2.87851e-05
-3.74703e-05
0.000498239
5.37656e-05
-9.75483e-05
0.000447649
5.41073e-05
-5.5091e-05
0.000380159
4.4195e-05
-5.40985e-05
0.000331253
-2.50857e-05
0.00028061
-4.87152e-07
-0.000165865
0.000737097
-0.000113972
0.000352246
0.000226823
2.93032e-05
-7.29725e-05
0.000575511
-6.10901e-05
0.000130915
2.5025e-05
5.5138e-05
-2.9342e-05
0.000472325
5.23803e-05
-5.36978e-05
0.000380139
-2.10053e-05
0.000309134
-0.000748753
2.68866e-05
0.00069216
3.70462e-05
-0.000111321
-0.000104259
4.22971e-05
-5.49864e-05
5.62519e-05
-8.33193e-05
0.000340887
-0.000331806
9.76878e-05
3.61719e-07
0.000575564
-6.10258e-05
-7.29198e-05
2.50067e-05
0.000130913
7.48648e-05
-2.85328e-05
0.000447607
-1.59463e-05
0.000339369
0.00172489
0.000174442
4.74874e-05
-2.55593e-05
-0.00192128
-0.000306202
6.43655e-05
-0.000114558
8.60422e-05
-6.13871e-05
0.000331739
3.71778e-05
0.000736539
-0.000114162
-0.000165766
0.000226472
0.000352324
7.04031e-05
0.000498067
0.000375099
-6.96702e-06
7.41711e-05
0.000314289
-2.88133e-06
2.59269e-05
0.000311965
2.96595e-06
5.8964e-06
0.000292554
3.22709e-06
-5.63307e-06
0.000279784
-3.26431e-06
0.000251058
-1.431e-05
0.000203473
0.00038325
-1.23942e-05
9.40688e-05
0.000377591
-9.46113e-07
3.33538e-05
0.000341254
5.60069e-06
8.91612e-07
0.000318182
-2.99659e-06
0.000279729
-0.000116834
0.000363108
0.000253595
0.00026135
0.000105209
7.40471e-05
-9.18335e-05
0.000283291
0.000361288
-3.32986e-05
9.18291e-05
0.000355315
-5.93755e-06
1.2411e-05
0.000341258
2.84488e-06
0.000292517
-0.000231478
-0.000115307
0.000852066
-0.000142109
-0.000283358
0.000352898
0.000117002
-0.000174574
-0.00015468
-0.000262619
-0.000174604
0.000124539
0.000353021
3.80793e-05
9.24516e-05
0.00012455
9.25035e-05
3.80805e-05
-9.40729e-05
0.000116836
0.000361272
-2.59764e-05
1.43601e-05
0.000377561
6.96174e-06
0.000311873
0.000646042
-0.000581293
-0.000191077
0.000684073
-0.000557745
-0.000178929
0.000249558
-0.000517987
0.000374503
-0.000402937
0.000381079
0.000172173
0.000275437
-0.000203534
0.000253375
0.000261284
0.000362954
7.40083e-05
0.000105315
-7.42422e-05
0.000383196
0.000314175
-1.69637e-06
-7.23652e-05
0.000374647
-1.57612e-05
-2.02961e-05
0.000334362
-2.37831e-05
1.0572e-05
0.000302279
-2.39101e-05
1.61768e-05
0.000272735
2.38747e-05
0.000242704
1.23728e-05
-0.000219501
0.000517974
7.94912e-06
-9.41281e-05
0.000455847
-1.06927e-05
-1.12163e-05
0.000381684
-1.61725e-05
1.06765e-05
0.000329162
2.37524e-05
0.000272722
0.000125978
-0.000153632
0.000836917
-9.91828e-05
-0.000437268
-0.000238728
7.77841e-05
-0.000304555
0.000619908
1.12005e-05
-7.78817e-05
0.000488564
-1.06019e-05
-7.9655e-06
0.000381703
1.57257e-05
0.000302252
0.00022699
5.59608e-05
-0.000369762
-6.69233e-05
0.000304303
-0.000153936
0.00025601
-7.64922e-05
-0.000153912
-0.000119547
-0.000427928
-7.64116e-05
-0.000427962
-0.000119573
0.000201524
0.000350369
0.000256002
9.40575e-05
-0.00012622
0.000619855
2.02301e-05
-1.23827e-05
0.000455806
1.61542e-06
0.000334297
0.00221895
0.000808385
0.000459755
-0.000773514
-0.000506264
-0.000417381
-0.000946889
-0.000255185
-0.000159014
-0.000169236
-0.000260626
0.000488193
-0.000438732
0.000216637
-0.000148164
-0.00027187
0.000219428
0.000837048
-9.93085e-05