/*--------------------------------*- C++ -*----------------------------------*\
| =========                 |                                                 |
| \\      /  F ield         | OpenFOAM: The Open Source CFD Toolbox           |
|  \\    /   O peration     | Version:  5.x                                   |
|   \\  /    A nd           | Web:      www.OpenFOAM.org                      |
|    \\/     M anipulation  |                                                 |
\*---------------------------------------------------------------------------*/
FoamFile
{
    version     2.0;
    format      ascii;
    class       volScalarField;
    location    "0.021";
    object      phiIB;
}
// * * * * * * * * * * * * * * * * * * * * * * * * * * * * * * * * * * * * * //

dimensions      [0 2 -1 0 0 0 0];

internalField   nonuniform List<scalar> 
1581
(
-7.73564e-07
-7.73045e-07
-7.75681e-07
-7.74107e-07
-7.7906e-07
-7.68375e-07
-7.67825e-07
-7.7052e-07
-7.68968e-07
-7.74031e-07
-7.70102e-07
-7.69475e-07
-7.72161e-07
-7.70597e-07
-7.75679e-07
-7.67366e-07
-7.66736e-07
-7.69475e-07
-7.67925e-07
-7.7307e-07
-7.68126e-07
-7.67473e-07
-7.70224e-07
-7.68675e-07
-7.73837e-07
-1.82952e-07
-1.83018e-07
-1.84402e-07
-1.84353e-07
-1.87151e-07
-1.79822e-07
-1.79914e-07
-1.81417e-07
-1.81441e-07
-1.84356e-07
-1.79649e-07
-1.79764e-07
-1.81348e-07
-1.81451e-07
-1.84425e-07
-1.7787e-07
-1.7805e-07
-1.7976e-07
-1.79957e-07
-1.83023e-07
-1.7765e-07
-1.77877e-07
-1.79657e-07
-1.79915e-07
-1.83019e-07
-4.4962e-06
-4.49614e-06
-4.49983e-06
-4.4995e-06
-4.50634e-06
-4.48869e-06
-4.4887e-06
-4.4926e-06
-4.49242e-06
-4.4995e-06
-4.4883e-06
-4.48846e-06
-4.4926e-06
-4.49266e-06
-4.4999e-06
-4.48373e-06
-4.48407e-06
-4.48851e-06
-4.48883e-06
-4.49627e-06
-4.48333e-06
-4.48381e-06
-4.48844e-06
-4.48895e-06
-4.49648e-06
-3.37262e-06
-3.37243e-06
-3.37625e-06
-3.37575e-06
-3.38286e-06
-3.36406e-06
-3.36409e-06
-3.36834e-06
-3.36817e-06
-3.37573e-06
-3.36245e-06
-3.36298e-06
-3.36794e-06
-3.36833e-06
-3.37622e-06
-3.3559e-06
-3.35711e-06
-3.36297e-06
-3.36407e-06
-3.37235e-06
-3.35421e-06
-3.35591e-06
-3.36243e-06
-3.36404e-06
-3.37252e-06
-7.09448e-06
-7.09391e-06
-7.09947e-06
-7.09813e-06
-7.10881e-06
-7.08163e-06
-7.08138e-06
-7.08749e-06
-7.08665e-06
-7.09815e-06
-7.07865e-06
-7.07962e-06
-7.08738e-06
-7.08748e-06
-7.09948e-06
-7.06498e-06
-7.06841e-06
-7.07969e-06
-7.08143e-06
-7.09398e-06
-7.06026e-06
-7.06512e-06
-7.07879e-06
-7.08172e-06
-7.09458e-06
-6.86118e-06
-6.85945e-06
-6.86558e-06
-6.86252e-06
-6.87563e-06
-6.84631e-06
-6.84464e-06
-6.85088e-06
-6.84802e-06
-6.8625e-06
-6.84679e-06
-6.84619e-06
-6.85355e-06
-6.85079e-06
-6.86547e-06
-6.83205e-06
-6.83447e-06
-6.84618e-06
-6.84453e-06
-6.85931e-06
-6.82826e-06
-6.83214e-06
-6.84675e-06
-6.84612e-06
-6.86093e-06
-9.56907e-06
-9.56544e-06
-9.57263e-06
-9.56863e-06
-9.58767e-06
-9.55015e-06
-9.5468e-06
-9.55464e-06
-9.54875e-06
-9.56869e-06
-9.56207e-06
-9.55774e-06
-9.56365e-06
-9.55452e-06
-9.57256e-06
-9.56309e-06
-9.556e-06
-9.55775e-06
-9.5467e-06
-9.56538e-06
-9.5714e-06
-9.56294e-06
-9.56199e-06
-9.54997e-06
-9.56891e-06
-1.01898e-05
-1.01828e-05
-1.01911e-05
-1.01886e-05
-1.02213e-05
-1.01746e-05
-1.0169e-05
-1.01773e-05
-1.01658e-05
-1.01887e-05
-1.01954e-05
-1.01896e-05
-1.01959e-05
-1.01771e-05
-1.01909e-05
-1.01928e-05
-1.01853e-05
-1.01896e-05
-1.01689e-05
-1.01825e-05
-1.02012e-05
-1.01927e-05
-1.01955e-05
-1.01743e-05
-1.01893e-05
-1.19078e-05
-1.19064e-05
-1.19283e-05
-1.19349e-05
-1.19904e-05
-1.18799e-05
-1.18814e-05
-1.19062e-05
-1.19011e-05
-1.19352e-05
-1.18878e-05
-1.1891e-05
-1.19175e-05
-1.19062e-05
-1.19285e-05
-1.1853e-05
-1.18585e-05
-1.18914e-05
-1.18818e-05
-1.19066e-05
-1.18467e-05
-1.18533e-05
-1.18885e-05
-1.18804e-05
-1.19082e-05
-1.28994e-05
-1.29249e-05
-1.29965e-05
-1.30253e-05
-1.30982e-05
-1.28228e-05
-1.28457e-05
-1.29196e-05
-1.295e-05
-1.30255e-05
-1.27967e-05
-1.28171e-05
-1.28889e-05
-1.29199e-05
-1.29971e-05
-1.27382e-05
-1.27553e-05
-1.28179e-05
-1.28468e-05
-1.29266e-05
-1.27221e-05
-1.27387e-05
-1.27981e-05
-1.28245e-05
-1.29018e-05
-1.38724e-05
-1.39252e-05
-1.40655e-05
-1.41253e-05
-1.42312e-05
-1.37584e-05
-1.37989e-05
-1.39216e-05
-1.39909e-05
-1.41257e-05
-1.37052e-05
-1.37388e-05
-1.3848e-05
-1.3922e-05
-1.40664e-05
-1.36233e-05
-1.36494e-05
-1.37397e-05
-1.38004e-05
-1.39277e-05
-1.35999e-05
-1.36239e-05
-1.37069e-05
-1.37609e-05
-1.38761e-05
-1.52034e-05
-1.52636e-05
-1.54387e-05
-1.55313e-05
-1.56989e-05
-1.50086e-05
-1.50623e-05
-1.52351e-05
-1.5344e-05
-1.55319e-05
-1.487e-05
-1.49279e-05
-1.51056e-05
-1.52355e-05
-1.54397e-05
-1.46598e-05
-1.47286e-05
-1.4929e-05
-1.50641e-05
-1.52665e-05
-1.45893e-05
-1.46605e-05
-1.48719e-05
-1.50117e-05
-1.52083e-05
-1.58607e-05
-1.59528e-05
-1.61827e-05
-1.62796e-05
-1.6515e-05
-1.5526e-05
-1.5622e-05
-1.58846e-05
-1.60257e-05
-1.62802e-05
-1.52993e-05
-1.53901e-05
-1.5681e-05
-1.5885e-05
-1.61839e-05
-1.50436e-05
-1.5122e-05
-1.53914e-05
-1.56244e-05
-1.59565e-05
-1.497e-05
-1.50439e-05
-1.5301e-05
-1.55298e-05
-1.5867e-05
-1.68984e-05
-1.70467e-05
-1.73587e-05
-1.74606e-05
-1.77626e-05
-1.64608e-05
-1.65801e-05
-1.69293e-05
-1.71086e-05
-1.7461e-05
-1.62107e-05
-1.63158e-05
-1.66754e-05
-1.69292e-05
-1.73595e-05
-1.58566e-05
-1.59575e-05
-1.63167e-05
-1.65817e-05
-1.70503e-05
-1.57552e-05
-1.58563e-05
-1.62117e-05
-1.64634e-05
-1.69038e-05
-1.69247e-05
-1.70964e-05
-1.75368e-05
-1.77143e-05
-1.81391e-05
-1.63569e-05
-1.64932e-05
-1.69367e-05
-1.71822e-05
-1.77148e-05
-1.60864e-05
-1.62074e-05
-1.6642e-05
-1.69358e-05
-1.75362e-05
-1.56601e-05
-1.57803e-05
-1.62074e-05
-1.64926e-05
-1.70963e-05
-1.55353e-05
-1.5659e-05
-1.60853e-05
-1.6356e-05
-1.6926e-05
-1.76507e-05
-1.78175e-05
-1.83701e-05
-1.86064e-05
-1.92372e-05
-1.69908e-05
-1.71417e-05
-1.76528e-05
-1.79077e-05
-1.86064e-05
-1.67159e-05
-1.68594e-05
-1.73646e-05
-1.76508e-05
-1.83689e-05
-1.61525e-05
-1.6311e-05
-1.68585e-05
-1.71389e-05
-1.78156e-05
-1.59836e-05
-1.61507e-05
-1.67134e-05
-1.69859e-05
-1.76447e-05
-1.73844e-05
-1.75717e-05
-1.82249e-05
-1.85356e-05
-1.93909e-05
-1.63104e-05
-1.65068e-05
-1.71968e-05
-1.7563e-05
-1.85354e-05
-1.58707e-05
-1.60757e-05
-1.67738e-05
-1.71937e-05
-1.82218e-05
-1.5093e-05
-1.53175e-05
-1.60737e-05
-1.65016e-05
-1.75662e-05
-1.48554e-05
-1.50903e-05
-1.5866e-05
-1.63018e-05
-1.73747e-05
-1.8539e-05
-1.86784e-05
-1.93491e-05
-1.96012e-05
-2.07522e-05
-1.7058e-05
-1.72577e-05
-1.80781e-05
-1.84212e-05
-1.96022e-05
-1.65176e-05
-1.67444e-05
-1.76348e-05
-1.80744e-05
-1.93458e-05
-1.55265e-05
-1.57808e-05
-1.67425e-05
-1.72515e-05
-1.86714e-05
-1.52606e-05
-1.55229e-05
-1.65121e-05
-1.70478e-05
-1.85278e-05
-1.75097e-05
-1.77541e-05
-1.87201e-05
-1.90997e-05
-2.0585e-05
-1.52152e-05
-1.55041e-05
-1.66353e-05
-1.72218e-05
-1.90998e-05
-1.43649e-05
-1.46939e-05
-1.5887e-05
-1.66306e-05
-1.87154e-05
-1.30389e-05
-1.34045e-05
-1.46911e-05
-1.5496e-05
-1.77455e-05
-1.26394e-05
-1.30334e-05
-1.43567e-05
-1.52015e-05
-1.74952e-05
-1.91549e-05
-1.9302e-05
-2.03508e-05
-2.07391e-05
-2.28334e-05
-1.60735e-05
-1.63944e-05
-1.78338e-05
-1.8446e-05
-2.07398e-05
-1.49255e-05
-1.53368e-05
-1.69891e-05
-1.78289e-05
-2.03463e-05
-1.30336e-05
-1.35405e-05
-1.53341e-05
-1.63867e-05
-1.92942e-05
-1.24797e-05
-1.30266e-05
-1.49159e-05
-1.60589e-05
-1.91404e-05
-1.58766e-05
-1.63464e-05
-1.80585e-05
-1.86655e-05
-2.14238e-05
-1.15961e-05
-1.21811e-05
-1.41933e-05
-1.52798e-05
-1.86638e-05
-9.7223e-06
-1.04989e-05
-1.27404e-05
-1.41869e-05
-1.80507e-05
-7.0434e-06
-7.96416e-06
-1.04949e-05
-1.2171e-05
-1.63353e-05
-5.97337e-06
-7.03185e-06
-9.70729e-06
-1.15755e-05
-1.58554e-05
-1.8495e-05
-1.86318e-05
-2.03953e-05
-2.1199e-05
-2.4984e-05
-1.22887e-05
-1.29812e-05
-1.55451e-05
-1.68252e-05
-2.11973e-05
-9.63686e-06
-1.06437e-05
-1.38146e-05
-1.55388e-05
-2.03876e-05
-5.75231e-06
-7.10549e-06
-1.06397e-05
-1.2972e-05
-1.86223e-05
-4.21915e-06
-5.738e-06
-9.61931e-06
-1.2267e-05
-1.84737e-05
-1.10462e-05
-1.20462e-05
-1.45317e-05
-1.56011e-05
-2.04048e-05
-2.66199e-06
-4.14328e-06
-7.75796e-06
-1.00437e-05
-1.55958e-05
2.22922e-06
1.51988e-09
-4.33527e-06
-7.7504e-06
-1.45204e-05
7.70148e-06
4.96972e-06
6.39687e-09
-4.1332e-06
-1.20355e-05
1.11906e-05
7.72374e-06
2.25513e-06
-2.63343e-06
-1.10177e-05
-1.54929e-05
-1.58256e-05
-1.87349e-05
-1.9974e-05
-2.65312e-05
-3.26815e-06
-5.18429e-06
-9.60109e-06
-1.24208e-05
-1.99672e-05
3.31287e-06
4.41346e-07
-5.58345e-06
-9.59532e-06
-1.87218e-05
1.14476e-05
7.18161e-06
4.4669e-07
-5.17833e-06
-1.58179e-05
1.65388e-05
1.14742e-05
3.34272e-06
-3.24216e-06
-1.54701e-05
-9.35305e-07
-3.39107e-06
-6.193e-06
-8.92138e-06
-1.66353e-05
1.57665e-05
1.16309e-05
5.47141e-06
2.64115e-07
-8.90915e-06
2.93643e-05
2.21443e-05
1.39809e-05
5.47627e-06
-6.177e-06
4.07223e-05
3.14585e-05
2.2151e-05
1.16335e-05
-3.38572e-06
5.43065e-05
4.07564e-05
2.9405e-05
1.57951e-05
-9.10948e-07
-6.85752e-06
-7.50065e-06
-1.37048e-05
-1.6862e-05
-2.83336e-05
1.54361e-05
9.62149e-06
2.89706e-06
-2.51862e-06
-1.6845e-05
3.23217e-05
2.3036e-05
1.20043e-05
2.89337e-06
-1.36858e-05
5.01606e-05
3.41581e-05
2.30473e-05
9.61336e-06
-7.4867e-06
7.05338e-05
5.01942e-05
3.23644e-05
1.54481e-05
-6.83656e-06
2.02675e-05
1.46096e-05
9.15657e-06
1.45184e-06
-1.02167e-05
4.90177e-05
3.71816e-05
2.82899e-05
1.80843e-05
1.47494e-06
8.73325e-05
6.30182e-05
4.873e-05
2.82705e-05
9.17139e-06
0.000111698
7.72309e-05
6.30387e-05
3.71507e-05
1.46068e-05
0.000172277
0.000111738
8.73946e-05
4.89928e-05
2.02551e-05
4.12019e-06
-2.73873e-06
-1.16523e-05
-1.76612e-05
-3.19886e-05
4.75099e-05
2.80363e-05
2.03026e-05
2.85747e-06
-1.76227e-05
9.38483e-05
6.11997e-05
4.26772e-05
2.02634e-05
-1.16329e-05
0.000138667
6.3135e-05
6.11973e-05
2.79898e-05
-2.71181e-06
0.000229509
0.00013876
9.39267e-05
4.74266e-05
4.11375e-06
5.55344e-05
3.67624e-05
2.90625e-05
1.17006e-05
-8.88613e-07
0.000101662
7.40883e-05
6.08451e-05
3.46008e-05
1.17641e-05
0.000208285
0.000146601
0.000115574
6.07905e-05
2.91097e-05
0.000271621
0.000180477
0.000146474
7.40603e-05
3.68362e-05
0.000558651
0.000270909
0.000208201
0.000101511
5.55553e-05
-5.55258e-07
-1.36677e-05
-1.92019e-05
-2.5458e-05
-3.54861e-05
7.58602e-05
5.11343e-06
1.24007e-05
-1.01536e-05
-2.53437e-05
0.000214003
0.000115633
6.57762e-05
1.24501e-05
-1.90803e-05
0.000428784
1.37671e-05
0.000115578
5.3579e-06
-1.34485e-05
0.000700889
0.000434664
0.000216256
7.64942e-05
-1.83092e-07
6.22857e-05
3.9662e-05
3.17475e-05
1.06144e-05
2.95657e-06
8.61088e-05
3.86682e-05
5.42161e-05
2.69962e-05
1.0755e-05
0.000288041
0.000243722
0.000128505
5.44102e-05
3.18918e-05
0.000482338
6.95009e-05
0.000240266
3.95298e-05
3.98238e-05
0.00156538
0.00071126
0.000295336
8.65746e-05
6.26205e-05
-6.61693e-05
-6.47717e-05
-5.30154e-05
-5.08784e-05
-4.60993e-05
-6.06454e-05
-6.84285e-05
-5.48901e-05
-4.77329e-05
-5.07556e-05
-0.000119908
-8.91136e-05
-5.8314e-05
-5.48401e-05
-5.28762e-05
3.97168e-06
-0.000171404
-8.93375e-05
-6.81587e-05
-6.44862e-05
-0.00049904
-0.000124386
-0.000118179
-6.02152e-05
-6.57864e-05
-5.59892e-06
-9.71891e-06
-7.62511e-06
-1.18379e-05
-1.16192e-05
-1.16598e-05
-1.90367e-05
-1.10222e-05
-1.52282e-05
-1.17806e-05
4.81461e-06
2.93221e-06
2.54687e-06
-1.10321e-05
-7.55768e-06
-5.07303e-05
-7.00185e-05
2.74503e-06
-1.89722e-05
-9.64409e-06
-0.000637656
-0.000162914
5.10922e-06
-1.16945e-05
-5.56453e-06
-6.99343e-05
-7.56271e-05
-6.83928e-05
-6.90302e-05
-5.8969e-05
-6.1279e-05
-6.92356e-05
-7.21383e-05
-7.25592e-05
-6.90069e-05
1.33481e-05
-4.83829e-05
-5.69318e-05
-7.21492e-05
-6.83625e-05
2.26355e-05
-1.65455e-05
-4.84784e-05
-6.92317e-05
-7.55922e-05
0.000480053
3.98949e-05
1.34539e-05
-6.12647e-05
-6.98911e-05
-7.74786e-05
-6.00763e-05
-4.86521e-05
-3.88832e-05
-2.95299e-05
-0.000122653
-9.98806e-05
-7.5079e-05
-5.82175e-05
-3.89217e-05
-0.000238703
-0.000156263
-0.000114324
-7.50542e-05
-4.87035e-05
-0.000218165
-0.00019179
-0.00015634
-9.98727e-05
-6.01788e-05
0.00138667
-2.98984e-05
-0.000238919
-0.0001226
-7.7632e-05
-0.000148208
-0.000131839
-0.000115616
-0.000105004
-8.585e-05
-0.000190261
-0.00017161
-0.000145573
-0.000127767
-0.000105057
-0.000314717
-0.000233154
-0.000185618
-0.000145484
-0.000115681
-0.000457464
-0.00031816
-0.000233632
-0.000171569
-0.000132038
-0.001604
-0.000645277
-0.000314988
-0.000190166
-0.000148345
-7.41394e-05
-6.59796e-05
-5.31159e-05
-4.85364e-05
-3.4907e-05
-0.000133214
-0.000106182
-8.34261e-05
-6.69699e-05
-4.86259e-05
-0.00019693
-0.00015833
-0.000112666
-8.33693e-05
-5.32231e-05
-0.000372408
-0.000233948
-0.000158535
-0.0001062
-6.6174e-05
-0.000778189
-0.00037236
-0.000197166
-0.000133145
-7.43814e-05
-0.000145329
-0.000137806
-0.000122192
-0.000115025
-9.13912e-05
-0.000189855
-0.000178635
-0.000157453
-0.000144761
-0.000115063
-0.000240516
-0.000208007
-0.000178236
-0.000157435
-0.000122269
-0.00031797
-0.000260709
-0.000208212
-0.000178675
-0.000137931
-0.000416457
-0.000317688
-0.000240616
-0.000189865
-0.000145492
-4.94251e-05
-4.81423e-05
-4.1731e-05
-3.90436e-05
-2.84083e-05
-6.80847e-05
-6.53295e-05
-5.94448e-05
-5.24994e-05
-3.91043e-05
-7.184e-05
-7.1529e-05
-6.21342e-05
-5.942e-05
-4.18048e-05
-9.95977e-05
-8.51598e-05
-7.16353e-05
-6.53632e-05
-4.82789e-05
-9.34467e-05
-9.9569e-05
-7.19276e-05
-6.80753e-05
-4.95786e-05
-3.9841e-05
-4.19465e-05
-3.06253e-05
-3.87526e-05
-1.91227e-05
-7.80804e-05
-7.14966e-05
-5.69202e-05
-6.05215e-05
-3.87566e-05
-9.7395e-05
-8.39783e-05
-5.89938e-05
-5.69241e-05
-3.06598e-05
-0.000138496
-0.000115501
-8.40136e-05
-7.14973e-05
-4.19654e-05
-0.000164211
-0.000138433
-9.74283e-05
-7.80848e-05
-3.99135e-05
0.000292974
0.00116825
0.000708516
0.00030915
0.000400887
0.000217797
0.000190531
0.000722255
0.00371553
0.00156757
0.00207007
0.00060411
0.00180825
0.00207248
0.00031936
0.00117442
0.000496715
0.000191913
0.000408894
0.000221634
0.000315314
-3.17774e-05
1.14151e-05
-0.000110154
-0.000140644
-5.32902e-05
-0.000626542
-0.000274969
-7.48751e-05
-0.000209119
-0.000168189
-7.11217e-05
1.28985e-05
-8.30572e-05
-7.05695e-05
8.13401e-05
0.000351741
-0.000496922
-0.00076196
-0.000169439
-0.00259155
-0.000761611
-2.87848e-05
1.31372e-05
8.13451e-06
-0.000276398
-5.32423e-05
-0.000625571
-0.000139541
-3.90744e-05
-0.000222091
-0.000162775
-2.97514e-06
-1.944e-05
5.74144e-05
-1.44313e-05
-0.000221401
-0.0013477
-0.000637376
0.000177386
7.3791e-06
0.000742505
0.000177395
-3.86901e-05
-0.000221574
-5.00517e-05
-1.44315e-05
-1.96939e-05
5.71453e-05
-3.08138e-06
-1.09651e-05
0.000142214
4.04866e-05
8.36188e-05
-1.85738e-06
0.00056252
0.000297705
0.000196887
0.00043537
0.000480452
0.000977329
0.000263131
0.00434043
0.000977963
-1.07993e-05
0.00014164
2.3291e-05
0.000297695
-2.18664e-06
0.000562108
8.37058e-05
-0.000129181
-0.000139378
-3.03515e-05
-0.000307087
-0.000301355
-0.000759324
-0.000563337
-9.64872e-05
-0.000120673
-0.000191799
-0.00027407
-0.000196502
-0.000388011
-0.000274019
8.13812e-05
0.00200735
0.00138651
-0.00233322
-0.00078529
-0.00173456
-0.00233365
-0.000129261
-0.000139319
-0.000217862
-0.000562853
-0.000301343
-0.000759627
-0.000306859
-0.000342903
-0.00100429
-0.000645618
-0.000357921
-0.00029442
-0.00066566
-0.000559211
-0.000680804
-0.00265008
-0.00160424
-0.000656748
-0.000723114
-0.00123574
-0.000656633
-0.000343215
-0.00100453
-0.000457022
-0.00055949
-0.000294226
-0.000668593
-0.000356437
-0.000699629
-0.000851578
-0.000780911
-0.000407175
-0.00034254
-0.000494763
-0.00040533
-0.00100456
-0.000258701
-0.000173885
-0.00200495
-0.000324482
-0.00157777
-0.000868558
-0.000222615
-7.42638e-06
-8.55098e-05
-0.000166712
-0.000163448
-0.000161792
-0.000241735
-0.000348264
-0.000511503
-0.000965948
-6.73284e-05
-0.00073518
5.40751e-05
-0.000452702
-0.000642307
0.000657514
0.000578291
0.000356893
0.000792101
0.000187954
-0.000240306
-0.00173578
-0.00125647
-0.00231733
-0.00125241
-0.00214127
-0.00105866
-0.00195149
0.0024143
0.00202564
0.00140286
0.000772458
0.00132634
0.00075801
0.00273107
0.00207527
0.00099515
0.000614535
0.000628102
0.00136137
0.0013572
0.00120044
0.00328881
0.00382743
0.00152653
0.00152722
0.00131875
0.00355319
0.00355414
0.00241609
0.00202697
0.00139387
0.000773996
0.00132556
0.000757133
0.00273336
-0.000284817
0.000114927
-5.79892e-05
-0.000296354
0.000110645
-0.000263797
-0.000323006
-0.00022468
-4.12386e-07
-7.91976e-05
-0.00016328
-0.000161485
-0.000169133
-0.000244009
-0.000230925
-0.000526535
-0.000254759
-0.000577866
-0.000536201
-0.000166065
-0.000296396
-0.00148601
-0.000209869
-0.000203375
-0.000386116
-0.000718608
-0.000516957
-0.000513855
-0.000928309
0.000177925
0.00017848
-0.00075776
8.0567e-06
-0.000822672
-0.00082217
-0.00100404
-0.000259017
-0.000172741
-0.00200359
-0.000324616
-0.00157713
-0.000867495
-0.0016604
-0.00140328
-0.000644616
-0.00160256
-0.00108828
-0.00141559
-0.00151458
-0.00164395
-0.000331604
-0.000607229
-0.000607368
-0.000708478
-0.000707766
-0.00119698
-0.00175278
-0.00173799
-0.0020495
-0.00204928
-0.00141373
-0.00172024
-0.00171979
-0.00165968
-0.00140247
-0.000644375
-0.0016018
-0.00108773
-0.00141485
-0.00151352
-0.000283062
-5.67753e-05
0.000116234
-0.000294612
0.000110667
-0.00026173
-0.000321294
-0.000230251
-0.000525402
-0.000578151
-0.000253816
-0.000535351
-0.000165842
-0.000295229
-0.000405317
-0.000429889
-0.000429837
0.000145554
-0.000654842
-0.000152242
-0.000152544
-0.000147114
-0.00117187
-0.00117176
-0.000721787
-0.000999142
-0.000431257
-0.000430735
-0.000347672
-0.000511306
-0.000965551
-6.67796e-05
-0.000734884
5.45508e-05
-0.000451977
0.00211784
0.00100352
0.000500421
0.00218509
0.000680909
0.00177242
0.00265003
0.00250914
0.00384828
0.00399954
0.0039972
0.00282271
0.00278691
0.00278076
0.00211934
0.00100091
0.000501092
0.00218576
0.00068093
0.00177385
0.00264653
-6.07895e-05
0.000163906
4.9181e-05
-0.000467892
4.55553e-05
-0.000454592
-1.79241e-05
-0.000392241
-0.000590116
-0.000727345
-0.00076613
-0.000567489
-0.000631596
-0.000485148
-0.000420197
-0.00040749
-0.000484219
-0.000743775
-0.000333244
-0.000516241
-0.000556921
-0.000413026
5.78835e-05
5.75336e-05
-5.09042e-05
0.00112326
-0.000430965
-0.000430661
-8.75095e-05
0.00164944
0.00164952
0.000391226
0.0013712
0.00016657
0.000166772
-0.000642414
0.000657564
0.000578042
0.000356998
0.000792252
0.000187886
-0.000240318
-0.00104397
-0.0018631
-0.00177846
-0.00166198
-0.00146192
-0.00170808
-0.00106871
-0.0016142
-0.00055647
-0.00102986
-0.00103004
-0.000853622
-0.000853731
-0.00223742
-0.000961547
-0.000775409
-0.00175631
-0.00175641
-0.00176436
-0.000879133
-0.000879078
-0.00104444
-0.00186326
-0.00177915
-0.00166222
-0.00146247
-0.00170835
-0.00106887
-6.11287e-05
4.8552e-05
0.000163854
-0.000468041
4.53115e-05
-0.000454749
-1.79906e-05
-0.000420241
-0.000407515
-0.000484308
-0.000743782
-0.000333294
-0.000516449
-0.000556939
-0.00039263
-0.000590209
-0.000766099
-0.000727575
-0.000567707
-0.000632017
-0.000485265
-0.000552787
-0.000676924
-0.000948786
-0.000979345
-0.000588317
-0.000932841
-0.000666511
-0.00142678
-0.00115965
-0.00115989
-0.000563956
-0.00184683
-0.000999668
-0.000999824
-0.00179286
-0.00264277
-0.00264343
-0.00281056
-0.00238996
-0.00209624
-0.00209619
-0.00174016
-0.00125738
-0.00231731
-0.0012534
-0.00214158
-0.00105994
-0.00195149
-0.00131061
-0.00109555
-0.000510316
-0.00103365
-0.000968377
-0.000938614
-0.00130692
-0.00145358
-0.00171607
-0.000999159
-0.00099933
-0.000808752
-0.00164368
-0.00164541
-0.00132397
-0.00109751
-0.000509749
-0.00103394
-0.000968987
-0.000937979
-0.00130909
-0.000553312
-0.000949025
-0.00067712
-0.000979779
-0.000589074
-0.000933855
-0.000666674
0.000452688
0.00103678
0.000702201
0.00126858
0.000934301
0.00196407
0.00126993
0.00300398
0.00342425
0.00342502
0.00611493
0.00294124
0.00423526
0.00423648
0.00276539
0.00127799
0.00259647
0.00174053
0.0020705
0.00155385
0.00299535
0.00054204
0.00113144
0.000641317
0.000237122
0.00109365
0.000439218
0.000745371
0.00276609
0.00127956
0.0025978
0.00174243
0.00207137
0.00155492
0.00299709
0.000545332
0.00113452
0.000244909
0.000642158
0.00109906
0.000436992
0.000750179
0.00141274
0.000176737
0.000540484
0.000540148
0.000684077
0.000683789
0.00129196
0.00212342
0.00118066
0.00118105
0.000956735
0.00168863
0.00135877
0.00136039
-0.000197568
-8.61161e-05
0.000124688
-0.000248291
-5.72202e-05
-0.000150458
-0.00023642
-0.000197655
-8.59135e-05
0.000125069
-0.000248563
-5.76453e-05
-0.000150199
-0.000236183
0.00187228
0.000204608
0.00021952
0.00298411
0.000267698
0.00247241
0.00246064
0.000163124
0.00121413
6.04615e-05
-0.000112328
0.000135136
0.000587703
-0.000112434
0.000235793
0.000767943
0.000334483
0.000616891
0.000363358
0.00163271
6.94369e-05
0.00023813
0.000773497
0.00033461
0.000631412
0.000376683
0.00163888
6.33151e-05
)
;

boundaryField
{
    inlet
    {
        type            fixedValue;
        value           uniform 0;
    }
    wall
    {
        type            zeroGradient;
    }
    outlet
    {
        type            fixedValue;
        value           uniform 0;
    }
    procBoundary1to0
    {
        type            processor;
        value           nonuniform List<scalar> 
323
(
-7.73241e-07
-7.6812e-07
-7.70035e-07
-7.67329e-07
-7.68121e-07
-1.83173e-07
-1.79927e-07
-1.79765e-07
-1.77927e-07
-1.77655e-07
-4.49612e-06
-4.48861e-06
-4.48826e-06
-4.4837e-06
-4.48324e-06
-3.37289e-06
-3.36421e-06
-3.36258e-06
-3.35597e-06
-3.35415e-06
-7.0945e-06
-7.08164e-06
-7.07863e-06
-7.06493e-06
-7.06009e-06
-6.8613e-06
-6.84638e-06
-6.84682e-06
-6.83202e-06
-6.82812e-06
-9.56904e-06
-9.55009e-06
-9.56204e-06
-9.56325e-06
-9.57152e-06
-1.01899e-05
-1.01746e-05
-1.01955e-05
-1.01929e-05
-1.02014e-05
-1.19077e-05
-1.18797e-05
-1.18875e-05
-1.18529e-05
-1.18467e-05
-1.28988e-05
-1.28223e-05
-1.27963e-05
-1.2738e-05
-1.27221e-05
-1.38716e-05
-1.37577e-05
-1.37047e-05
-1.36231e-05
-1.36e-05
-1.52024e-05
-1.50079e-05
-1.48694e-05
-1.46594e-05
-1.45894e-05
-1.58592e-05
-1.5525e-05
-1.52987e-05
-1.50434e-05
-1.49705e-05
-1.6897e-05
-1.646e-05
-1.62101e-05
-1.58564e-05
-1.57557e-05
-1.69241e-05
-1.63565e-05
-1.6086e-05
-1.56601e-05
-1.55355e-05
-1.76502e-05
-1.69903e-05
-1.67154e-05
-1.61521e-05
-1.59831e-05
-1.73841e-05
-1.63102e-05
-1.58702e-05
-1.50926e-05
-1.48547e-05
-1.85392e-05
-1.70578e-05
-1.65171e-05
-1.55259e-05
-1.526e-05
-1.75097e-05
-1.52154e-05
-1.4365e-05
-1.30393e-05
-1.26396e-05
-1.91564e-05
-1.60749e-05
-1.49271e-05
-1.30352e-05
-1.24813e-05
-1.58796e-05
-1.16e-05
-9.72637e-06
-7.04808e-06
-5.97708e-06
-1.85042e-05
-1.22978e-05
-9.64687e-06
-5.76175e-06
-4.22778e-06
-1.10609e-05
-2.67954e-06
2.21096e-06
7.68189e-06
1.1175e-05
-1.55277e-05
-3.30133e-06
3.27615e-06
1.14119e-05
1.65078e-05
-9.85506e-07
1.57098e-05
2.93018e-05
4.0653e-05
5.42513e-05
-6.9576e-06
1.5347e-05
3.22152e-05
5.00391e-05
7.04383e-05
2.01556e-05
4.88993e-05
8.71914e-05
0.000111498
0.000172116
3.95053e-06
4.73705e-05
9.3786e-05
0.000138532
0.000229342
5.53961e-05
0.000101556
0.000208443
0.00027126
0.00055858
-6.19203e-07
7.612e-05
0.000215647
0.000433306
0.00070172
6.2175e-05
8.62345e-05
0.000293945
0.000494853
0.00156634
-6.62799e-05
-6.05945e-05
-0.000118846
5.16242e-06
-0.000499123
-5.75666e-06
-1.18752e-05
4.78748e-06
-5.0867e-05
-0.000637845
-7.00689e-05
-6.15709e-05
1.32782e-05
2.10327e-05
0.000470078
-7.75862e-05
-0.000122778
-0.000238772
-0.000218065
0.00138646
-0.000148086
-0.000190528
-0.000313985
-0.00045694
-0.00160379
-7.41762e-05
-0.000133279
-0.000196842
-0.000372587
-0.000779698
-0.000145344
-0.000189867
-0.000240291
-0.000317713
-0.000415597
-4.94554e-05
-6.80994e-05
-7.186e-05
-9.96515e-05
-9.36695e-05
-3.99133e-05
-7.80998e-05
-9.74048e-05
-0.000138455
-0.000164146
0.00117215
0.000218028
0.000312592
0.00371535
0.00180804
0.00206984
1.15085e-05
-0.00062631
-0.000140447
0.000351524
-0.00259156
-0.000762088
-0.000221779
5.85517e-05
-3.04785e-06
-0.00134752
0.000752455
0.000179262
0.000143424
0.000562454
8.32185e-05
0.000432962
0.00433698
0.000974737
-0.000139146
-0.00075938
-0.000307076
0.0020058
-0.00173469
-0.00233315
-0.0010044
-0.00066761
-0.000357145
-0.00265042
-0.00123573
-0.0006567
-0.00085193
-0.000494355
-0.000406348
-0.000174013
-0.000868659
-0.00200501
-0.000966092
-0.000453312
-6.80322e-05
0.000577728
-0.000240509
0.000356758
-0.00231787
-0.00195243
-0.0012528
0.00152648
0.00355322
0.00382718
0.0020257
0.00273146
0.000772549
-0.000296266
-0.000322803
0.000115226
-0.000254352
-0.000296219
-0.000526489
-0.000757966
-0.000822834
0.000177781
-0.00204953
-0.00172039
-0.00173815
-0.00140343
-0.00151468
-0.0016025
-0.000723043
-0.000432593
-0.00117187
0.00398911
0.00276123
0.00384241
0.000999895
0.00264195
0.00218233
-0.000467812
-1.78142e-05
0.000163878
-0.000727184
-0.000485141
-0.000590044
0.00039068
0.000165706
0.00164622
-0.00175652
-0.00087939
-0.0007756
-0.00186307
-0.00106883
-0.00166226
-0.000979764
-0.000666223
-0.000676678
-0.0028114
-0.00209692
-0.0026433
-0.000999408
-0.00164503
-0.00171748
-0.00109606
-0.00130944
-0.00103349
0.001037
0.00196411
0.00126959
0.0061146
0.00423543
0.00342438
0.00259701
0.00299578
0.00174111
0.000641752
0.000746557
0.00113188
0.0029786
0.00247209
0.000200728
)
;
    }
    procBoundary1to3
    {
        type            processor;
        value           nonuniform List<scalar> 
323
(
-7.68139e-07
-7.67492e-07
-7.7022e-07
-7.68665e-07
-7.73843e-07
-1.77606e-07
-1.77891e-07
-1.79651e-07
-1.79906e-07
-1.83016e-07
-4.48325e-06
-4.48381e-06
-4.48842e-06
-4.48893e-06
-4.49648e-06
-3.35408e-06
-3.35588e-06
-3.36239e-06
-3.364e-06
-3.37251e-06
-7.0602e-06
-7.06515e-06
-7.07877e-06
-7.0817e-06
-7.09457e-06
-6.82823e-06
-6.83217e-06
-6.84672e-06
-6.84611e-06
-6.86094e-06
-9.5713e-06
-9.56289e-06
-9.56195e-06
-9.54998e-06
-9.56894e-06
-1.02012e-05
-1.01927e-05
-1.01954e-05
-1.01744e-05
-1.01893e-05
-1.18471e-05
-1.18536e-05
-1.18886e-05
-1.18806e-05
-1.19083e-05
-1.27227e-05
-1.27391e-05
-1.27983e-05
-1.28249e-05
-1.29022e-05
-1.36007e-05
-1.36244e-05
-1.37072e-05
-1.37613e-05
-1.38766e-05
-1.45904e-05
-1.46611e-05
-1.48723e-05
-1.50121e-05
-1.52088e-05
-1.4971e-05
-1.50444e-05
-1.53014e-05
-1.55303e-05
-1.58677e-05
-1.57561e-05
-1.58568e-05
-1.6212e-05
-1.64639e-05
-1.69046e-05
-1.55355e-05
-1.56592e-05
-1.60853e-05
-1.63561e-05
-1.69261e-05
-1.59837e-05
-1.61509e-05
-1.67136e-05
-1.6986e-05
-1.76447e-05
-1.4855e-05
-1.509e-05
-1.58656e-05
-1.63013e-05
-1.7374e-05
-1.52603e-05
-1.55227e-05
-1.6512e-05
-1.70476e-05
-1.85274e-05
-1.26378e-05
-1.30321e-05
-1.43552e-05
-1.51999e-05
-1.74929e-05
-1.24772e-05
-1.30244e-05
-1.49142e-05
-1.60573e-05
-1.9139e-05
-5.96766e-06
-7.02726e-06
-9.70231e-06
-1.1571e-05
-1.58495e-05
-4.21018e-06
-5.73057e-06
-9.61372e-06
-1.22618e-05
-1.84694e-05
1.12078e-05
7.73652e-06
2.2667e-06
-2.62337e-06
-1.10073e-05
1.65634e-05
1.14925e-05
3.35455e-06
-3.23148e-06
-1.54604e-05
5.43496e-05
4.07846e-05
2.94221e-05
1.58104e-05
-8.97302e-07
7.05965e-05
5.02276e-05
3.23776e-05
1.54657e-05
-6.81959e-06
0.000172384
0.000111769
8.73959e-05
4.90165e-05
2.02751e-05
0.000229654
0.000138744
9.39369e-05
4.74542e-05
4.12976e-06
0.000558706
0.000270788
0.000208238
0.000101542
5.55341e-05
0.00103677
0.000433778
0.000216012
7.63862e-05
-2.64384e-07
0.00371585
0.00117491
0.000294971
8.64219e-05
6.24863e-05
0.000352022
1.36955e-05
-0.000118195
-6.02374e-05
-6.58644e-05
-0.00134766
-0.000221424
5.04194e-06
-1.16933e-05
-5.61532e-06
0.00043661
0.000141735
1.32381e-05
-6.12653e-05
-6.99535e-05
0.00200765
-0.000139581
-0.000239103
-0.000122628
-7.76983e-05
-0.00264974
-0.00100449
-0.000315867
-0.000190031
-0.000148582
-0.000850802
-0.000372262
-0.000197331
-0.000133175
-7.44565e-05
-0.000417276
-0.000317979
-0.000240895
-0.000189938
-0.000145576
-9.3222e-05
-9.9544e-05
-7.19479e-05
-6.81087e-05
-4.9609e-05
-0.000164295
-0.00013847
-9.74643e-05
-7.80967e-05
-3.99428e-05
0.00180858
0.0020715
0.00156761
0.000220938
0.000313958
0.000496228
-0.00259152
-0.000761557
-0.000497315
-0.000625797
-0.000139395
7.53183e-06
0.000741003
0.000176792
-0.000637437
5.70412e-05
-3.02782e-06
-5.00902e-05
0.00434083
0.000978063
0.00048058
0.000562141
8.36714e-05
2.32903e-05
-0.00173443
-0.00233385
0.00138618
-0.000759565
-0.000307004
-0.000217942
-0.00123606
-0.000656731
-0.00160455
-0.000666625
-0.000357318
-0.000457542
-0.000495431
-0.000406191
-0.000779538
-0.000757511
-0.000821894
0.000178779
-0.000294371
-0.000321084
0.000116821
-0.000721414
-0.000430351
-0.00117169
0.000391396
0.000166787
0.00164949
-0.000468142
-1.82531e-05
0.000163659
-0.00280973
-0.00209554
-0.00264286
-0.00097943
-0.000667055
-0.000677511
0.00152757
0.00355436
0.00382777
0.00202715
0.00273327
0.000774286
-0.00204913
-0.00171958
-0.0017378
-0.00140235
-0.00151341
-0.00160173
-0.000172508
-0.000867234
-0.00200336
-0.000254105
-0.00029518
-0.000525302
-0.000965544
-0.000452006
-6.68501e-05
0.00399728
0.00278174
0.0038507
0.00100091
0.00264691
0.00218564
-0.00175622
-0.000879014
-0.000775312
-0.00186344
-0.00106882
-0.00166194
0.000577683
-0.000240414
0.000356641
-0.000727889
-0.000485478
-0.000590314
-0.000999177
-0.00164421
-0.00171471
-0.00109718
-0.00130668
-0.00103409
-0.00231682
-0.00195089
-0.00125305
0.00196438
0.00127006
0.000702013
0.00611528
0.00423666
0.00342522
0.00259802
0.00299734
0.00174247
0.000643566
0.000750207
0.00113373
0.00298453
0.00246169
0.000219883
)
;
    }
}


// ************************************************************************* //
