/*--------------------------------*- C++ -*----------------------------------*\
| =========                 |                                                 |
| \\      /  F ield         | OpenFOAM: The Open Source CFD Toolbox           |
|  \\    /   O peration     | Version:  5.x                                   |
|   \\  /    A nd           | Web:      www.OpenFOAM.org                      |
|    \\/     M anipulation  |                                                 |
\*---------------------------------------------------------------------------*/
FoamFile
{
    version     2.0;
    format      ascii;
    class       volScalarField;
    location    "0.042";
    object      interFace;
}
// * * * * * * * * * * * * * * * * * * * * * * * * * * * * * * * * * * * * * //

dimensions      [0 0 0 0 0 0 0];

internalField   nonuniform List<scalar> 
1595
(
0
0
0
0
0
0
0
0
0
0
0
0
0
0
0
0
0
0
0
0
0
0
0
0
0
0
0
0
0
0
0
0
0
0
0
0
0
0
0
0
0
0
0
0
0
0
0
0
0
0
0
0
0
0
0
0
0
0
0
0
0
0
0
0
0
0
0
0
0
0
0
0
0
0
0
0
0
0
0
0
0
0
0
0
0
0
0
0
0
0
0
0
0
0
0
0
0
0
0
0
0
0
0
0
0
0
0
0
0
0
0
0
0
0
0
0
0
0
0
0
0
0
0
0
0
0
0
0
0
0
0
0
0
0
0
0
0
0
0
0
0
0
0
0
0
0
0
0
0
0
0
0
0
0
0
0
0
0
0
0
0
0
0
0
0
0
0
0
0
0
0
0
0
0
0
0
0
0
0
0
0
0
0
0
0
0
0
0
0
0
0
0
0
0
0
0
0
0
0
0
0
0
0
0
0
0
0
0
0
0
0
0
0
0
0
0
0
0
0
0
0
0
0
0
0
0
0
0
0
0
0
0
0
0
0
0
0
0
0
0
0
0
0
0
0
0
0
0
0
0
0
0
0
0
0
0
0
0
0
0
0
0
0
0
0
0
0
0
0
0
0
0
0
0
0
0
0
0
0
0
0
0
0
0
0
0
0
0
0
0
0
0
0
0
0
0
0
0
0
0
0
0
0
0
0
0
0
0
0
0
0
0
0
0
0
0
0
0
0
0
0
0
0
0
0
0
0
0
0
0
0
0
0
0
0
0
0
0
0
0
0
0
0
0
0
0
0
0
0
0
0
0
0
0
0
0
0
0
0
0
0
0
0
0
0
0
0
0
0
0
0
0
0
0
0
0
0
0
0
0
0
0
0
0
0
0
0
0
0
0
0
0
0
0
0
0
0
0
0
0
0
0
0
0
0
0
0
0
0
0
0
0
0
0
0
0
0
0
0
0
0
0
0
0
0
0
0
0
0
0
0
0
0
0
0
0
0
0
0
0
0
0
0
0
0
0
0
0
0
0
0
0
0
0
0
0
0
0
0
0
0
0
0
0
0
0
0
0
0
0
0
0
0
0
0
0
0
0
0
0
0
0
0
0
0
0
0
0
0
0
0
0
0
0
0
0
0
0
0
0
0
0
0
0
0
0
0
0
0
0
0
0
0
0
0
0
0
0
0
0
0
0
0
0
0
0
0
0
0
0
0
0
0
0
0
0
0
0
0
0
0
0
0
0
0
0
0
0
0
0
0
0
0
0
0
0
0
0
0
0
0
0
0
0
0
0
0
0
0
0
0
0
0
0
0
0
0
0
0
0
0
0
0
0
0
0
0
0
0
0
0
0
0
0
0
0
0
0
0
0
0
0
0
0
0
0
0
0
0
0
0
0
0
0
0
0
0
0
0
0
0
0
0
0
0
0
0
0
0
0
0
0
0
0
0
0
0
0
0
0
0
0
0
0
0
0
0
0
0
0
0
0
0
0
0
0
0
0
0
0
0
0
0
0
0
0
0
0
0
0
0
0
0
0
0
0
0
0
0
0
0
0
0
0
0
0
0
0
0
0
0
0
0
0
0
0
0
0
0
0
0
0
0
0
0
0
0
0
0
0
0
0
0
0
0
0
0
0
0
0
0
0
0
0
0
0.274033
0.722274
0
0
0
0.722276
0
0
0
0
0
0
0
0
0
0
0
0
0
0
0
0
0
0
0
0.0186349
0.466875
0
0
0
0.466878
0
0
0
0
0
0
0
0
0
0
0
0
0
0
0
0
0
0
0
0.480365
0
0
0
0
0
0
0
0
0
0
0
0
0
0
0
0
0
0
0
0
0
0
0
0
0.564068
0
0
0
0
0
0
0
0
0
0
0
0
0
0
0
0
0
0
0
0
0
0
0
0
0.0321654
0.480416
0
0
0
0.480417
0
0
0
0
0
0
0
0
0
0
0
0
0
0
0
0
0
0
0
0.217392
0.862487
0
0
0
0.862488
0
0
0
0
0
0
0
0
0
0
0
0
0
0
0
0
0
0
0
0
0
0
0
0
0
0
0
0
0
0
0
0
0
0
0
0
0
0
0
0
0
0
0
0
0
0
0
0
0
0
0
0
0
0
0
0
0
0
0
0
0
0
0
0
0
0
0
0
0
0
0
0
0
0
0
0
0
0
0
0
0
0
0
0
0
0
0
0
0
0
0
0
0
0
0
0
0
0
0
0
0
0
0
0
0
0
0
0
0
0
0
0
0
0
0
0
0
0
0
0
0
0
0
0
0
0
0
0
0
0
0
0
0
0
0
0
0
0
0
0
0
0
0
0
0.287585
0.287586
0.556536
0.297702
0.566652
0.566653
0.835603
0
0.735827
0
0.745943
0
0.973985
0
0.735827
0
0
0.745945
0.973986
0
0
0.749315
0.749317
0.98073
0.982043
0
0
0
0
0
0
0
0
0
0
0
0
0
0
0
0
0
0.833025
0.833026
0.850599
0.0979102
0.366867
0.366868
0.635825
0.301123
0.301123
0.57008
0.103854
0.372812
0.372812
0.641769
0
0.749374
0
0.552105
0
0.821063
0
0.749374
0
0
0.552106
0.821063
0
0
0.486349
0.48635
0.755307
0.730952
0.910257
0.910257
0
0
0
0
0
0
0
0
0
0
0
0
0
0
0
0.797509
0.525195
0.525195
0.707849
0.570025
0.752679
0.752679
0.465414
0.262224
0.262224
0.37575
0.307056
0.420582
0.420582
0.249518
0.159859
0.342531
0.342532
0.387361
0.204688
0.204689
0.339168
0.428809
0.432181
0.611481
0.473639
0.477011
0.294338
0.339169
0.42881
0.432182
0.611483
0.47364
0.477012
0.294339
0.428819
0.69776
0.701132
0.701132
0.563289
0.56329
0.566661
0.887158
0.614845
0.794145
0.976799
0.659674
0
0.842329
0.887159
0.614846
0.794146
0.976801
0.659675
0
0.84233
0.124801
0.0351375
0.148686
0.148686
0.193518
0.0799694
0.0799696
0.214454
0.304095
0.238339
0.417644
0.348927
0.283171
0.169622
0.214454
0.304095
0.238339
0.417644
0.348927
0.283171
0.169622
0.555066
0.351876
0.531181
0.644707
0.396708
0.689539
0.510234
0.555066
0.351876
0.531181
0.644707
0.396708
0.689539
0.510234
0.644719
0.620834
0.620834
0.913665
0.486361
0.779191
0.779192
0.542983
0.542984
0.811934
0.0152537
0.284203
0.284205
0.553155
0.156496
0.0634643
0.0634648
0.0668367
0.108294
0.111666
0.111667
0.246146
0.153114
0.332414
0.335786
0.197944
0.380616
0.201316
0.246146
0.153115
0.332415
0.335788
0.197945
0.380617
0.201317
0.877041
0.6081
0.970054
0.790772
0.652929
0
0.832211
0.877043
0.608102
0.790774
0.970057
0.652931
0
0.832214
0.304106
0.573052
0.507296
0.507296
0.438579
0.43858
0.372823
0.335796
0.422065
0.422065
0.604738
0.287594
0.470267
0.470267
0.100905
0.0769973
0.0769975
0.0112412
0.121829
0.056073
0.0560733
0
0
0
0
0
0
0
0.190558
0.16665
0.345955
0.280198
0.211482
0.32503
0.145725
0.190558
0.16665
0.345955
0.280199
0.211482
0.325031
0.145726
0.752334
0.483388
0.776219
0.596937
0.52822
0.821051
0.707502
0.752335
0.483389
0.596938
0.77622
0.528221
0.821052
0.707503
0.060083
0.0600835
0.104913
0.146352
0.056693
0.101522
0.101523
0
0.953697
0
0.463494
0
0.732445
0
0.953698
0
0
0.463496
0.732446
0
0
0.784019
0.690987
0.511705
0.515077
0.735817
0.559907
0.739189
0.784021
0.511707
0.69099
0.515079
0.735819
0.559909
0.739191
0.149733
0.329033
0.194563
0.236002
0.325643
0.370472
0.191172
0.149734
0.329034
0.194563
0.236003
0.325644
0.370474
0.191173
0.28021
0.435607
0.435607
0.549156
0.301134
0.414683
0.414683
0.418684
0.418684
0.284213
0.325652
0.594594
0.460123
0.460123
0
0
0
0
0
0
0
0.841987
0.752346
0.68659
0
0.617873
0.97646
0.910704
0.841987
0.752346
0.68659
0
0.617873
0.97646
0.910704
0.298139
0.208476
0.142742
0.142742
0.187574
0.253307
0.253308
0.873669
0.601356
0.959938
0.784029
0.825467
0.649558
0
0.873671
0.601357
0.959939
0.784029
0.825469
0.649559
0
0
0
0
0.546161
0
0.898414
0
0
0
0
0.546162
0.898414
0
0
0.728438
0.70453
0.525248
0.459492
0.749362
0.504324
0.683606
0.728439
0.525249
0.704531
0.459493
0.749363
0.504325
0.683607
0.387792
0.477433
0.232394
0.411699
0.522265
0.277227
0.34296
0.387792
0.477433
0.232395
0.4117
0.522265
0.277227
0.34296
0
0
0
0.449934
0.767616
0.767617
0.946917
0.232612
0.318862
0.318863
0.142953
0.363692
0.187782
0.187783
0.322262
0.408512
0.587813
0.411902
0.453342
0.456732
0.277432
0.322262
0.408513
0.587814
0.411904
0.453343
0.456733
0.277433
0.687606
0.508324
0.732436
0.504933
0.549763
0.773875
0.729045
0.508326
0.687608
0.732438
0.504936
0.549765
0.773877
0.729048
0.477444
0.74639
0.501352
0.501352
0.611917
0.611918
0.366879
0.411912
0.677463
0.677464
0.680854
0.542993
0.546383
0.546383
0.818091
0.614901
0.973488
0.72845
0.839015
0.593977
0.952564
0.818091
0.614901
0.973488
0.72845
0.839015
0.593977
0.952564
0.453525
0.6089
0.6089
0.363861
0.653732
0.408693
0.408693
0
0
0
0
0
0
0
0.597975
0.956557
0.822086
0.773885
0.639414
0.863525
0.997996
0.597976
0.956558
0.822088
0.773885
0.639415
0.863527
0.997997
0.656726
0.770275
0.590993
0.701558
0.815107
0.925672
0.88084
0.656727
0.590994
0.770276
0.701559
0.815108
0.925673
0.880841
0.543178
0.698552
0.877857
0.632819
0.743384
0.677651
0.498346
0.543178
0.698552
0.877857
0.632819
0.743384
0.677651
0.498346
0.494763
0.494764
0.539593
0.760315
0.670655
0.715485
0.715485
0
0
0
0
0
0
0
0
0
0
0
0
0
0
0.767104
0.591193
0.636023
0.860135
0.946385
0.991215
0.815305
0.767105
0.591195
0.636025
0.860137
0.946388
0.991217
0.815308
)
;

boundaryField
{
    inlet
    {
        type            calculated;
        value           uniform 0;
    }
    wall
    {
        type            calculated;
        value           uniform 0;
    }
    outlet
    {
        type            calculated;
        value           uniform 0;
    }
    procBoundary3to1
    {
        type            processor;
        value           uniform 0;
    }
    procBoundary3to2
    {
        type            processor;
        value           uniform 0;
    }
}


// ************************************************************************* //
