/*--------------------------------*- C++ -*----------------------------------*\
| =========                 |                                                 |
| \\      /  F ield         | OpenFOAM: The Open Source CFD Toolbox           |
|  \\    /   O peration     | Version:  5.x                                   |
|   \\  /    A nd           | Web:      www.OpenFOAM.org                      |
|    \\/     M anipulation  |                                                 |
\*---------------------------------------------------------------------------*/
FoamFile
{
    version     2.0;
    format      ascii;
    class       volScalarField;
    location    "0.06";
    object      interFace;
}
// * * * * * * * * * * * * * * * * * * * * * * * * * * * * * * * * * * * * * //

dimensions      [0 0 0 0 0 0 0];

internalField   nonuniform List<scalar> 
1553
(
0
0
0
0
0
0
0
0
0
0
0
0
0
0
0
0
0
0
0
0
0
0
0
0
0
0
0
0
0
0
0
0
0
0
0
0
0
0
0
0
0
0
0
0
0
0
0
0
0
0
0
0
0
0
0
0
0
0
0
0
0
0
0
0
0
0
0
0
0
0
0
0
0
0
0
0
0
0
0
0
0
0
0
0
0
0
0
0
0
0
0
0
0
0
0
0
0
0
0
0
0
0
0
0
0
0
0
0
0
0
0
0
0
0
0
0
0
0
0
0
0
0
0
0
0
0
0
0
0
0
0
0
0
0
0
0
0
0
0
0
0
0
0
0
0
0
0
0
0
0
0
0
0
0
0
0
0
0
0
0
0
0
0
0
0
0
0
0
0
0
0
0
0
0
0
0
0
0
0
0
0
0
0
0
0
0
0
0
0
0
0
0
0
0
0
0
0
0
0
0
0
0
0
0
0
0
0
0
0
0
0
0
0
0
0
0
0
0
0
0
0
0
0
0
0
0
0
0
0
0
0
0
0
0
0
0
0
0
0
0
0
0
0
0
0
0
0
0
0
0
0
0
0
0
0
0
0
0
0
0
0
0
0
0
0
0
0
0
0
0
0
0
0
0
0
0
0
0
0
0
0
0
0
0
0
0
0
0
0
0
0
0
0
0
0
0
0
0
0
0
0
0
0
0
0
0
0
0
0
0
0
0
0
0
0
0
0
0
0
0
0
0
0
0
0
0
0
0
0
0
0
0
0
0
0
0
0
0
0
0
0
0
0
0
0
0
0
0
0
0
0
0
0
0
0
0
0
0
0
0
0
0
0
0
0
0
0
0
0
0
0
0
0
0
0
0
0
0
0
0
0
0
0
0
0
0
0
0
0
0
0
0
0
0
0
0
0
0
0
0
0
0
0
0
0
0
0
0
0
0
0
0
0
0
0
0
0
0
0
0
0
0
0
0
0
0
0
0
0
0
0
0
0
0
0
0
0
0
0
0
0
0
0
0
0
0
0
0
0
0
0
0
0
0
0
0
0
0
0
0
0
0
0
0
0
0
0
0
0
0
0
0
0
0
0
0
0
0
0
0
0
0
0
0
0
0
0
0
0
0
0
0
0
0
0
0
0
0
0
0
0
0
0
0
0
0
0
0
0
0
0
0
0
0
0
0
0
0
0
0
0
0
0
0
0
0
0
0
0
0
0
0
0
0
0
0
0
0
0
0
0
0
0
0
0
0
0
0
0
0
0
0
0
0
0
0
0
0
0
0
0
0
0
0
0
0
0
0
0
0
0
0
0
0
0
0
0
0
0
0
0
0
0
0
0
0
0
0
0
0
0
0
0
0
0
0
0
0
0
0
0
0
0
0
0
0
0
0
0
0
0
0
0
0
0
0
0
0
0
0
0
0
0
0
0
0
0
0
0
0
0
0
0
0
0
0
0
0
0
0
0
0
0
0
0
0
0
0
0
0
0
0
0
0
0
0
0
0
0
0
0
0
0
0
0
0
0
0
0
0
0
0
0
0
0
0.794519
0
0
0
0
0
0
0
0
0
0
0
0
0
0
0
0
0
0
0
0
0
0
0
0
0.128109
0.57648
0
0
0
0.57649
0
0
0
0
0
0
0
0
0
0
0
0
0
0
0
0
0
0
0
0.0772724
0.525644
0
0
0
0.525653
0
0
0
0
0
0
0
0
0
0
0
0
0
0
0
0
0
0
0
0.910932
0
0
0
0
0
0
0
0
0
0
0
0
0
0
0
0
0
0
0
0
0
0
0
0
0.348589
0.838918
0
0
0
0.838921
0
0
0
0
0
0
0
0
0
0
0
0
0
0
0
0
0
0
0
0.0115716
0.459947
0
0
0
0.459949
0
0
0
0
0
0
0
0
0
0
0
0
0
0
0
0
0
0
0
0.391682
0
0
0
0
0
0
0
0
0
0
0
0
0
0
0
0
0
0
0
0
0
0
0
0
0
0
0
0
0
0
0
0
0
0
0
0
0
0
0
0
0
0
0
0
0
0
0
0
0
0
0
0
0
0
0
0
0
0
0
0
0
0
0
0
0
0
0
0
0
0
0
0
0
0
0
0
0
0
0
0
0
0
0
0
0
0
0
0
0
0
0
0
0
0
0
0
0
0
0
0
0
0
0
0
0
0
0
0
0
0
0
0
0
0
0
0
0
0
0
0
0
0
0
0
0
0
0
0
0
0
0
0
0
0
0
0
0
0
0
0
0
0
0
0
0
0
0
0
0
0
0
0
0
0
0
0
0
0
0
0
0
0
0
0
0
0
0
0
0
0
0
0
0
0
0
0
0
0.693514
0.872881
0.872882
0
0.61764
0.617642
0.886692
0.0285952
0.297646
0.297648
0.566698
0.280622
0.280624
0.549675
0.229424
0.498474
0.498476
0.767527
0.660733
0.660735
0.882013
0
0
0
0
0
0
0
0
0
0
0
0
0
0
0
0
0
0
0.34632
0.346327
0.615375
0.50976
0.778808
0.778815
0
0.688488
0.436545
0.436546
0.598762
0.481409
0.643624
0.643625
0.778172
0.526229
0.705597
0.867812
0.571093
0.912676
0.733308
0.778172
0.52623
0.705598
0.867814
0.571093
0.912677
0.733309
0.554622
0.554625
0.599487
0.410504
0.320777
0.365639
0.365642
0
0.872381
0
0.981337
0
0
0
0.872386
0
0
0.981346
0
0
0
0.644305
0.823672
0.689169
0.500186
0.589825
0.634689
0.455322
0.64431
0.823677
0.689172
0.500189
0.589832
0.634694
0.455327
0.913357
0.91336
0.778854
0.589871
0.85888
0.724374
0.724377
0.201713
0.111986
0.274287
0.274288
0.319151
0.156849
0.15685
0
0.728999
0
0.677799
0
0.916145
0
0.729
0
0
0.677802
0.916146
0
0
0.291396
0.381036
0.36397
0.543338
0.4259
0.408834
0.246532
0.291397
0.381038
0.363972
0.543339
0.425901
0.408835
0.246534
0.397157
0.397164
0.666212
0.0227508
0.291798
0.291806
0.560853
0.266341
0.122134
0.122137
0.176615
0.166999
0.221477
0.221479
0.356023
0.211817
0.391184
0.445662
0.256681
0.490527
0.311159
0.356026
0.211822
0.391189
0.445669
0.256684
0.490531
0.311164
0.38108
0.650089
0.633022
0.633023
0.515584
0.515585
0.498518
0.445708
0.480869
0.480872
0.714717
0.346366
0.580212
0.580214
0.129095
0.0564346
0.0564352
0.0393685
0.101298
0.0842315
0.0842321
0.560361
0.901944
0.722663
0.605225
0.946808
0.82937
0.784506
0.560364
0.722665
0.901947
0.605227
0.94681
0.829372
0.784509
0.218779
0.146118
0.325486
0.308419
0.190982
0.353283
0.173915
0.218779
0.146119
0.325487
0.308421
0.190982
0.353284
0.173916
0.0676128
0.0676152
0.112477
0.102776
0.0130497
0.0579117
0.0579142
0
0.833577
0
0.471122
0
0.740177
0
0.833582
0
0
0.471132
0.740179
0
0
0.570508
0.624986
0.66985
0.893994
0.749788
0.794652
0.84913
0.570515
0.624996
0.669858
0.894004
0.7498
0.794662
0.849142
0.308463
0.41517
0.415171
0.577471
0.280666
0.442967
0.442967
0.157295
0.336663
0.20216
0.192459
0.282097
0.326962
0.147594
0.1573
0.336668
0.202162
0.192461
0.282105
0.326967
0.147599
0.426348
0.42635
0.291845
0.282144
0.551152
0.416647
0.416649
0.180166
0.0904394
0.0734582
0.0734589
0.118322
0.135302
0.135303
0
0
0
0.47697
0
0.746023
0
0
0
0
0.476973
0.746023
0
0
0.684092
0.50481
0.487744
0.728955
0.532607
0.756752
0.711889
0.504812
0.684095
0.487746
0.728958
0.532609
0.756755
0.711892
0.269849
0.35949
0.163142
0.342509
0.404354
0.208005
0.224986
0.26985
0.359492
0.163143
0.342511
0.404355
0.208006
0.224987
0.973884
0.973889
0
0.25287
0.521917
0.521925
0.790972
0.137896
0.172971
0.172974
0.0481692
0.217836
0.0930312
0.0930337
0.227578
0.262654
0.442021
0.317217
0.307518
0.362081
0.182714
0.227581
0.262659
0.442026
0.317224
0.307521
0.362086
0.182719
0.515986
0.695266
0.740131
0.461421
0.506285
0.730429
0.685565
0.515994
0.695278
0.74014
0.461431
0.506293
0.730439
0.685577
0.359534
0.628542
0.432193
0.432194
0.494038
0.494038
0.297689
0.317263
0.531706
0.531709
0.586272
0.397203
0.451766
0.451769
0.286831
0.393452
0.393453
0.197104
0.438316
0.241967
0.241968
0.376514
0.483136
0.662503
0.466155
0.527999
0.511018
0.331651
0.376515
0.483137
0.662505
0.466157
0.528
0.51102
0.331652
0.538814
0.701115
0.521834
0.583678
0.745979
0.807823
0.76296
0.538817
0.521836
0.701119
0.58368
0.745982
0.807826
0.762963
0.297732
0.297734
0.342596
0.512177
0.422451
0.467313
0.467315
0
0
0
0.903728
0
0
0
0
0
0
0.903738
0
0
0
0.621345
0.49654
0.541405
0.765549
0.800624
0.845489
0.720684
0.621352
0.49655
0.541412
0.765559
0.800637
0.845499
0.720697
0.387414
0.566782
0.432279
0.60186
0.691498
0.736363
0.556995
0.387419
0.566787
0.432281
0.601862
0.691506
0.736368
0.557
0.466198
0.752188
0.752188
0.735207
0.617684
0.600702
0.600703
0.656467
0.656469
0.521964
0.691545
0.960553
0.826048
0.82605
0
0
0
0
0
0
0
0.594494
0.953144
0.756796
0.81864
0.622291
0.846436
0.980941
0.594496
0.953146
0.756797
0.818642
0.622293
0.846438
0.980942
0
0
0
0
0
0
0
0
0
0
0
0
0
0
0.605671
0.964321
0.829815
0.730476
0.59597
0.820114
0.95462
0.605676
0.964326
0.829823
0.730478
0.595975
0.820122
0.954625
0.807867
0.611518
0.970168
0.673362
0.835663
0.897507
0
0.807868
0.611519
0.970169
0.673364
0.835665
0.897509
0
)
;

boundaryField
{
    inlet
    {
        type            calculated;
        value           uniform 0;
    }
    wall
    {
        type            calculated;
        value           uniform 0;
    }
    outlet
    {
        type            calculated;
        value           uniform 0;
    }
    procBoundary3to1
    {
        type            processor;
        value           uniform 0;
    }
    procBoundary3to2
    {
        type            processor;
        value           uniform 0;
    }
}


// ************************************************************************* //
