/*--------------------------------*- C++ -*----------------------------------*\
| =========                 |                                                 |
| \\      /  F ield         | OpenFOAM: The Open Source CFD Toolbox           |
|  \\    /   O peration     | Version:  5.x                                   |
|   \\  /    A nd           | Web:      www.OpenFOAM.org                      |
|    \\/     M anipulation  |                                                 |
\*---------------------------------------------------------------------------*/
FoamFile
{
    version     2.0;
    format      ascii;
    class       volScalarField;
    location    "0.06";
    object      phiIB;
}
// * * * * * * * * * * * * * * * * * * * * * * * * * * * * * * * * * * * * * //

dimensions      [0 2 -1 0 0 0 0];

internalField   nonuniform List<scalar> 
1553
(
-0.000129849
-0.000129849
-0.000129863
-0.000129867
-0.00012991
-0.000129849
-0.000129848
-0.000129863
-0.000129867
-0.000129909
-0.000129863
-0.000129863
-0.000129877
-0.000129881
-0.000129923
-0.000129867
-0.000129866
-0.000129881
-0.000129885
-0.000129926
-0.000129909
-0.000129909
-0.000129923
-0.000129926
-0.000129968
-0.000264975
-0.000264975
-0.000264982
-0.00026499
-0.000265001
-0.000264975
-0.000264976
-0.000264983
-0.000264991
-0.000265001
-0.000264981
-0.000264982
-0.000264989
-0.000264997
-0.000265008
-0.000264989
-0.00026499
-0.000264997
-0.000265005
-0.000265016
-0.000265
-0.000265001
-0.000265008
-0.000265016
-0.000265026
-0.000603747
-0.00060375
-0.000603772
-0.00060379
-0.000603845
-0.000603749
-0.000603752
-0.000603774
-0.000603793
-0.000603847
-0.000603771
-0.000603774
-0.000603797
-0.000603815
-0.000603869
-0.000603789
-0.000603792
-0.000603815
-0.000603833
-0.000603886
-0.000603844
-0.000603846
-0.000603868
-0.000603886
-0.000603939
-0.000795582
-0.000795586
-0.000795612
-0.000795636
-0.000795689
-0.000795586
-0.00079559
-0.000795615
-0.00079564
-0.000795692
-0.000795611
-0.000795615
-0.00079564
-0.000795665
-0.000795717
-0.000795635
-0.000795639
-0.000795665
-0.000795689
-0.000795741
-0.000795688
-0.000795692
-0.000795717
-0.00079574
-0.000795791
-0.00110879
-0.0011088
-0.00110884
-0.00110888
-0.00110897
-0.0011088
-0.00110881
-0.00110885
-0.00110889
-0.00110897
-0.00110884
-0.00110885
-0.00110889
-0.00110893
-0.00110901
-0.00110888
-0.00110888
-0.00110892
-0.00110896
-0.00110905
-0.00110897
-0.00110897
-0.00110901
-0.00110905
-0.00110914
-0.00132471
-0.00132472
-0.00132478
-0.00132483
-0.00132494
-0.00132472
-0.00132473
-0.00132479
-0.00132484
-0.00132495
-0.00132477
-0.00132478
-0.00132484
-0.00132489
-0.00132501
-0.00132482
-0.00132484
-0.00132489
-0.00132494
-0.00132505
-0.00132494
-0.00132495
-0.00132501
-0.00132505
-0.00132517
-0.00161755
-0.00161757
-0.00161765
-0.00161772
-0.00161789
-0.00161757
-0.00161758
-0.00161767
-0.00161774
-0.00161791
-0.00161765
-0.00161766
-0.00161774
-0.00161782
-0.00161798
-0.00161772
-0.00161774
-0.00161782
-0.00161789
-0.00161805
-0.00161789
-0.00161791
-0.00161798
-0.00161805
-0.00161821
-0.00184958
-0.0018496
-0.00184972
-0.00184982
-0.00185006
-0.0018496
-0.00184962
-0.00184974
-0.00184984
-0.00185008
-0.00184971
-0.00184974
-0.00184985
-0.00184995
-0.00185018
-0.00184982
-0.00184984
-0.00184995
-0.00185005
-0.00185028
-0.00185005
-0.00185007
-0.00185018
-0.00185028
-0.00185051
-0.00212751
-0.00212755
-0.00212771
-0.00212785
-0.00212818
-0.00212754
-0.00212758
-0.00212774
-0.00212788
-0.00212822
-0.0021277
-0.00212774
-0.0021279
-0.00212804
-0.00212837
-0.00212785
-0.00212788
-0.00212804
-0.00212818
-0.0021285
-0.00212818
-0.00212821
-0.00212836
-0.0021285
-0.00212882
-0.00236957
-0.00236961
-0.00236984
-0.00237004
-0.00237051
-0.00236961
-0.00236966
-0.00236989
-0.00237008
-0.00237055
-0.00236984
-0.00236988
-0.00237011
-0.0023703
-0.00237077
-0.00237004
-0.00237008
-0.0023703
-0.00237049
-0.00237095
-0.00237051
-0.00237055
-0.00237077
-0.00237095
-0.0023714
-0.00263646
-0.00263652
-0.00263684
-0.00263712
-0.00263779
-0.00263652
-0.00263659
-0.00263691
-0.00263719
-0.00263785
-0.00263684
-0.0026369
-0.00263721
-0.00263749
-0.00263814
-0.00263712
-0.00263719
-0.00263749
-0.00263777
-0.00263841
-0.00263778
-0.00263785
-0.00263814
-0.00263841
-0.00263902
-0.00288308
-0.00288317
-0.0028836
-0.00288399
-0.00288493
-0.00288317
-0.00288325
-0.00288369
-0.00288407
-0.002885
-0.0028836
-0.00288369
-0.00288412
-0.0028845
-0.00288541
-0.00288398
-0.00288407
-0.0028845
-0.00288487
-0.00288576
-0.00288492
-0.002885
-0.00288541
-0.00288576
-0.00288662
-0.00314035
-0.00314051
-0.00314115
-0.00314174
-0.00314304
-0.00314051
-0.00314066
-0.00314129
-0.00314186
-0.00314316
-0.00314115
-0.00314129
-0.0031419
-0.00314245
-0.00314372
-0.00314173
-0.00314186
-0.00314245
-0.00314298
-0.00314422
-0.00314304
-0.00314316
-0.00314372
-0.00314422
-0.00314542
-0.0033865
-0.0033867
-0.00338751
-0.00338816
-0.00338995
-0.0033867
-0.00338688
-0.00338766
-0.0033883
-0.00339006
-0.0033875
-0.00338766
-0.00338844
-0.00338907
-0.00339077
-0.00338815
-0.00338829
-0.00338907
-0.00338968
-0.00339135
-0.00338994
-0.00339006
-0.00339077
-0.00339135
-0.00339293
-0.00363265
-0.00363283
-0.00363403
-0.00363475
-0.00363688
-0.00363283
-0.00363305
-0.00363419
-0.00363486
-0.00363702
-0.00363403
-0.00363419
-0.00363517
-0.0036358
-0.00363795
-0.00363474
-0.00363485
-0.00363579
-0.00363643
-0.00363856
-0.00363688
-0.00363702
-0.00363795
-0.00363856
-0.00364062
-0.00387796
-0.00387539
-0.0038738
-0.00387344
-0.00387559
-0.00387539
-0.00387369
-0.00387345
-0.00387345
-0.00387561
-0.0038738
-0.00387344
-0.00387422
-0.00387426
-0.00387648
-0.00387343
-0.00387345
-0.00387426
-0.00387435
-0.0038767
-0.00387559
-0.00387561
-0.00387648
-0.00387671
-0.00387902
-0.00410873
-0.00410579
-0.00410038
-0.00409577
-0.00409795
-0.00410579
-0.00410283
-0.00409801
-0.00409523
-0.00409743
-0.00410038
-0.00409801
-0.00409629
-0.00409574
-0.0040982
-0.00409577
-0.00409523
-0.00409573
-0.00409527
-0.00409791
-0.00409795
-0.00409742
-0.0040982
-0.00409791
-0.00410083
-0.00430376
-0.00430273
-0.00430228
-0.0043
-0.0043012
-0.00430273
-0.00430151
-0.00430052
-0.00429805
-0.00430002
-0.00430229
-0.00430053
-0.00429855
-0.00429705
-0.00430037
-0.00430001
-0.00429805
-0.00429705
-0.00429636
-0.00430021
-0.00430121
-0.00430002
-0.00430037
-0.00430022
-0.0043053
-0.00443661
-0.00443921
-0.0044444
-0.00444743
-0.00445193
-0.00443922
-0.00444114
-0.00444552
-0.00444757
-0.00445223
-0.00444441
-0.00444553
-0.00444846
-0.00444885
-0.00445464
-0.00444745
-0.00444758
-0.00444885
-0.00444987
-0.00445829
-0.00445196
-0.00445224
-0.00445465
-0.0044583
-0.0044692
-0.00453153
-0.00453988
-0.00455216
-0.00456363
-0.00457904
-0.0045399
-0.00454606
-0.00455637
-0.00456622
-0.00457945
-0.00455219
-0.00455639
-0.00456491
-0.00457282
-0.00458559
-0.00456367
-0.00456624
-0.00457283
-0.00457892
-0.00459325
-0.00457908
-0.00457947
-0.0045856
-0.00459326
-0.00460664
-0.00454423
-0.0045632
-0.00458594
-0.00461225
-0.00464322
-0.00456322
-0.00457711
-0.00459634
-0.00461897
-0.00464616
-0.00458598
-0.00459636
-0.00461316
-0.00463262
-0.00465746
-0.00461231
-0.004619
-0.00463263
-0.00464725
-0.004669
-0.00464328
-0.0046462
-0.00465748
-0.00466901
-0.00468702
-0.0045795
-0.00460677
-0.0046338
-0.00466863
-0.00470695
-0.0046068
-0.00462751
-0.00464862
-0.00467762
-0.00471069
-0.00463386
-0.00464865
-0.00466781
-0.00469173
-0.00472281
-0.00466871
-0.00467766
-0.00469175
-0.00471061
-0.00473641
-0.00470703
-0.00471075
-0.00472284
-0.00473643
-0.00475861
-0.00455606
-0.00458018
-0.00460826
-0.00464991
-0.0047077
-0.00458021
-0.00460079
-0.00462459
-0.00466316
-0.00471557
-0.00460832
-0.00462462
-0.00464738
-0.00468111
-0.00472432
-0.00464998
-0.0046632
-0.00468113
-0.00470586
-0.00473682
-0.00470777
-0.00471562
-0.00472436
-0.00473684
-0.00476496
-0.00449417
-0.00458631
-0.00461995
-0.00468844
-0.00474953
-0.00458635
-0.00464283
-0.00465872
-0.00471059
-0.00475864
-0.00462001
-0.00465875
-0.00468131
-0.00472216
-0.00476847
-0.00468847
-0.00471059
-0.00472216
-0.00474816
-0.00478107
-0.00474956
-0.00475865
-0.00476849
-0.00478109
-0.00481087
-0.00448999
-0.00457882
-0.00461306
-0.00464942
-0.00472561
-0.00457893
-0.00461852
-0.00463509
-0.00466573
-0.00472459
-0.00461315
-0.00463515
-0.00465487
-0.00467825
-0.00473023
-0.00464939
-0.0046657
-0.00467823
-0.00469676
-0.00473858
-0.00472558
-0.00472457
-0.00473023
-0.00473859
-0.00477375
-0.00405883
-0.00443661
-0.0044817
-0.00462489
-0.0047092
-0.00443702
-0.00464931
-0.00459495
-0.00466939
-0.00472825
-0.0044818
-0.00459502
-0.00461034
-0.00467406
-0.00474024
-0.00462482
-0.00466938
-0.00467403
-0.00471975
-0.00476425
-0.00470916
-0.00472825
-0.00474024
-0.00476426
-0.00480804
-0.00405224
-0.00452093
-0.00450033
-0.00455006
-0.0046873
-0.00452206
-0.00455183
-0.00455363
-0.00457824
-0.00467921
-0.00450025
-0.00455356
-0.00457649
-0.00460055
-0.00469205
-0.00455008
-0.00457822
-0.00460047
-0.00463198
-0.00469609
-0.00468738
-0.00467929
-0.00469206
-0.00469612
-0.00474967
-0.00204925
-0.00392151
-0.00419087
-0.00450129
-0.00464446
-0.0039204
-0.00465492
-0.00438457
-0.00460285
-0.00468128
-0.00419133
-0.00438439
-0.00445093
-0.00459586
-0.00468324
-0.0045025
-0.00460316
-0.00459578
-0.00465939
-0.00471425
-0.004645
-0.00468165
-0.00468331
-0.00471429
-0.00476106
0.000940681
-0.003705
-0.00441607
-0.00452421
-0.0046149
-0.00371027
-0.00304054
-0.00436707
-0.00447397
-0.00458893
-0.00441851
-0.00436797
-0.00445946
-0.00450661
-0.00460784
-0.00452588
-0.00447488
-0.00450658
-0.0045343
-0.00460094
-0.00461548
-0.00458951
-0.00460796
-0.00460098
-0.00466106
-0.00565783
-0.00520489
-0.00472889
-0.00458867
-0.0047028
-0.00521055
-0.00480741
-0.00459778
-0.00465935
-0.00469143
-0.00473065
-0.00459869
-0.00455229
-0.00462639
-0.00464893
-0.0045896
-0.00465996
-0.00462646
-0.004631
-0.00466622
-0.00470337
-0.00469191
-0.00464908
-0.00466628
-0.00467624
-0.0035815
-0.00418261
-0.00409678
-0.00432638
-0.00448514
-0.00418333
-0.00435029
-0.00422743
-0.00438803
-0.00445969
-0.00409705
-0.00422769
-0.00432671
-0.00439616
-0.00446717
-0.00432677
-0.00438836
-0.00439625
-0.00442278
-0.00445983
-0.0044855
-0.00446001
-0.00446733
-0.0044599
-0.00449599
-0.000607398
-0.00258485
-0.0040257
-0.00450841
-0.00445472
-0.0025841
-0.00275563
-0.00418649
-0.00454293
-0.00451025
-0.00402573
-0.00418636
-0.00430856
-0.00448302
-0.0044715
-0.00450878
-0.00454316
-0.00448308
-0.00449732
-0.00450592
-0.00445499
-0.00451047
-0.00447162
-0.00450598
-0.00450668
-0.00512074
-0.00521404
-0.00453271
-0.00437187
-0.0043131
-0.0052141
-0.00452623
-0.00429625
-0.00435464
-0.00429322
-0.00453277
-0.00429623
-0.00427482
-0.00429215
-0.00426205
-0.00437206
-0.00435474
-0.00429218
-0.00426373
-0.00425012
-0.00431332
-0.00429336
-0.00426213
-0.00425016
-0.0042482
-0.00590047
-0.00481792
-0.00435713
-0.00433673
-0.00435298
-0.00481806
-0.00435681
-0.00429199
-0.00435087
-0.00434527
-0.00435725
-0.00429205
-0.00431558
-0.00434159
-0.00433809
-0.00433687
-0.00435094
-0.00434161
-0.00434274
-0.00433132
-0.00435313
-0.00434537
-0.00433814
-0.00433135
-0.00432193
-0.00351272
-0.00397401
-0.003842
-0.00391121
-0.00392691
-0.00397408
-0.00401375
-0.00392241
-0.00392365
-0.00391072
-0.00384213
-0.00392246
-0.00391151
-0.00389741
-0.0039103
-0.00391135
-0.00392372
-0.00389744
-0.00388857
-0.00388438
-0.00392706
-0.0039108
-0.00391035
-0.0038844
-0.00388135
-0.00405306
-0.00401329
-0.00388754
-0.00391623
-0.00390002
-0.00401331
-0.00395576
-0.003899
-0.00391567
-0.00389698
-0.00388761
-0.00389903
-0.00389298
-0.00390129
-0.0038934
-0.00391633
-0.00391572
-0.00390132
-0.00389757
-0.00388262
-0.00390014
-0.00389704
-0.00389344
-0.00388263
-0.00387283
-0.00285299
-0.00297136
-0.00292971
-0.00295158
-0.00300113
-0.00297139
-0.00298307
-0.00295711
-0.00298106
-0.00301526
-0.00292976
-0.00295712
-0.00297846
-0.00300019
-0.00303241
-0.00295165
-0.0029811
-0.0030002
-0.00301837
-0.00303773
-0.00300121
-0.0030153
-0.00303244
-0.00303774
-0.00304296
-0.00280439
-0.00275354
-0.00264272
-0.00256702
-0.00253675
-0.00275356
-0.00269957
-0.00261194
-0.00256214
-0.00253537
-0.00264274
-0.00261195
-0.00256674
-0.00254602
-0.00253193
-0.00256705
-0.00256215
-0.00254603
-0.00253936
-0.00252747
-0.00253678
-0.00253538
-0.00253194
-0.00252747
-0.00252051
-0.00118211
-0.0011986
-0.00119162
-0.00115885
-0.00115694
-0.00119861
-0.00120218
-0.00118893
-0.00114667
-0.00114909
-0.00119162
-0.00118892
-0.00116706
-0.00113862
-0.00114452
-0.00115885
-0.00114667
-0.00113862
-0.00113167
-0.0011375
-0.00115694
-0.00114909
-0.00114453
-0.0011375
-0.00113779
-0.000874508
-0.000800958
-0.000706778
-0.000648552
-0.000622349
-0.000800958
-0.000740137
-0.000669352
-0.000637663
-0.000616278
-0.000706778
-0.00066935
-0.000639396
-0.000621714
-0.000607502
-0.000648555
-0.000637662
-0.000621714
-0.000613573
-0.000602151
-0.000622353
-0.000616277
-0.000607502
-0.000602151
-0.000594999
-0.00390642
-0.00390687
-0.00412978
-0.00234868
-0.00269666
-0.00269683
-0.00319315
-0.00297279
-0.0029724
-0.00418195
-0.00366261
-0.00233227
-0.00233234
-0.00393523
-0.00642241
-0.00642257
-0.00493808
-0.00688466
-0.00609423
-0.0060944
-0.0035394
-0.00561997
-0.00562011
-0.00472552
-0.00444412
-0.00423332
-0.00423339
-0.00437904
-0.00430163
-0.00397641
-0.00411328
-0.00459369
-0.00422301
-0.00443802
-0.0041112
-0.00397647
-0.00430184
-0.00411341
-0.0045938
-0.00443805
-0.00422317
-0.00411128
-0.00628778
-0.00629274
-0.00489474
-0.0051321
-0.00394883
-0.00395027
-0.00343992
-0.00565923
-0.00589497
-0.00589501
-0.00564027
-0.00607829
-0.00558077
-0.00558081
-0.0062207
-0.00594336
-0.00561757
-0.00484945
-0.00655037
-0.00481239
-0.00569797
-0.00622071
-0.00594345
-0.00561773
-0.00484955
-0.00655043
-0.00481247
-0.00569804
-0.00440501
-0.00440548
-0.00374609
-0.00481792
-0.00508953
-0.00489477
-0.00489549
-0.00459596
-0.00501072
-0.00447337
-0.00509693
-0.0040598
-0.00472601
-0.00400464
-0.00501539
-0.00460163
-0.00447988
-0.00509925
-0.00472791
-0.00406284
-0.00400765
-0.00513461
-0.00362261
-0.00469103
-0.00505398
-0.00490586
-0.00478244
-0.00510936
-0.00513553
-0.0036238
-0.00469151
-0.00505513
-0.00490813
-0.00478439
-0.00511094
-0.00438701
-0.00438786
-0.00518534
-0.0051905
-0.00426394
-0.00488952
-0.00489062
-0.00691153
-0.0066067
-0.00672405
-0.0067241
-0.00660927
-0.00670455
-0.00670462
-0.0048065
-0.00504187
-0.00454523
-0.00562645
-0.00454811
-0.00494323
-0.004358
-0.005042
-0.00480658
-0.0045453
-0.00562663
-0.00494334
-0.00454827
-0.00435814
-0.00679535
-0.00670738
-0.0066841
-0.00598199
-0.00658405
-0.00703041
-0.00660182
-0.00679546
-0.0067076
-0.00668422
-0.00598213
-0.00658426
-0.00703049
-0.00660196
-0.00309295
-0.00310069
-0.0038161
-0.0053701
-0.0072554
-0.00726173
-0.00557833
-0.00551651
-0.00584312
-0.0058442
-0.00559726
-0.00602916
-0.00562773
-0.00562862
-0.00565779
-0.00609596
-0.00613307
-0.00557596
-0.00600824
-0.0053129
-0.00593524
-0.00565946
-0.00609878
-0.00613882
-0.00557929
-0.00601079
-0.00531621
-0.00593745
-0.00750905
-0.00490937
-0.00552549
-0.00552554
-0.00575122
-0.0057513
-0.00873735
-0.00597676
-0.00549557
-0.00549941
-0.00471604
-0.00648304
-0.00536582
-0.00536827
-0.00649321
-0.00538607
-0.00538616
-0.00604819
-0.00571313
-0.00623501
-0.00623509
-0.00534196
-0.00484465
-0.0055803
-0.00536447
-0.00467955
-0.00502506
-0.00507814
-0.00534219
-0.00558043
-0.00484485
-0.00536466
-0.00467971
-0.00502528
-0.00507836
-0.00675281
-0.00593624
-0.00584936
-0.00755814
-0.00636268
-0.0073789
-0.00650646
-0.00675291
-0.00593645
-0.00584951
-0.00755842
-0.00636284
-0.00737914
-0.00650662
-0.00571673
-0.00571804
-0.00606813
-0.00552336
-0.00441431
-0.00494295
-0.00494447
-0.0042807
-0.00400411
-0.00430129
-0.00542329
-0.00483967
-0.00535934
-0.00473823
-0.00406142
-0.00429088
-0.00432675
-0.00543001
-0.00536058
-0.00484714
-0.00474966
-0.00521541
-0.00556489
-0.00544156
-0.00444751
-0.00503616
-0.00493662
-0.00465271
-0.00522191
-0.00556883
-0.00544582
-0.00445231
-0.00504206
-0.00494403
-0.00465702
-0.00742943
-0.00564681
-0.00564689
-0.00517534
-0.0070659
-0.00584525
-0.00584533
-0.00637516
-0.00681766
-0.00657817
-0.00668887
-0.00554723
-0.0050272
-0.00596605
-0.00637868
-0.00682485
-0.00658125
-0.00669282
-0.00555517
-0.00503556
-0.00597045
-0.00612807
-0.00613255
-0.00727317
-0.00649915
-0.00424213
-0.00534796
-0.00535684
-0.00185179
-0.00167998
-0.00392415
-0.00392425
-0.00418489
-0.00173065
-0.0017307
-0.00433252
-0.00372231
-0.00438655
-0.00469249
-0.00407797
-0.00435829
-0.00391862
-0.00372308
-0.00433193
-0.00438617
-0.0046923
-0.00435775
-0.00407737
-0.0039179
-0.00482241
-0.00530968
-0.00539238
-0.00469286
-0.0051963
-0.00489089
-0.0050434
-0.00530975
-0.00482232
-0.00539256
-0.00469282
-0.00519652
-0.004891
-0.00504347
-0.00196887
-0.0018383
-0.00466041
-0.0031863
-0.00312195
-0.00488027
-0.00177529
-0.00196862
-0.00183812
-0.00466071
-0.00318625
-0.00312139
-0.00488057
-0.00177526
-0.00299967
-0.00299976
-0.00358307
0.0032091
-0.00241316
-0.00241633
-0.00351307
-0.0036932
0.000468962
0.00046854
-0.00241455
-0.00115476
-0.00310063
-0.00310198
-0.00470014
-0.00148745
-0.00392271
-0.00251557
-0.00265566
-0.00326605
-0.00497828
-0.00470357
-0.00149143
-0.00393129
-0.00252473
-0.00264354
-0.00328282
-0.00498206
-0.00545563
-0.0049028
-0.00475168
-0.0056522
-0.0056789
-0.00430918
-0.00445721
-0.00546387
-0.00490851
-0.00475993
-0.00566075
-0.0056915
-0.00432593
-0.00446545
-0.00159488
-0.00352438
-0.00423893
-0.00423871
-0.00303887
-0.00303851
-0.00364993
-0.00327728
-0.00382857
-0.00384868
-0.00431443
-0.00291677
-0.0047872
-0.0048057
-0.00124297
-0.00091093
-0.000910953
0.000281129
-0.00176297
-0.000282398
-0.000282435
-0.000416968
-0.000991957
-0.00352022
-0.00226185
-0.00191413
-0.00265804
-0.000248759
-0.000416283
-0.000991724
-0.00351977
-0.00226131
-0.00191366
-0.00265728
-0.000248512
-0.00299477
-0.00384177
-0.00461197
-0.00305194
-0.0040982
-0.00393234
-0.00362923
-0.0029942
-0.00461158
-0.00384132
-0.00305121
-0.00409764
-0.00393197
-0.00362879
4.80323e-05
4.68509e-05
-0.00064831
-0.00116985
0.000917628
1.79791e-05
2.10143e-05
-0.00386997
-0.0040199
-0.00399588
-0.00340966
-0.00417178
-0.00381957
-0.0043445
-0.00401469
-0.00386881
-0.00399332
-0.00341448
-0.00383316
-0.0041766
-0.00435031
-0.00361142
-0.00530094
-0.00472931
-0.0041473
-0.00391832
-0.0039711
-0.0039943
-0.00362741
-0.00530896
-0.00475011
-0.00417374
-0.00392563
-0.00399687
-0.004003
-0.000643889
-0.002763
-0.00107061
-0.00254713
-0.00319643
-0.00335695
-0.00211377
-0.000638449
-0.00277516
-0.00107124
-0.00255161
-0.00319489
-0.00335728
-0.00211224
-0.001465
-0.00343254
-0.00343278
-0.00356946
-0.00227469
-0.00289545
-0.00289525
-0.00321878
-0.00322668
-0.0022903
-0.00329224
-0.00355895
-0.0036213
-0.0036202
-0.00477251
-0.00477276
-0.0047565
-0.00458522
-0.00428988
-0.00429006
-0.0040135
-0.00487848
-0.0049516
-0.00481831
-0.00510727
-0.00510969
-0.00471781
-0.00447932
-0.00487864
-0.00495185
-0.00481837
-0.00510748
-0.00510987
-0.00471804
-0.00447951
-0.00453388
-0.00454843
-0.00446837
-0.0048665
-0.00483491
-0.00484153
-0.00402404
-0.00410582
-0.0041061
-0.00415906
-0.00313734
-0.00483362
-0.00483344
-0.00477541
-0.00589112
-0.0045881
-0.00476694
-0.00459146
-0.0046116
-0.00494627
-0.00504813
-0.00589756
-0.00459259
-0.00477475
-0.0046051
-0.00463057
-0.00497153
-0.00507054
-0.00337431
-0.00361029
-0.00449615
-0.00209463
-0.00492819
-0.00426468
-0.00386985
-0.00337351
-0.00360985
-0.00449556
-0.00209387
-0.00492763
-0.00426434
-0.00386952
)
;

boundaryField
{
    inlet
    {
        type            fixedValue;
        value           uniform 0;
    }
    wall
    {
        type            zeroGradient;
    }
    outlet
    {
        type            fixedValue;
        value           uniform 0;
    }
    procBoundary3to1
    {
        type            processor;
        value           nonuniform List<scalar> 
317
(
-0.000129852
-0.000129851
-0.000129866
-0.00012987
-0.000129912
-0.000264976
-0.000264976
-0.000264983
-0.000264991
-0.000265002
-0.000603751
-0.000603753
-0.000603776
-0.000603794
-0.000603849
-0.000795585
-0.00079559
-0.000795615
-0.00079564
-0.000795692
-0.0011088
-0.0011088
-0.00110885
-0.00110888
-0.00110897
-0.00132471
-0.00132472
-0.00132478
-0.00132483
-0.00132495
-0.00161755
-0.00161757
-0.00161765
-0.00161773
-0.0016179
-0.00184958
-0.0018496
-0.00184972
-0.00184982
-0.00185006
-0.00212751
-0.00212755
-0.00212771
-0.00212786
-0.00212819
-0.00236957
-0.00236962
-0.00236985
-0.00237004
-0.00237052
-0.00263646
-0.00263653
-0.00263684
-0.00263713
-0.00263779
-0.00288308
-0.00288317
-0.00288361
-0.00288399
-0.00288493
-0.00314035
-0.00314051
-0.00314116
-0.00314174
-0.00314305
-0.00338652
-0.00338672
-0.00338752
-0.00338817
-0.00338996
-0.00363268
-0.00363286
-0.00363406
-0.00363477
-0.00363691
-0.00387799
-0.00387543
-0.00387386
-0.0038735
-0.00387567
-0.00410878
-0.00410584
-0.00410044
-0.00409584
-0.00409803
-0.00430387
-0.00430286
-0.00430242
-0.00430014
-0.00430136
-0.00443671
-0.00443938
-0.0044446
-0.00444765
-0.00445219
-0.00453168
-0.00454015
-0.00455249
-0.00456398
-0.00457943
-0.00454442
-0.00456355
-0.00458641
-0.00461274
-0.00464379
-0.00457959
-0.00460713
-0.0046344
-0.00466933
-0.00470784
-0.0045561
-0.0045803
-0.00460874
-0.00465064
-0.00470888
-0.00449349
-0.00458576
-0.00462028
-0.00468913
-0.00475084
-0.00448932
-0.00457682
-0.00461266
-0.00464964
-0.00472711
-0.00405497
-0.00442535
-0.00448086
-0.00462586
-0.00471218
-0.00406086
-0.00453402
-0.00451342
-0.00455476
-0.00469145
-0.00205307
-0.00390978
-0.00421485
-0.00449844
-0.00464785
0.000963321
-0.00373875
-0.00448297
-0.00452723
-0.00462166
-0.00564245
-0.00519563
-0.00473985
-0.00458986
-0.00470643
-0.00356895
-0.00418162
-0.00410496
-0.00433099
-0.00449186
-0.000608471
-0.00253627
-0.00403513
-0.00451553
-0.00446119
-0.00512066
-0.0052438
-0.00452985
-0.00437995
-0.00431477
-0.00590729
-0.00481698
-0.00435628
-0.00434556
-0.00435453
-0.00352408
-0.0039698
-0.00384332
-0.00391143
-0.00392724
-0.00404427
-0.00401666
-0.00388749
-0.00391841
-0.00390009
-0.00285416
-0.0029667
-0.00292863
-0.00295011
-0.00300026
-0.00280466
-0.00275555
-0.00264362
-0.00256852
-0.00253818
-0.00118145
-0.00119712
-0.00119065
-0.00115838
-0.00115658
-0.000875368
-0.000801829
-0.000707709
-0.000649342
-0.000623629
-0.00237324
-0.00270059
-0.00389456
-0.00366324
-0.00229425
-0.00297324
-0.00688923
-0.00608331
-0.00643074
-0.00442557
-0.00423153
-0.00561839
-0.00459245
-0.00423635
-0.00430379
-0.00512232
-0.00393987
-0.00625485
-0.00565301
-0.00556627
-0.00588945
-0.00594249
-0.00570168
-0.00484922
-0.00439281
-0.00488063
-0.00507545
-0.00504582
-0.00404102
-0.00458568
-0.00488598
-0.00509164
-0.00512824
-0.00671763
-0.00669958
-0.00660574
-0.00560746
-0.00457864
-0.00476569
-0.00669774
-0.00659291
-0.0066691
-0.00535652
-0.00719744
-0.00311118
-0.00557684
-0.00560041
-0.00581876
-0.00606237
-0.0059098
-0.0055526
-0.00604578
-0.00622865
-0.00538714
-0.00483439
-0.00506562
-0.00533861
-0.00594209
-0.00649104
-0.00751974
-0.00569285
-0.00493664
-0.00440651
-0.00536907
-0.00487322
-0.00430139
-0.00553355
-0.00463367
-0.00501208
-0.0055719
-0.00596754
-0.00633489
-0.0039225
-0.00173512
-0.00168905
-0.00467933
-0.00407417
-0.00431619
-0.00537153
-0.00503164
-0.00478828
-0.0018401
-0.00175013
-0.00464782
0.00324561
-0.00240164
-0.00298847
-0.00240511
-0.00309893
0.000469454
-0.00149965
-0.00498326
-0.00251233
-0.00486168
-0.00440975
-0.00568047
0.000240202
-0.000308734
-0.000914946
-0.000977784
-0.000232903
-0.00225112
-0.00382972
-0.00362363
-0.00298585
5.36857e-05
2.92627e-05
0.000941116
-0.00338072
-0.00415639
-0.00384907
-0.00532565
-0.00400968
-0.00393899
-0.00318681
-0.0021003
-0.000630434
)
;
    }
    procBoundary3to2
    {
        type            processor;
        value           nonuniform List<scalar> 
317
(
-0.000129851
-0.000129851
-0.000129866
-0.000129869
-0.000129912
-0.000264976
-0.000264976
-0.000264982
-0.00026499
-0.000265001
-0.000603751
-0.000603753
-0.000603775
-0.000603793
-0.000603848
-0.000795585
-0.000795589
-0.000795614
-0.000795638
-0.000795691
-0.0011088
-0.0011088
-0.00110884
-0.00110888
-0.00110897
-0.00132471
-0.00132472
-0.00132478
-0.00132483
-0.00132495
-0.00161755
-0.00161757
-0.00161765
-0.00161773
-0.0016179
-0.00184958
-0.0018496
-0.00184972
-0.00184982
-0.00185006
-0.00212751
-0.00212755
-0.00212771
-0.00212785
-0.00212819
-0.00236957
-0.00236961
-0.00236984
-0.00237004
-0.00237051
-0.00263646
-0.00263652
-0.00263684
-0.00263712
-0.00263779
-0.00288308
-0.00288317
-0.0028836
-0.00288399
-0.00288493
-0.00314035
-0.00314051
-0.00314115
-0.00314173
-0.00314304
-0.00338652
-0.00338672
-0.00338752
-0.00338816
-0.00338996
-0.00363268
-0.00363286
-0.00363406
-0.00363477
-0.00363691
-0.00387799
-0.00387543
-0.00387386
-0.0038735
-0.00387568
-0.00410878
-0.00410585
-0.00410045
-0.00409585
-0.00409804
-0.00430387
-0.00430288
-0.00430244
-0.00430016
-0.00430138
-0.00443673
-0.0044394
-0.00444463
-0.00444768
-0.00445222
-0.00453169
-0.00454018
-0.00455254
-0.00456404
-0.00457949
-0.00454445
-0.0045636
-0.00458649
-0.00461283
-0.00464388
-0.00457963
-0.0046072
-0.00463449
-0.00466944
-0.00470796
-0.00455615
-0.00458039
-0.00460886
-0.00465076
-0.00470901
-0.00449358
-0.0045859
-0.00462042
-0.00468923
-0.00475093
-0.00448954
-0.00457708
-0.00461285
-0.0046497
-0.00472714
-0.00405515
-0.0044257
-0.00448102
-0.00462589
-0.00471222
-0.00406159
-0.00453443
-0.00451342
-0.00455485
-0.0046916
-0.00205317
-0.00390914
-0.00421451
-0.00449894
-0.00464826
0.000962407
-0.00374193
-0.00448325
-0.00452794
-0.00462219
-0.00564303
-0.00520008
-0.00474053
-0.00459041
-0.0047069
-0.00356918
-0.00418213
-0.00410534
-0.00433134
-0.00449221
-0.000608514
-0.00253629
-0.0040353
-0.00451583
-0.00446149
-0.00512072
-0.00524396
-0.00453002
-0.00438019
-0.00431504
-0.00590733
-0.00481715
-0.00435649
-0.00434579
-0.0043548
-0.00352414
-0.00396994
-0.00384353
-0.00391165
-0.00392748
-0.00404433
-0.00401679
-0.00388762
-0.00391859
-0.00390027
-0.0028542
-0.00296677
-0.00292872
-0.00295023
-0.00300038
-0.00280467
-0.00275558
-0.00264367
-0.00256857
-0.00253824
-0.00118146
-0.00119714
-0.00119067
-0.00115839
-0.00115659
-0.00087536
-0.000801828
-0.000707709
-0.000649346
-0.000623635
-0.00389506
-0.00270078
-0.00237333
-0.00297344
-0.00229451
-0.00366332
-0.00643098
-0.0060835
-0.00688927
-0.00561854
-0.00423163
-0.0044256
-0.004304
-0.00423651
-0.00459258
-0.00625895
-0.00394119
-0.00512257
-0.00588952
-0.00556633
-0.00565303
-0.00484934
-0.00570177
-0.0059426
-0.00507597
-0.00488178
-0.00439353
-0.00458829
-0.00404282
-0.00504748
-0.00512927
-0.00509329
-0.00488801
-0.00660579
-0.00669969
-0.00671771
-0.00476581
-0.00457877
-0.00560765
-0.00666925
-0.00659309
-0.00669799
-0.00311592
-0.00720263
-0.00535719
-0.00582025
-0.00560172
-0.00557741
-0.00555547
-0.00591192
-0.00606514
-0.00538729
-0.00622877
-0.00604583
-0.00533887
-0.00506583
-0.00483458
-0.00752005
-0.00649123
-0.00594234
-0.00440728
-0.00493871
-0.00569462
-0.00430383
-0.00487588
-0.00537414
-0.00501635
-0.00463693
-0.00553682
-0.00633827
-0.00597168
-0.00557779
-0.00168911
-0.00173528
-0.00392267
-0.00431647
-0.00407416
-0.00467937
-0.00478834
-0.00503177
-0.00537177
-0.00464817
-0.00175035
-0.00184028
-0.00298871
-0.00240709
0.00324465
0.000467387
-0.00310114
-0.00240594
-0.0025202
-0.00498793
-0.00150292
-0.00568625
-0.00441499
-0.00486598
-0.00091505
-0.000308904
0.000240152
-0.00225121
-0.000232939
-0.000977879
-0.00298585
-0.00362372
-0.00382964
0.000938175
2.82551e-05
5.141e-05
-0.00384846
-0.00415803
-0.00338183
-0.00394359
-0.00401516
-0.00533123
-0.000632904
-0.00210405
-0.00318815
)
;
    }
}


// ************************************************************************* //
