/*--------------------------------*- C++ -*----------------------------------*\
| =========                 |                                                 |
| \\      /  F ield         | OpenFOAM: The Open Source CFD Toolbox           |
|  \\    /   O peration     | Version:  5.x                                   |
|   \\  /    A nd           | Web:      www.OpenFOAM.org                      |
|    \\/     M anipulation  |                                                 |
\*---------------------------------------------------------------------------*/
FoamFile
{
    version     2.0;
    format      ascii;
    class       volScalarField;
    location    "0.045";
    object      interFace;
}
// * * * * * * * * * * * * * * * * * * * * * * * * * * * * * * * * * * * * * //

dimensions      [0 0 0 0 0 0 0];

internalField   nonuniform List<scalar> 
1539
(
0
0
0
0
0
0
0
0
0
0
0
0
0
0
0
0
0
0
0
0
0
0
0
0
0
0
0
0
0
0
0
0
0
0
0
0
0
0
0
0
0
0
0
0
0
0
0
0
0
0
0
0
0
0
0
0
0
0
0
0
0
0
0
0
0
0
0
0
0
0
0
0
0
0
0
0
0
0
0
0
0
0
0
0
0
0
0
0
0
0
0
0
0
0
0
0
0
0
0
0
0
0
0
0
0
0
0
0
0
0
0
0
0
0
0
0
0
0
0
0
0
0
0
0
0
0
0
0
0
0
0
0
0
0
0
0
0
0
0
0
0
0
0
0
0
0
0
0
0
0
0
0
0
0
0
0
0
0
0
0
0
0
0
0
0
0
0
0
0
0
0
0
0
0
0
0
0
0
0
0
0
0
0
0
0
0
0
0
0
0
0
0
0
0
0
0
0
0
0
0
0
0
0
0
0
0
0
0
0
0
0
0
0
0
0
0
0
0
0
0
0
0
0
0
0
0
0
0
0
0
0
0
0
0
0
0
0
0
0
0
0
0
0
0
0
0
0
0
0
0
0
0
0
0
0
0
0
0
0
0
0
0
0
0
0
0
0
0
0
0
0
0
0
0
0
0
0
0
0
0
0
0
0
0
0
0
0
0
0
0
0
0
0
0
0
0
0
0
0
0
0
0
0
0
0
0
0
0
0
0
0
0
0
0
0
0
0
0
0
0
0
0
0
0
0
0
0
0
0
0
0
0
0
0
0
0
0
0
0
0
0
0
0
0
0
0
0
0
0
0
0
0
0
0
0
0
0
0
0
0
0
0
0
0
0
0
0
0
0
0
0
0
0
0
0
0
0
0
0
0
0
0
0
0
0
0
0
0
0
0
0
0
0
0
0
0
0
0
0
0
0
0
0
0
0
0
0
0
0
0
0
0
0
0
0
0
0
0
0
0
0
0
0
0
0
0
0
0
0
0
0
0
0
0
0
0
0
0
0
0
0
0
0
0
0
0
0
0
0
0
0
0
0
0
0
0
0
0
0
0
0
0
0
0
0
0
0
0
0
0
0
0
0
0
0
0
0
0
0
0
0
0
0
0
0
0
0
0
0
0
0
0
0
0
0
0
0
0
0
0
0
0
0
0
0
0
0
0
0
0
0
0
0
0
0
0
0
0
0
0
0
0
0
0
0
0
0
0
0
0
0
0
0
0
0
0
0
0
0
0
0
0
0
0
0
0
0
0
0
0
0
0
0
0
0
0
0
0
0
0
0
0
0
0
0
0
0
0
0
0
0
0
0
0
0
0
0
0
0
0
0
0
0
0
0
0
0
0
0
0
0
0
0
0
0
0
0
0
0
0
0
0
0
0
0
0
0
0
0
0
0
0
0
0
0
0
0
0
0
0
0
0
0
0
0
0
0
0
0
0
0
0
0
0
0
0
0
0
0
0
0
0
0
0
0
0
0
0
0
0
0
0
0
0
0
0
0
0
0
0
0
0
0
0
0
0
0
0
0
0
0
0
0
0
0
0
0
0
0
0
0
0
0
0
0
0
0
0
0
0
0
0
0
0
0
0
0
0
0
0
0
0
0
0
0
0
0
0
0
0
0
0
0
0
0
0
0
0
0
0
0
0
0
0
0
0
0
0
0
0
0
0
0
0
0
0
0
0
0
0
0
0
0
0
0
0.434963
0.863532
0
0
0
0
0
0
0
0
0
0
0
0
0
0
0
0
0
0
0
0
0
0
0
0.322224
0.840435
0
0
0
0
0
0
0
0
0
0
0
0
0
0
0
0
0
0
0
0
0
0
0
0.996572
0
0
0
0
0
0
0
0
0
0
0
0
0
0
0
0
0
0
0
0
0
0
0
0
0.671492
0
0
0
0
0
0
0
0
0
0
0
0
0
0
0
0
0
0
0
0
0
0
0
0
0.280802
0.729067
0
0
0
0
0
0
0
0
0
0
0
0
0
0
0
0
0
0
0
0
0
0
0
0.60724
0
0
0
0
0
0
0
0
0
0
0
0
0
0
0
0
0
0
0
0
0
0
0
0
0
0
0
0
0
0
0
0
0
0
0
0
0
0
0
0
0
0
0
0
0
0
0
0
0
0
0
0
0
0
0
0
0
0
0
0
0
0
0
0
0
0
0
0
0
0
0
0
0
0
0
0
0
0
0
0
0
0
0
0
0
0
0
0
0
0
0
0
0
0
0
0
0
0
0
0
0
0
0
0
0
0
0
0
0
0
0
0
0
0
0
0
0
0
0
0
0
0
0
0
0
0
0
0
0
0
0.501494
0.840386
0
0
0.918455
0
0.591183
0.0533383
0.322297
0.708286
0.977244
0.4394
0.708359
0
0.501591
0
0
0
0.918552
0
0
0.817315
0.996621
0.946876
0
0.767624
0.946936
0.940461
0.402615
0.671583
0.311244
0.580212
0.0423664
0.311335
0
0.460069
0.729037
0
0
0.637667
0.882623
0.54977
0.0119246
0.280893
0.4584
0.727368
0.189522
0.458491
0
0.46019
0
0.882683
0
0.637788
0
0
0
0
0
0
0
0
0.876208
0.338363
0.607331
0
0
0.940169
0
0
0
0
0
0
0
0
0.71129
0.652076
0.472794
0.800901
0.517629
0.845737
0.666455
0.445161
0.534778
0.753118
0.573837
0.57961
0.618669
0.400329
0.534814
0.803737
0.842771
0.842795
0.669263
0.669288
0.708322
0.355533
0.265892
0.484208
0.484232
0.52904
0.3107
0.310725
0.445186
0.534851
0.753167
0.573885
0.579659
0.618693
0.400378
0.264769
0.35438
0.503235
0.323954
0.399216
0.368789
0.219934
0.175143
0.0855026
0.234328
0.234358
0.279163
0.130308
0.130338
0.2648
0.354471
0.503296
0.324014
0.399276
0.368819
0.219994
0.800946
0.741732
0.741762
0
0.607286
0.935393
0.935423
0.621665
0.383168
0.383198
0.532024
0.428004
0.576829
0.576859
0.711321
0.652136
0.472854
0.800992
0.51766
0.845797
0.666515
0.703921
0.166077
0.435036
0.283178
0.552137
0.0142921
0.283251
0.226845
0.0981463
0.0981707
0.137205
0.142979
0.182013
0.182037
0.316474
0.367056
0.187775
0.406091
0.232607
0.450923
0.271642
0.316498
0.367105
0.187824
0.406164
0.232632
0.450972
0.27169
0.354425
0.623348
0.592891
0.592922
0.488872
0.488902
0.458445
0.406127
0.456709
0.456734
0.675049
0.32226
0.540576
0.5406
0.115944
0.0567299
0.0567601
0.0263033
0.101565
0.0711086
0.0711389
0.20557
0.325638
0.146356
0.295181
0.191191
0.340016
0.160734
0.80257
0.533647
0.861754
0.682502
0.578482
0.90659
0.757734
0.2056
0.325698
0.146416
0.295272
0.191221
0.340077
0.160795
0.802691
0.533768
0.682593
0.861906
0.578573
0.906711
0.757886
0.0591002
0.0591245
0.103933
0.109707
0.0200665
0.0648745
0.0648989
0
0.614232
0.863484
0
0
0.462447
0.731406
0
0.61433
0
0.73143
0
0.462545
0
0.854283
0.725584
0.546326
0.58536
0.770416
0.630193
0.809451
0.85438
0.546399
0.725706
0.585458
0.770514
0.630266
0.809572
0.32801
0.148729
0.193561
0.199335
0.288952
0.333785
0.154503
0.328059
0.148777
0.193585
0.19936
0.289025
0.333833
0.154552
0.295226
0.415294
0.415324
0.564149
0.280847
0.429672
0.429703
0.417663
0.417687
0.283214
0.288988
0.557911
0.423437
0.423462
0
0
0
0
0
0
0
0.20727
0.117629
0.0871717
0.0872019
0.132007
0.162434
0.162464
0
0.885961
0
0
0
0.490511
0.825108
0
0.886083
0
0.825168
0
0.490632
0
0.296895
0.386506
0.356079
0.176797
0.431342
0.221633
0.25206
0.296926
0.386597
0.35614
0.176858
0.431402
0.221663
0.25212
0.743371
0.684156
0.504904
0.474448
0.728992
0.519283
0.698535
0.743492
0.504995
0.684308
0.474569
0.729113
0.519374
0.698686
0
0.886608
0
0.575198
0.844157
0.306313
0.575272
0.160302
0.210885
0.210909
0.0706614
0.255717
0.115469
0.115494
0.24993
0.479795
0.300513
0.339547
0.345346
0.384379
0.205098
0.249955
0.479844
0.300562
0.33962
0.34537
0.384428
0.205147
0.686538
0.50728
0.73137
0.468222
0.513054
0.737144
0.692312
0.507353
0.686659
0.731467
0.468319
0.513127
0.737242
0.692434
0.386551
0.655474
0.445735
0.445766
0.520998
0.521028
0.311289
0.339583
0.569448
0.569472
0.608506
0.434999
0.474032
0.474057
0.833118
0.953185
0.594621
0.743446
0.818739
0.967564
0.609
0.833027
0.953125
0.594561
0.743416
0.818648
0.967503
0.608939
0.327352
0.44742
0.447451
0.237712
0.492256
0.282517
0.282547
0
0
0
0
0
0
0
0.955496
0.596933
0.821023
0.737181
0.602707
0.826797
0.961271
0.955545
0.596981
0.821096
0.737205
0.602756
0.82687
0.961319
0.565773
0.714598
0.535346
0.610609
0.759434
0.834696
0.78986
0.565894
0.535437
0.71475
0.610699
0.759555
0.834817
0.790012
0.416978
0.716328
0.537046
0.506589
0.581882
0.551425
0.372143
0.417008
0.716389
0.537107
0.50668
0.581912
0.551485
0.372203
0.351121
0.351145
0.395953
0.58101
0.491369
0.536177
0.536202
0
0
0
0
0
0.96465
0
0
0
0
0
0
0.964747
0
0.659065
0.518817
0.563649
0.787739
0.838322
0.883155
0.742907
0.659138
0.518914
0.563722
0.787837
0.838444
0.883252
0.743029
0.506634
0.805984
0.806014
0.775557
0.671538
0.641081
0.641111
0.620031
0.440749
0.485582
0.670638
0.760255
0.805087
0.625806
0.62008
0.440798
0.485606
0.670663
0.760328
0.805136
0.625855
0.709684
0.709708
0.575235
0.760291
0
0.89474
0.894765
)
;

boundaryField
{
    inlet
    {
        type            calculated;
        value           uniform 0;
    }
    wall
    {
        type            calculated;
        value           uniform 0;
    }
    outlet
    {
        type            calculated;
        value           uniform 0;
    }
    procBoundary1to0
    {
        type            processor;
        value           uniform 0;
    }
    procBoundary1to3
    {
        type            processor;
        value           uniform 0;
    }
}


// ************************************************************************* //
