/*--------------------------------*- C++ -*----------------------------------*\
| =========                 |                                                 |
| \\      /  F ield         | OpenFOAM: The Open Source CFD Toolbox           |
|  \\    /   O peration     | Version:  5.x                                   |
|   \\  /    A nd           | Web:      www.OpenFOAM.org                      |
|    \\/     M anipulation  |                                                 |
\*---------------------------------------------------------------------------*/
FoamFile
{
    version     2.0;
    format      ascii;
    class       surfaceScalarField;
    location    "0.045";
    object      phi;
}
// * * * * * * * * * * * * * * * * * * * * * * * * * * * * * * * * * * * * * //

dimensions      [0 3 -1 0 0 0 0];

internalField   nonuniform List<scalar> 
4261
(
2.02337e-08
-7.96135e-08
-1.30796e-08
4.35282e-08
-8.00238e-08
-1.61158e-08
5.48099e-08
-7.9716e-08
-4.07689e-09
7.22337e-08
-7.97521e-08
-1.01767e-08
-7.89571e-08
1.27372e-08
1.97303e-08
-6.20828e-08
-3.87357e-08
4.37505e-08
-6.24839e-08
-4.15541e-08
5.53408e-08
-6.22508e-08
-2.90491e-08
7.29963e-08
-6.23307e-08
-3.50697e-08
-6.16573e-08
-1.16718e-08
1.92428e-08
-5.10018e-08
-3.26749e-08
4.35639e-08
-5.1346e-08
-3.5454e-08
5.52727e-08
-5.11367e-08
-2.28179e-08
7.30337e-08
-5.12078e-08
-2.88781e-08
-5.06589e-08
-5.40636e-09
1.90599e-08
-2.6171e-08
-4.69153e-08
4.37512e-08
-2.64742e-08
-4.95576e-08
5.56297e-08
-2.63674e-08
-3.66438e-08
7.35439e-08
-2.64687e-08
-4.26487e-08
-2.61278e-08
-1.89068e-08
1.87054e-08
-4.43616e-08
4.35785e-08
-4.70165e-08
5.55419e-08
-3.4018e-08
7.35404e-08
-4.00486e-08
-1.62583e-08
9.72419e-09
-3.98228e-08
-2.40417e-08
2.42774e-08
-3.94883e-08
-2.30031e-08
3.29841e-08
-3.87919e-08
-5.20587e-09
3.32037e-08
-3.86152e-08
-2.84837e-09
-3.80584e-08
2.61252e-08
1.09229e-08
-4.16574e-08
-5.49924e-08
2.50819e-08
-4.1304e-08
-5.38886e-08
3.36694e-08
-4.0662e-08
-3.57566e-08
3.37823e-08
-4.04758e-08
-3.33113e-08
-3.99653e-08
-3.76433e-09
1.13877e-08
-3.42755e-08
-5.78195e-08
2.53342e-08
-3.3978e-08
-5.67186e-08
3.386e-08
-3.34566e-08
-3.85409e-08
3.39153e-08
-3.32982e-08
-3.61019e-08
-3.2869e-08
-6.4732e-09
1.20765e-08
-2.15855e-08
-7.71165e-08
2.5853e-08
-2.13179e-08
-7.59856e-08
3.43128e-08
-2.09533e-08
-5.75998e-08
3.4311e-08
-2.08266e-08
-5.51109e-08
-2.05593e-08
-2.51315e-08
1.24095e-08
-7.87456e-08
2.60586e-08
-7.76239e-08
3.44656e-08
-5.92189e-08
3.44139e-08
-5.67381e-08
-2.67184e-08
2.50109e-08
-8.69384e-08
-4.22626e-08
5.15779e-08
-8.71674e-08
-4.1385e-08
6.56665e-08
-8.67533e-08
-1.11173e-08
7.97247e-08
-8.67275e-08
-8.70127e-09
-8.5785e-08
4.09293e-08
2.4784e-08
-7.32358e-08
-9.57084e-08
5.19451e-08
-7.3503e-08
-9.47028e-08
6.63449e-08
-7.31778e-08
-6.37198e-08
8.06395e-08
-7.31911e-08
-6.11295e-08
-7.23836e-08
-1.03921e-08
2.45395e-08
-5.93085e-08
-9.89551e-08
5.18599e-08
-5.95704e-08
-9.79605e-08
6.63502e-08
-5.93203e-08
-6.68777e-08
8.07233e-08
-5.93541e-08
-6.43002e-08
-5.87082e-08
-1.33988e-08
2.43787e-08
-3.18417e-08
-1.32223e-07
5.20756e-08
-3.20981e-08
-1.31141e-07
6.6769e-08
-3.20127e-08
-9.95894e-08
8.13062e-08
-3.2089e-08
-9.69018e-08
-3.1745e-08
-4.53094e-08
2.41244e-08
-1.34191e-07
5.19403e-08
-1.33118e-07
6.6712e-08
-1.01511e-07
8.13196e-08
-9.88337e-08
-4.7151e-08
2.25739e-08
-9.05626e-08
-6.37527e-08
5.16064e-08
-9.02296e-08
-6.06703e-08
6.7966e-08
-8.89459e-08
-1.78812e-08
7.99895e-08
-8.86676e-08
-1.11401e-08
-8.71163e-08
5.7865e-08
2.39506e-08
-8.00359e-08
-1.37534e-07
5.30663e-08
-7.97193e-08
-1.34314e-07
6.94932e-08
-7.85764e-08
-9.05014e-08
8.15609e-08
-7.83324e-08
-8.35173e-08
-7.69681e-08
-1.27988e-08
2.42192e-08
-6.47574e-08
-1.45483e-07
5.33111e-08
-6.44842e-08
-1.42273e-07
6.97277e-08
-6.35351e-08
-9.83213e-08
8.17972e-08
-6.33335e-08
-9.1354e-08
-6.22196e-08
-2.03963e-08
2.51382e-08
-3.64632e-08
-1.91783e-07
5.42803e-08
-3.62489e-08
-1.88499e-07
7.07242e-08
-3.56267e-08
-1.43926e-07
8.28154e-08
-3.54943e-08
-1.36817e-07
-3.4835e-08
-6.48131e-08
2.53616e-08
-1.96319e-07
5.44715e-08
-1.93044e-07
7.08952e-08
-1.48407e-07
8.29764e-08
-1.41313e-07
-6.91873e-08
4.10055e-08
-1.39292e-07
-9.49059e-08
8.4202e-08
-1.39302e-07
-9.04713e-08
1.07633e-07
-1.3804e-07
-2.80539e-08
1.28229e-07
-1.37781e-07
-1.84771e-08
-1.35615e-07
8.20486e-08
4.1454e-08
-1.19266e-07
-2.03008e-07
8.55297e-08
-1.19323e-07
-1.98354e-07
1.09427e-07
-1.18251e-07
-1.34172e-07
1.30376e-07
-1.18053e-07
-1.24179e-07
-1.16179e-07
-2.08059e-08
4.13993e-08
-9.59954e-08
-2.14392e-07
8.56535e-08
-9.60849e-08
-2.09749e-07
1.09641e-07
-9.52361e-08
-1.45308e-07
1.30674e-07
-9.50931e-08
-1.3533e-07
-9.35981e-08
-3.15444e-08
4.16399e-08
-5.16098e-08
-2.82422e-07
8.64775e-08
-5.17558e-08
-2.77644e-07
1.10762e-07
-5.13701e-08
-2.12057e-07
1.32032e-07
-5.13502e-08
-2.01812e-07
-5.05902e-08
-9.62359e-08
4.15027e-08
-2.88912e-07
8.64629e-08
-2.84145e-07
1.1082e-07
-2.1843e-07
1.32159e-07
-2.08195e-07
-1.02399e-07
5.08157e-08
-1.82036e-07
-1.36822e-07
1.07793e-07
-1.81639e-07
-1.29706e-07
1.39237e-07
-1.79145e-07
-4.20365e-08
1.65397e-07
-1.7863e-07
-2.71707e-08
-1.749e-07
1.13742e-07
5.26378e-08
-1.56962e-07
-2.88762e-07
1.10572e-07
-1.56614e-07
-2.81298e-07
1.42564e-07
-1.54432e-07
-1.90864e-07
1.6914e-07
-1.54e-07
-1.7537e-07
-1.50774e-07
-2.98783e-08
5.28829e-08
-1.26042e-07
-3.0611e-07
1.10934e-07
-1.25743e-07
-2.98657e-07
1.42986e-07
-1.23971e-07
-2.07806e-07
1.69626e-07
-1.23625e-07
-1.92333e-07
-1.21058e-07
-4.62136e-08
5.41019e-08
-6.8249e-08
-4.01621e-07
1.12725e-07
-6.80644e-08
-3.93925e-07
1.45087e-07
-6.70258e-08
-3.01349e-07
1.71962e-07
-6.68374e-08
-2.85459e-07
-6.54228e-08
-1.36552e-07
5.42852e-08
-4.11514e-07
1.12972e-07
-4.03816e-07
1.4535e-07
-3.10995e-07
1.72257e-07
-2.95118e-07
-1.45865e-07
7.7342e-08
-2.59493e-07
-1.95867e-07
1.57483e-07
-2.59139e-07
-1.85385e-07
2.01383e-07
-2.55544e-07
-6.1928e-08
2.3875e-07
-2.54719e-07
-4.05519e-08
-2.4904e-07
1.57707e-07
7.9209e-08
-2.22604e-07
-4.11313e-07
1.61382e-07
-2.2234e-07
-4.00261e-07
2.06304e-07
-2.19176e-07
-2.72144e-07
2.44419e-07
-2.18483e-07
-2.49712e-07
-2.13517e-07
-4.40555e-08
7.94062e-08
-1.78341e-07
-4.36417e-07
1.61933e-07
-1.78176e-07
-4.25337e-07
2.07006e-07
-1.75613e-07
-2.96433e-07
2.45263e-07
-1.75054e-07
-2.7401e-07
-1.71061e-07
-6.7299e-08
8.05843e-08
-9.50943e-08
-5.72346e-07
1.64483e-07
-9.51113e-08
-5.60874e-07
2.10197e-07
-9.38536e-08
-4.28812e-07
2.4891e-07
-9.36203e-08
-4.05595e-07
-9.15895e-08
-1.94189e-07
8.05758e-08
-5.86625e-07
1.64689e-07
-5.75139e-07
2.10523e-07
-4.42676e-07
2.49339e-07
-4.19428e-07
-2.07441e-07
1.05992e-07
-3.59105e-07
-2.78456e-07
2.17112e-07
-3.58455e-07
-2.62905e-07
2.78374e-07
-3.52854e-07
-9.01169e-08
3.29793e-07
-3.51839e-07
-5.87343e-08
-3.42636e-07
2.19142e-07
1.09425e-07
-3.07735e-07
-5.81831e-07
2.23285e-07
-3.07209e-07
-5.65365e-07
2.86284e-07
-3.02396e-07
-3.85598e-07
3.38999e-07
-3.01632e-07
-3.52632e-07
-2.93766e-07
-6.30199e-08
1.09714e-07
-2.45566e-07
-6.18014e-07
2.23853e-07
-2.45084e-07
-6.01598e-07
2.87046e-07
-2.41245e-07
-4.20776e-07
3.40001e-07
-2.4069e-07
-3.87905e-07
-2.3461e-07
-9.67136e-08
1.11921e-07
-1.30701e-07
-8.08529e-07
2.27695e-07
-1.30484e-07
-7.91242e-07
2.91819e-07
-1.28352e-07
-6.05824e-07
3.45525e-07
-1.28097e-07
-5.71891e-07
-1.24847e-07
-2.73694e-07
1.1214e-07
-8.29298e-07
2.28156e-07
-8.11989e-07
2.92304e-07
-6.25681e-07
3.46121e-07
-5.91801e-07
-2.92693e-07
1.50926e-07
-5.02409e-07
-3.94337e-07
3.04228e-07
-5.01574e-07
-3.71381e-07
3.89162e-07
-4.92282e-07
-1.30943e-07
4.60693e-07
-4.90481e-07
-8.57566e-08
-4.75737e-07
3.01212e-07
1.5598e-07
-4.2979e-07
-8.2024e-07
3.1436e-07
-4.29384e-07
-7.95936e-07
4.01994e-07
-4.21166e-07
-5.4435e-07
4.75434e-07
-4.19875e-07
-4.9668e-07
-4.07021e-07
-9.11735e-08
1.56198e-07
-3.41575e-07
-8.72441e-07
3.15179e-07
-3.41695e-07
-8.48271e-07
4.03279e-07
-3.35367e-07
-5.94677e-07
4.77235e-07
-3.34532e-07
-5.47205e-07
-3.24336e-07
-1.39237e-07
1.59097e-07
-1.80158e-07
-1.13934e-06
3.21506e-07
-1.80506e-07
-1.11484e-06
4.11523e-07
-1.77576e-07
-8.53635e-07
4.86571e-07
-1.77347e-07
-8.04124e-07
-1.72179e-07
-3.84958e-07
1.58756e-07
-1.16753e-06
3.21393e-07
-1.14356e-06
4.11955e-07
-8.8206e-07
4.87454e-07
-8.32698e-07
-4.12161e-07
2.13889e-07
-7.09125e-07
-5.57487e-07
4.30902e-07
-7.08e-07
-5.23959e-07
5.52042e-07
-6.95122e-07
-1.88235e-07
6.51981e-07
-6.93073e-07
-1.20917e-07
-6.70057e-07
4.22482e-07
2.21535e-07
-6.01622e-07
-1.16215e-06
4.4533e-07
-6.02031e-07
-1.12571e-06
5.71401e-07
-5.93151e-07
-7.72396e-07
6.74991e-07
-5.92962e-07
-7.00385e-07
-5.73609e-07
-1.27653e-07
2.2031e-07
-4.72041e-07
-1.23525e-06
4.44076e-07
-4.73341e-07
-1.20073e-06
5.71606e-07
-4.68357e-07
-8.47005e-07
6.77038e-07
-4.69687e-07
-7.75915e-07
-4.55288e-07
-1.98531e-07
2.22749e-07
-2.47527e-07
-1.5994e-06
4.49061e-07
-2.48532e-07
-1.56597e-06
5.80441e-07
-2.46162e-07
-1.20721e-06
6.89874e-07
-2.47519e-07
-1.13573e-06
-2.39958e-07
-5.407e-07
2.21778e-07
-1.63638e-06
4.47709e-07
-1.60438e-06
5.79946e-07
-1.24677e-06
6.90918e-07
-1.1773e-06
-5.79436e-07
3.00461e-07
-9.89176e-07
-7.84043e-07
5.98808e-07
-9.87481e-07
-7.33055e-07
7.66345e-07
-9.64964e-07
-2.66793e-07
9.00885e-07
-9.60918e-07
-1.64948e-07
-9.23509e-07
5.9118e-07
3.13059e-07
-8.5e-07
-1.62904e-06
6.23467e-07
-8.49158e-07
-1.57444e-06
7.98964e-07
-8.28901e-07
-1.08396e-06
9.38313e-07
-8.25863e-07
-9.7479e-07
-7.93284e-07
-1.73505e-07
3.15103e-07
-6.78071e-07
-1.73731e-06
6.26541e-07
-6.76016e-07
-1.68531e-06
8.01984e-07
-6.56794e-07
-1.19456e-06
9.42292e-07
-6.53762e-07
-1.08832e-06
-6.29122e-07
-2.79882e-07
3.26093e-07
-3.60564e-07
-2.25865e-06
6.4566e-07
-3.58504e-07
-2.20304e-06
8.22323e-07
-3.47182e-07
-1.69349e-06
9.64817e-07
-3.45146e-07
-1.58683e-06
-3.32464e-07
-7.54346e-07
3.28054e-07
-2.3239e-06
6.4778e-07
-2.26495e-06
8.23241e-07
-1.75155e-06
9.66519e-07
-1.64757e-06
-8.11682e-07
4.6629e-07
-1.46779e-06
-1.0905e-06
9.10694e-07
-1.45635e-06
-1.00452e-06
1.14195e-06
-1.41864e-06
-3.30887e-07
1.31672e-06
-1.40654e-06
-1.75277e-07
-1.34366e-06
8.95514e-07
4.95309e-07
-1.3226e-06
-2.28844e-06
9.61111e-07
-1.29957e-06
-2.19702e-06
1.19968e-06
-1.24643e-06
-1.49474e-06
1.3796e-06
-1.23221e-06
-1.32904e-06
-1.17439e-06
-1.86052e-07
5.03631e-07
-1.08851e-06
-2.49465e-06
9.77959e-07
-1.06911e-06
-2.39011e-06
1.21419e-06
-1.01539e-06
-1.66183e-06
1.39184e-06
-9.98281e-07
-1.4999e-06
-9.47409e-07
-3.47287e-07
5.35996e-07
-5.94815e-07
-3.30907e-06
1.03078e-06
-5.78405e-07
-3.18852e-06
1.26746e-06
-5.44217e-07
-2.40133e-06
1.42971e-06
-5.34904e-07
-2.21246e-06
-5.05196e-07
-1.03108e-06
5.52002e-07
-3.46961e-06
1.05022e-06
-3.31877e-06
1.29065e-06
-2.51427e-06
1.44142e-06
-2.31144e-06
-1.12447e-06
7.11624e-07
-2.17296e-06
-1.41802e-06
1.36622e-06
-2.13977e-06
-1.28001e-06
1.66264e-06
-2.00065e-06
-3.38483e-07
1.84007e-06
-1.97354e-06
-7.8241e-08
-1.87558e-06
1.40674e-06
7.45947e-07
-2.06619e-06
-3.16487e-06
1.42395e-06
-2.01518e-06
-2.99962e-06
1.75786e-06
-1.8577e-06
-1.9716e-06
1.9382e-06
-1.80113e-06
-1.68178e-06
-1.70612e-06
-9.15732e-08
7.90789e-07
-1.75477e-06
-3.62261e-06
1.48498e-06
-1.69457e-06
-3.40491e-06
1.81307e-06
-1.53797e-06
-2.30965e-06
1.96506e-06
-1.47434e-06
-1.97868e-06
-1.41615e-06
-3.58947e-07
8.83921e-07
-1.0005e-06
-4.97632e-06
1.64083e-06
-9.45644e-07
-4.69434e-06
1.97098e-06
-8.48302e-07
-3.42115e-06
2.10499e-06
-8.0002e-07
-3.0208e-06
-7.64543e-07
-1.31323e-06
9.38433e-07
-5.40613e-06
1.70339e-06
-4.99589e-06
2.02369e-06
-3.65114e-06
2.13826e-06
-3.19538e-06
-1.46128e-06
1.10324e-06
-3.3599e-06
-1.77879e-06
2.09656e-06
-3.28673e-06
-1.55708e-06
2.50226e-06
-3.01202e-06
-2.24934e-07
2.70876e-06
-2.93305e-06
1.83325e-07
-2.74936e-06
2.24096e-06
1.19864e-06
-3.3072e-06
-4.44419e-06
2.22379e-06
-3.18358e-06
-4.12791e-06
2.6945e-06
-2.8894e-06
-2.56493e-06
2.89279e-06
-2.74408e-06
-2.06904e-06
-2.55134e-06
1.6682e-07
1.31757e-06
-2.89918e-06
-5.37829e-06
2.4209e-06
-2.83059e-06
-4.86123e-06
2.83773e-06
-2.48638e-06
-3.12951e-06
2.97239e-06
-2.28459e-06
-2.57282e-06
-2.15319e-06
-2.48747e-07
1.40749e-06
-1.47579e-06
-7.83668e-06
2.76574e-06
-1.47214e-06
-7.41104e-06
3.13508e-06
-1.38587e-06
-4.89099e-06
3.24831e-06
-1.26433e-06
-4.15429e-06
-1.16386e-06
-1.59705e-06
1.41123e-06
-8.29134e-06
2.83193e-06
-7.85526e-06
3.26007e-06
-5.42962e-06
3.32381e-06
-4.48899e-06
-1.83211e-06
1.44593e-06
-4.74331e-06
-2.03425e-06
2.75655e-06
-4.60562e-06
-1.75106e-06
3.31588e-06
-4.14639e-06
2.58405e-08
3.58375e-06
-3.92593e-06
5.50501e-07
-3.6353e-06
3.28956e-06
1.62111e-06
-4.00958e-06
-6.82726e-06
3.19624e-06
-4.00577e-06
-6.3029e-06
3.63636e-06
-3.91119e-06
-3.24027e-06
3.87762e-06
-3.69121e-06
-2.54502e-06
-3.37486e-06
5.30673e-07
1.6045e-06
-3.06406e-06
-7.95693e-06
3.2436e-06
-3.10056e-06
-7.40554e-06
3.85377e-06
-3.30579e-06
-4.34509e-06
4.09938e-06
-3.26294e-06
-3.2467e-06
-2.82213e-06
-5.84702e-10
1.58825e-06
-1.63609e-06
-1.08831e-05
3.03887e-06
-1.65095e-06
-1.03113e-05
3.94336e-06
-1.6664e-06
-7.43489e-06
4.55423e-06
-1.68425e-06
-6.34385e-06
-1.51413e-06
-1.80215e-06
1.57123e-06
-1.1496e-05
2.99843e-06
-1.08978e-05
3.94234e-06
-8.0026e-06
4.69301e-06
-6.88471e-06
-2.10341e-06
2.06379e-06
-6.41557e-06
-2.9375e-06
3.83661e-06
-6.35372e-06
-2.33847e-06
4.66747e-06
-6.09073e-06
3.07114e-07
5.02673e-06
-5.77961e-06
1.11259e-06
-5.08254e-06
4.46291e-06
2.14928e-06
-5.56655e-06
-9.85659e-06
4.0527e-06
-5.51941e-06
-9.04064e-06
5.23055e-06
-5.35124e-06
-5.15762e-06
5.72642e-06
-5.29182e-06
-3.5287e-06
-4.72832e-06
1.08846e-06
2.16595e-06
-4.2989e-06
-1.14225e-05
4.08138e-06
-4.26648e-06
-1.05739e-05
5.28815e-06
-4.14875e-06
-6.75435e-06
6.03825e-06
-4.11984e-06
-5.16877e-06
-3.90089e-06
2.75665e-07
2.22894e-06
-2.31938e-06
-1.51245e-05
4.1974e-06
-2.2989e-06
-1.42473e-05
5.45279e-06
-2.2356e-06
-1.06034e-05
6.29166e-06
-2.22061e-06
-9.08196e-06
-2.1373e-06
-2.3979e-06
2.24805e-06
-1.60617e-05
4.22637e-06
-1.51375e-05
5.49224e-06
-1.14656e-05
6.33792e-06
-9.91134e-06
-3.04064e-06
2.69219e-06
-7.61686e-06
-4.88242e-06
5.05891e-06
-7.65094e-06
-3.79967e-06
6.00762e-06
-7.64074e-06
4.61074e-07
6.51652e-06
-7.48526e-06
1.69733e-06
-6.58675e-06
5.74161e-06
2.70808e-06
-6.89327e-06
-1.33231e-05
5.04475e-06
-6.83749e-06
-1.21908e-05
6.45676e-06
-6.66473e-06
-7.54564e-06
7.41725e-06
-6.53286e-06
-5.44158e-06
-6.0845e-06
1.66856e-06
2.72556e-06
-5.39243e-06
-1.56852e-05
5.08086e-06
-5.32911e-06
-1.44376e-05
6.58649e-06
-5.16554e-06
-9.75918e-06
7.56978e-06
-5.12908e-06
-7.55585e-06
-5.14365e-06
4.24017e-07
2.82153e-06
-2.94934e-06
-2.04282e-05
5.24353e-06
-2.90725e-06
-1.90912e-05
6.75508e-06
-2.81079e-06
-1.44697e-05
7.56728e-06
-2.79091e-06
-1.22323e-05
-2.76424e-06
-3.89713e-06
2.86247e-06
-2.18701e-05
5.3047e-06
-2.04409e-05
6.80857e-06
-1.57314e-05
7.53583e-06
-1.33797e-05
-4.99548e-06
3.8709e-06
-1.1779e-05
-7.45047e-06
7.29677e-06
-1.15928e-05
-5.84775e-06
8.87428e-06
-1.13373e-05
3.92775e-07
9.79794e-06
-1.09299e-05
2.22219e-06
-9.87485e-06
7.92802e-06
4.17441e-06
-1.08557e-05
-1.84626e-05
7.67776e-06
-1.06153e-05
-1.66716e-05
9.74898e-06
-1.0194e-05
-1.07601e-05
1.08541e-05
-9.83517e-06
-7.64144e-06
-8.96244e-06
2.19514e-06
4.33472e-06
-8.57226e-06
-2.23464e-05
7.90678e-06
-8.35265e-06
-2.02723e-05
1.01062e-05
-8.00155e-06
-1.4151e-05
1.12582e-05
-7.7713e-06
-1.07717e-05
-7.38636e-06
3.44864e-07
4.56769e-06
-4.81942e-06
-2.87937e-05
8.2565e-06
-4.66523e-06
-2.64674e-05
1.0525e-05
-4.4313e-06
-2.03085e-05
1.1511e-05
-4.26969e-06
-1.672e-05
-3.96442e-06
-5.95667e-06
4.72135e-06
-3.14087e-05
8.47476e-06
-2.88082e-05
1.07625e-05
-2.23972e-05
1.16939e-05
-1.8526e-05
-7.57867e-06
4.96072e-06
-1.55335e-05
-1.06743e-05
9.18319e-06
-1.5185e-05
-8.30833e-06
1.13407e-05
-1.45933e-05
4.21817e-08
1.25606e-05
-1.39612e-05
2.6773e-06
-1.26658e-05
1.06614e-05
5.50761e-06
-1.45711e-05
-2.49825e-05
9.98916e-06
-1.41263e-05
-2.22119e-05
1.26378e-05
-1.33686e-05
-1.46335e-05
1.3857e-05
-1.27508e-05
-1.0071e-05
-1.14544e-05
2.64249e-06
5.83051e-06
-1.16801e-05
-3.11195e-05
1.04619e-05
-1.12545e-05
-2.77755e-05
1.32525e-05
-1.05858e-05
-1.97244e-05
1.4486e-05
-1.01111e-05
-1.46449e-05
-9.30481e-06
-1.45976e-08
6.28018e-06
-6.69759e-06
-4.01134e-05
1.11316e-05
-6.40467e-06
-3.61686e-05
1.40109e-05
-5.95544e-06
-2.78181e-05
1.50774e-05
-5.63049e-06
-2.22671e-05
-5.0828e-06
-8.43607e-06
6.57237e-06
-4.46734e-05
1.15556e-05
-4.01289e-05
1.44527e-05
-3.11774e-05
1.5422e-05
-2.50519e-05
-1.08214e-05
7.90425e-06
-2.48667e-05
-1.50379e-05
1.42377e-05
-2.38502e-05
-1.12643e-05
1.77152e-05
-2.26362e-05
-2.76507e-07
1.92567e-05
-2.12545e-05
4.0144e-06
-1.93789e-05
1.55904e-05
9.08418e-06
-2.46937e-05
-3.43003e-05
1.5941e-05
-2.33275e-05
-2.95915e-05
1.99539e-05
-2.16725e-05
-1.96101e-05
2.11315e-05
-2.00845e-05
-1.24186e-05
-1.7845e-05
3.96546e-06
1.01529e-05
-2.04804e-05
-4.55481e-05
1.74268e-05
-1.9138e-05
-3.92389e-05
2.15415e-05
-1.75674e-05
-2.79441e-05
2.25126e-05
-1.60803e-05
-1.96201e-05
-1.43716e-05
-3.5137e-07
1.12381e-05
-1.2352e-05
-5.95473e-05
1.89984e-05
-1.1381e-05
-5.16859e-05
2.31981e-05
-1.02961e-05
-3.92892e-05
2.37293e-05
-9.22668e-06
-2.9652e-05
-8.04323e-06
-1.14081e-05
1.22105e-05
-6.92323e-05
2.03418e-05
-5.95654e-05
2.45664e-05
-4.56195e-05
2.4746e-05
-3.43789e-05
-1.52022e-05
1.04416e-05
-3.36347e-05
-1.98e-05
1.84594e-05
-3.19533e-05
-1.40219e-05
2.26014e-05
-2.97279e-05
2.95989e-07
2.39968e-05
-2.74127e-05
6.66167e-06
-2.41603e-05
2.20607e-05
1.24547e-05
-3.41358e-05
-4.6328e-05
2.14189e-05
-3.19772e-05
-3.85317e-05
2.63694e-05
-2.91903e-05
-2.50983e-05
2.72507e-05
-2.65415e-05
-1.41711e-05
-2.27731e-05
6.59757e-06
1.41066e-05
-2.85733e-05
-6.52945e-05
2.38413e-05
-2.65208e-05
-5.443e-05
2.90136e-05
-2.40317e-05
-3.8275e-05
2.95643e-05
-2.16048e-05
-2.51074e-05
-1.86472e-05
2.16076e-07
1.5869e-05
-1.7487e-05
-8.65925e-05
2.63363e-05
-1.60539e-05
-7.26201e-05
3.18083e-05
-1.4294e-05
-5.44988e-05
3.17932e-05
-1.26379e-05
-3.86039e-05
-1.06223e-05
-1.41947e-05
1.72971e-05
-0.000104008
2.83803e-05
-8.65977e-05
3.39589e-05
-6.53796e-05
3.34668e-05
-4.64123e-05
-1.9985e-05
1.73361e-05
-5.67215e-05
-2.46276e-05
2.95496e-05
-5.2011e-05
-1.54478e-05
3.69488e-05
-4.75011e-05
1.72448e-06
3.77133e-05
-4.27133e-05
1.34409e-05
-3.78895e-05
3.44911e-05
2.17795e-05
-6.16639e-05
-6.32584e-05
3.57226e-05
-5.55479e-05
-4.8938e-05
4.31347e-05
-4.9959e-05
-3.00525e-05
4.25337e-05
-4.333e-05
-1.29532e-05
-3.71354e-05
1.33595e-05
2.65676e-05
-5.36702e-05
-9.99501e-05
4.21873e-05
-4.7402e-05
-7.81957e-05
4.97682e-05
-4.24008e-05
-5.34141e-05
4.73253e-05
-3.59366e-05
-3.00579e-05
-2.97524e-05
1.63214e-06
3.04874e-05
-3.58309e-05
-0.000135025
4.71845e-05
-3.07049e-05
-0.000106014
5.53563e-05
-2.67803e-05
-7.8291e-05
5.18468e-05
-2.19939e-05
-4.90372e-05
-1.75458e-05
-1.56337e-05
3.5619e-05
-0.00017545
5.34574e-05
-0.000135025
6.14777e-05
-0.000100055
5.65639e-05
-6.33684e-05
-2.48307e-05
2.27479e-05
-7.49217e-05
-2.95016e-05
3.81896e-05
-6.81389e-05
-1.52159e-05
4.57906e-05
-6.15078e-05
7.43112e-06
4.55842e-05
-5.40562e-05
2.4623e-05
-4.58311e-05
5.13621e-05
2.93271e-05
-8.41185e-05
-8.35033e-05
4.69752e-05
-7.4669e-05
-6.0056e-05
5.58389e-05
-6.5765e-05
-3.4659e-05
5.38143e-05
-5.60949e-05
-8.89005e-06
-4.60474e-05
2.45279e-05
3.63024e-05
-7.53329e-05
-0.000145159
5.6473e-05
-6.54278e-05
-0.000107607
6.54915e-05
-5.67715e-05
-7.14261e-05
6.12507e-05
-4.72544e-05
-3.46576e-05
-3.84639e-05
7.32998e-06
4.35111e-05
-5.12374e-05
-0.000202777
6.51513e-05
-4.37839e-05
-0.000149298
7.44195e-05
-3.65872e-05
-0.000107744
6.78981e-05
-2.95987e-05
-6.01715e-05
-2.30024e-05
-1.54456e-05
5.09395e-05
-0.000277618
7.50182e-05
-0.000202724
8.38314e-05
-0.000145279
7.46517e-05
-8.36159e-05
-2.97148e-05
3.9609e-05
-0.000131829
-2.85943e-05
6.39562e-05
-0.000113819
-6.79024e-06
7.53095e-05
-0.000102686
2.32053e-05
7.19808e-05
-8.57685e-05
4.92042e-05
-7.22374e-05
8.19074e-05
5.30675e-05
-0.000161064
-0.000107479
7.98659e-05
-0.000134346
-6.63274e-05
9.26129e-05
-0.0001169
-3.31919e-05
8.5507e-05
-9.28983e-05
5.34564e-06
-7.55743e-05
4.90826e-05
7.38704e-05
-0.00015562
-0.000224617
0.00010519
-0.000123688
-0.000149585
0.000116626
-0.000105503
-9.42589e-05
0.000102434
-8.01862e-05
-3.31779e-05
-6.42473e-05
2.30942e-05
9.01564e-05
-0.000120041
-0.000328694
0.000123361
-9.04947e-05
-0.000215696
0.000134061
-7.41838e-05
-0.000149763
0.000113571
-5.33882e-05
-6.64794e-05
-3.99327e-05
-7.02701e-06
0.000119729
-0.000517374
0.000155312
-0.000328618
0.000160792
-0.000224742
0.00013158
-0.000107601
-2.88502e-05
5.04099e-05
-0.000173864
-2.21856e-05
7.75728e-05
-0.000145918
1.21502e-05
8.81121e-05
-0.000126684
4.91118e-05
8.1309e-05
-0.000101223
8.25387e-05
-8.1671e-05
0.000118887
7.17292e-05
-0.000223398
-0.000129856
0.000103277
-0.000179713
-6.40804e-05
0.000115751
-0.00015073
-2.16199e-05
0.000100873
-0.000116098
3.50987e-05
-8.84717e-05
8.24032e-05
0.000102308
-0.00022735
-0.000323163
0.000140983
-0.00017469
-0.000193283
0.000150319
-0.000141441
-0.000112883
0.000126307
-0.000103671
-2.15931e-05
-7.79449e-05
4.90048e-05
0.000136082
-0.000181188
-0.000511177
0.000174318
-0.000136467
-0.000292157
0.000179383
-0.000102736
-0.000193532
0.000145604
-7.21204e-05
-6.42508e-05
-5.06953e-05
1.18379e-05
0.000180713
-0.000879285
0.000226838
-0.000510962
0.000222917
-0.000323277
0.000173431
-0.00012999
-2.2386e-05
8.95843e-05
-0.00031072
1.39688e-05
0.000127866
-0.000243839
6.65986e-05
0.000140034
-0.000210387
0.000108643
0.000124183
-0.000155269
0.000146339
-0.000124524
0.00018132
0.000128799
-0.000442547
-0.000127074
0.000174068
-0.000326119
-2.70695e-05
0.000187719
-0.000267399
2.17408e-05
0.000154911
-0.000188098
0.000100736
-0.000140378
0.000146172
0.000216129
-0.000520694
-0.000461407
0.000269959
-0.000346481
-0.000226752
0.000267039
-0.000270385
-0.000106976
0.000210073
-0.000174528
2.18021e-05
-0.000128252
0.000108556
0.000295515
-0.000479513
-0.000848313
0.000346017
-0.000296121
-0.000393018
0.000325727
-0.000216586
-0.000227041
0.00024354
-0.000129275
-2.73171e-05
-8.99809e-05
6.62537e-05
0.000479015
-0.00183781
0.000520289
-0.000847949
0.000442185
-0.000461381
0.000310407
-0.000127186
1.37887e-05
0.000100998
-0.000409393
9.0114e-05
0.000142717
-0.000296815
0.000149506
0.000151805
-0.000243961
0.000187852
0.000130509
-0.000170506
0.000223555
-0.000131027
0.000251299
0.000175461
-0.000637254
-7.49795e-05
0.00021546
-0.000428563
6.46795e-05
0.000214123
-0.00033491
0.000114027
0.000170013
-0.000214621
0.00018896
-0.000152332
0.000223403
0.000312167
-0.000815773
-0.000595378
0.00036253
-0.000504942
-0.000200736
0.000334319
-0.00036316
-5.05153e-05
0.000243405
-0.000215975
0.00011407
-0.000143264
0.000187783
0.000493419
-0.000798669
-0.00135921
0.000504575
-0.000494009
-0.000415106
0.000428178
-0.000312781
-0.000201024
0.000296458
-0.000175981
6.44098e-05
-0.000101521
0.000149224
0.000797941
-0.00343447
0.000815083
-0.00135865
0.000636413
-0.000594913
0.000408839
-7.52331e-05
9.00122e-05
0.000161282
-0.000694049
0.000273886
0.000214161
-0.000464953
0.000314115
0.000216072
-0.000369824
0.000334874
0.000178432
-0.000237615
0.000348494
-0.000178854
0.000353715
0.0002862
-0.00121661
0.000160916
0.000333245
-0.000737214
0.000289895
0.000315432
-0.000538082
0.000300099
0.000237141
-0.000315955
0.000345591
-0.000216473
0.000348285
0.000604555
-0.00203549
-0.000381656
0.000655035
-0.00100187
1.34431e-05
0.000537692
-0.000655336
0.000184082
0.000369446
-0.000333784
0.000300144
-0.000214582
0.000334777
0.0010677
-0.0023522
-0.000404258
-0.00042685
-0.00070239
-0.000578115
0.00100146
-0.00106738
-0.00028337
0.000736723
-0.000604825
1.32044e-05
0.000464604
-0.000286756
0.000289501
-0.00016174
0.000313729
0.00235191
-0.00194072
-0.00145892
-0.00279722
-0.0019417
0.0020348
-0.000575695
-0.000427688
-0.000701408
-0.000402179
0.00121593
-0.000379822
0.000693759
0.000160668
0.000273954
0.00017845
-0.000858922
0.000575861
0.000215817
-0.000482122
0.000533677
0.000206048
-0.000376637
0.000510267
0.000164495
-0.000220046
0.000478053
-0.000165171
0.000453519
0.000347741
-0.00172931
0.000682986
0.000346421
-0.000790388
0.000599481
0.000303068
-0.000592233
0.000559048
0.000219364
-0.000303799
0.000513049
-0.000206745
0.000477859
0.000903769
-0.000928363
0.000958073
-0.000930113
-0.00113294
-0.000982268
0.000833013
-0.00143444
0.000728255
0.000591328
-0.000833262
0.000666795
0.000375954
-0.000347365
0.000559085
-0.000216502
0.00051013
0.000360654
-0.00132712
-0.0003667
0.0014338
-0.000512128
0.000290906
0.000193417
0.000287859
0.000291032
-0.000471953
-0.000513569
-0.000410124
-0.000712458
-0.000471347
-0.000715171
-0.00040808
0.000789555
-0.000903992
0.000728184
0.000481696
-0.000348929
0.000598924
-0.000179125
0.000533293
0.000995748
-0.00158264
0.00169937
-0.000842034
-0.000661655
-0.000653265
-0.000896751
-0.00115571
0.00113925
-0.000469807
-0.000601555
0.00172814
0.000957239
-0.000927681
-0.000927191
-0.000979672
-0.00113241
0.000858261
0.000682447
0.000575812
0.000172981
-0.000930729
0.000911866
0.000225133
-0.000561608
0.000788106
0.000208137
-0.00040912
0.000696561
0.000165026
-0.000233059
0.000615611
-0.000165509
0.000545003
0.000354633
-0.00182057
0.0012178
0.000369584
-0.000950525
0.000973447
0.000326422
-0.000660228
0.000853318
0.000232451
-0.000327165
0.000701125
-0.000208509
0.000615272
0.000907642
-0.00143187
0.00238958
-0.00109862
-0.000927837
-0.000702289
0.000924248
-0.000638029
0.00160679
-0.0004547
-0.000418201
-0.000334739
0.000659966
-0.000923997
0.00119485
0.000408719
-0.000370515
0.000853682
-0.000225452
0.000696304
0.000568304
0.000840557
0.000102952
-0.000705464
-0.000754221
-0.000747949
-0.000735193
-0.000624732
0.000554965
-0.000806572
0.000529216
0.000950649
-0.000908751
0.00160653
-0.000454253
-0.000637994
-0.00033458
-0.000417415
0.000561256
-0.000355657
0.000973459
-0.000173378
0.000787404
0.00139909
0.000889924
0.000463325
-0.00132949
-0.00142226
-0.000653235
0.00178666
-0.000933098
-0.000628315
-0.000930072
0.00107566
0.000368474
0.000366632
0.000370442
0.000314711
-2.97584e-05
-0.000333086
-0.000302036
-0.000210727
-0.00026225
0.00182112
0.00238995
-0.00109734
-0.00143084
-0.000702518
-0.000927217
0.000930379
0.00121864
0.000912079
5.08055e-05
-0.000180611
0.000895969
8.14917e-05
-0.00016482
0.000798951
9.15373e-05
-0.00014451
0.000727791
8.54258e-05
-0.000101317
0.000648737
-8.62812e-05
0.000578565
7.69474e-05
-0.000119931
0.00107936
0.000119408
-0.000196847
0.000963013
0.00012022
-0.000150649
0.000858646
0.00010053
-0.000120715
0.000740213
-9.22637e-05
0.000648362
9.17657e-05
-0.000251521
0.00172479
-0.000134203
0.000458291
0.000379021
0.000103627
9.95788e-05
0.0012985
0.000150086
-0.000103084
0.00110082
0.000143547
-0.000120647
0.000860153
-8.22977e-05
0.000727334
9.17415e-05
0.00107087
-0.00136961
8.2813e-05
-0.000127647
-0.000113648
0.000114091
-9.97745e-05
0.000158149
0.00157349
-8.60646e-05
0.000160674
0.000138008
0.00066148
-6.0788e-05
0.000660958
0.000128908
-0.00068192
-0.000575953
-0.00119597
-0.000681614
0.000196948
-9.08518e-05
0.00129758
0.000163706
-7.7668e-05
0.000963721
-5.13451e-05
0.000797196
-6.92012e-05
0.00360541
-0.00015033
1.42419e-05
-0.00340039
3.22248e-05
-0.000118933
0.00124636
0.000177599
0.000224677
0.000449417
-0.000546794
2.82265e-05
4.37042e-05
-2.37297e-05
0.0001379
-0.000465002
-0.000517244
-0.000510261
0.000122925
0.00172898
-0.000138466
-0.000255609
0.000378751
0.000459901
0.000179032
0.00108456
0.000894625
-4.87317e-05
9.8929e-05
0.00072317
-1.80028e-05
6.95194e-06
0.000712918
1.49884e-06
-7.24167e-06
0.000666335
1.89102e-05
-2.63901e-05
0.000629374
-1.96064e-05
0.000557746
3.63607e-05
0.000199967
0.000940598
2.79993e-05
0.000101692
0.000876635
1.90413e-05
8.22055e-05
0.000778156
2.58998e-05
-1.92332e-05
0.000726197
-2.04284e-06
0.000629286
-0.000316977
0.00152226
0.000721089
-0.000217136
0.000410585
0.00088977
-8.46486e-05
0.000218455
0.000832085
5.95578e-06
-2.74222e-05
0.000777738
1.73554e-05
0.000666048
-0.000865128
0.00196799
-0.000474172
-0.000261167
-0.000120471
0.000724282
-0.000185725
0.00168672
0.000647141
0.00070279
-0.000326815
-0.00121268
-0.000764837
-0.000400098
0.000920383
0.000598661
-9.96801e-05
0.000326512
0.0008891
-4.813e-06
-3.46734e-05
0.000876106
4.94289e-05
0.000712809
0.00196877
-0.00166525
0.00139542
-0.00655029
0.00170157
0.00273483
0.00242393
-0.00155373
-0.000769299
-0.00017248
-0.000133837
0.000704737
-0.000244712
0.00172962
0.00205609
0.000731091
0.000621924
-0.000334155
-0.0012273
-0.00047917
-0.000215379
0.00071654
-0.000102699
0.000938627
0.000722671
-1.63991e-05
-8.90787e-05
0.000789801
-1.74794e-05
2.26089e-06
0.00072914
-2.56623e-05
1.84567e-05
0.000657843
-9.73372e-06
3.09778e-05
0.000602717
8.67131e-06
0.000523636
2.66554e-05
-0.000332027
0.00115572
2.15736e-06
-7.66114e-05
0.000980005
-3.40859e-05
-5.1598e-08
0.000832908
-3.19806e-05
3.32547e-05
0.000721815
2.48948e-05
0.00060261
0.000154584
-0.000401211
0.0016102
-0.000195011
-0.000467237
-0.000312575
8.92107e-05
-0.000404893
0.00128343
-1.3024e-06
-9.04371e-05
0.00101298
-2.03511e-05
-2.23777e-06
0.000832279
1.65787e-05
0.000657948
0.000145415
-0.000891655
-0.000131456
0.000405488
-0.000439582
0.000633054
0.000492036
0.000852633
0.000632769
-0.000175801
-0.00044729
-0.000106793
-0.000689445
-0.000170291
-0.000687347
-0.000105662
7.5969e-05
-0.000155798
0.00128398
-3.14356e-06
-2.63386e-05
0.000979319
1.57136e-05
0.000729259
0.00125709
0.000405709
0.000127418
-0.000529829
-0.00126155
-0.000154341
0.000461675
-0.000478417
-0.000202376
-0.000225535
-0.000212699
-0.000397189
0.000325743
0.001609
-0.000198441
-0.000396489
-0.000313311
-0.00046658
8.68577e-05
0.00115259
0.000789535
-7.18281e-05
0.00031654
0.000764319
-8.91047e-05
0.000241635
0.000682497
-9.86033e-05
0.000173273
0.000604552
-7.86593e-05
0.00013256
0.000545517
7.82384e-05
0.000467563
-0.000153862
0.000597498
0.00102803
-0.000189583
0.000389588
0.000867773
-0.000173422
0.000234173
0.000755848
-0.000133181
0.00017295
0.000641184
9.85413e-05
0.000545326
-0.000192692
-0.000346835
0.00193611
-0.00010155
0.000459862
0.00045232
-0.000242319
-0.000114743
0.00132727
3.26008e-05
0.000272506
0.000205011
-0.000233962