/*--------------------------------*- C++ -*----------------------------------*\
| =========                 |                                                 |
| \\      /  F ield         | OpenFOAM: The Open Source CFD Toolbox           |
|  \\    /   O peration     | Version:  5.x                                   |
|   \\  /    A nd           | Web:      www.OpenFOAM.org                      |
|    \\/     M anipulation  |                                                 |
\*---------------------------------------------------------------------------*/
FoamFile
{
    version     2.0;
    format      ascii;
    class       volScalarField;
    location    "0.045";
    object      phiIB;
}
// * * * * * * * * * * * * * * * * * * * * * * * * * * * * * * * * * * * * * //

dimensions      [0 2 -1 0 0 0 0];

internalField   nonuniform List<scalar> 
1539
(
-3.01696e-05
-3.01672e-05
-3.01763e-05
-3.01723e-05
-3.01903e-05
-3.0149e-05
-3.01467e-05
-3.01558e-05
-3.01518e-05
-3.017e-05
-3.01538e-05
-3.01515e-05
-3.01606e-05
-3.01566e-05
-3.01748e-05
-3.0143e-05
-3.01408e-05
-3.01499e-05
-3.01459e-05
-3.01642e-05
-3.01462e-05
-3.01439e-05
-3.0153e-05
-3.0149e-05
-3.01672e-05
-6.78473e-05
-6.78475e-05
-6.78501e-05
-6.78515e-05
-6.78576e-05
-6.78395e-05
-6.78396e-05
-6.78425e-05
-6.78439e-05
-6.78502e-05
-6.78378e-05
-6.78379e-05
-6.78407e-05
-6.78421e-05
-6.78484e-05
-6.78338e-05
-6.78339e-05
-6.78368e-05
-6.78382e-05
-6.78446e-05
-6.78331e-05
-6.78333e-05
-6.78362e-05
-6.78375e-05
-6.78439e-05
-0.000139703
-0.000139702
-0.000139713
-0.000139714
-0.000139735
-0.000139679
-0.000139678
-0.000139689
-0.000139689
-0.000139711
-0.000139678
-0.000139677
-0.000139688
-0.000139689
-0.000139711
-0.000139665
-0.000139664
-0.000139675
-0.000139675
-0.000139698
-0.000139666
-0.000139665
-0.000139676
-0.000139676
-0.000139698
-0.000191258
-0.000191258
-0.000191268
-0.00019127
-0.000191291
-0.000191234
-0.000191234
-0.000191244
-0.000191246
-0.000191267
-0.000191232
-0.000191231
-0.000191242
-0.000191244
-0.000191265
-0.000191219
-0.000191219
-0.000191229
-0.000191231
-0.000191252
-0.000191219
-0.000191218
-0.000191229
-0.000191231
-0.000191252
-0.000257327
-0.000257326
-0.000257343
-0.000257345
-0.000257379
-0.00025729
-0.000257288
-0.000257305
-0.000257307
-0.000257342
-0.000257288
-0.000257286
-0.000257303
-0.000257305
-0.00025734
-0.000257268
-0.000257267
-0.000257284
-0.000257286
-0.00025732
-0.000257269
-0.000257268
-0.000257284
-0.000257286
-0.000257321
-0.000313347
-0.000313346
-0.000313366
-0.000313369
-0.000313413
-0.000313299
-0.000313297
-0.000313319
-0.000313322
-0.000313366
-0.000313296
-0.000313294
-0.000313316
-0.000313318
-0.000313363
-0.000313272
-0.00031327
-0.000313291
-0.000313294
-0.000313339
-0.000313273
-0.000313271
-0.000313292
-0.000313295
-0.000313339
-0.0003759
-0.000375897
-0.000375927
-0.000375931
-0.000375992
-0.000375832
-0.00037583
-0.00037586
-0.000375864
-0.000375927
-0.00037583
-0.000375827
-0.000375856
-0.00037586
-0.000375923
-0.000375798
-0.000375795
-0.000375824
-0.000375827
-0.00037589
-0.000375801
-0.000375798
-0.000375826
-0.000375829
-0.000375892
-0.000434322
-0.000434321
-0.000434364
-0.000434373
-0.000434461
-0.000434227
-0.000434225
-0.000434269
-0.000434278
-0.000434368
-0.000434221
-0.000434219
-0.000434262
-0.00043427
-0.00043436
-0.000434178
-0.000434174
-0.000434215
-0.000434222
-0.000434313
-0.000434182
-0.000434178
-0.000434218
-0.000434224
-0.000434315
-0.000494456
-0.000494458
-0.000494522
-0.000494541
-0.000494664
-0.000494323
-0.000494324
-0.00049439
-0.000494409
-0.000494535
-0.000494304
-0.000494306
-0.000494371
-0.000494391
-0.000494518
-0.000494234
-0.000494236
-0.000494302
-0.000494322
-0.000494451
-0.000494232
-0.000494235
-0.000494302
-0.000494322
-0.00049445
-0.000554007
-0.000554021
-0.000554131
-0.000554174
-0.000554363
-0.000553789
-0.000553807
-0.000553926
-0.000553974
-0.000554168
-0.000553723
-0.000553746
-0.000553872
-0.000553928
-0.000554128
-0.000553582
-0.000553609
-0.000553743
-0.000553806
-0.000554013
-0.000553552
-0.000553584
-0.000553722
-0.00055379
-0.000554002
-0.000612344
-0.000612378
-0.000612551
-0.000612622
-0.000612876
-0.000612053
-0.000612093
-0.000612276
-0.000612354
-0.000612615
-0.000611918
-0.00061198
-0.000612184
-0.00061228
-0.000612548
-0.000611639
-0.000611733
-0.000611977
-0.000612095
-0.000612373
-0.000611524
-0.000611642
-0.00061192
-0.00061206
-0.000612343
-0.000671783
-0.000671847
-0.000672122
-0.000672209
-0.000672574
-0.000671328
-0.000671406
-0.000671705
-0.000671816
-0.000672203
-0.000670992
-0.000671137
-0.000671537
-0.000671712
-0.000672123
-0.000670397
-0.000670588
-0.000671132
-0.000671411
-0.000671846
-0.000670228
-0.000670406
-0.000670994
-0.000671339
-0.00067179
-0.000728084
-0.000728095
-0.000728346
-0.000728391
-0.000728785
-0.000727391
-0.00072747
-0.000727871
-0.000727984
-0.000728387
-0.000727359
-0.000727363
-0.000727699
-0.000727886
-0.000728357
-0.000727603
-0.000727399
-0.000727371
-0.000727487
-0.00072811
-0.000728027
-0.000727639
-0.00072739
-0.000727419
-0.000728113
-0.000784722
-0.000784565
-0.000784633
-0.000784391
-0.000784781
-0.000784193
-0.000783976
-0.000784096
-0.000783939
-0.000784389
-0.00078541
-0.000784841
-0.000784445
-0.000784126
-0.00078466
-0.000787041
-0.000786153
-0.000784874
-0.000784026
-0.0007846
-0.000788037
-0.000787091
-0.000785492
-0.000784279
-0.000784778
-0.000834368
-0.000834059
-0.000833869
-0.000833255
-0.000833696
-0.000835182
-0.000834437
-0.000833418
-0.000832607
-0.000833256
-0.000836895
-0.000836054
-0.000834733
-0.00083346
-0.000833912
-0.000837723
-0.000836985
-0.000836095
-0.000834521
-0.000834128
-0.000838465
-0.000837775
-0.000836995
-0.000835328
-0.000834485
-0.000879466
-0.000879138
-0.000879221
-0.00087866
-0.000879819
-0.000879536
-0.000879145
-0.000878962
-0.000877971
-0.000878655
-0.000880514
-0.00088016
-0.000880042
-0.000879002
-0.000879255
-0.000880252
-0.000880029
-0.000880196
-0.000879232
-0.000879235
-0.000880441
-0.000880293
-0.000880596
-0.000879685
-0.000879652
-0.000914524
-0.000914019
-0.000914018
-0.000913937
-0.000915648
-0.000912259
-0.000912241
-0.000913019
-0.000912924
-0.000913919
-0.000911481
-0.000911765
-0.000912957
-0.000913055
-0.000914045
-0.000909851
-0.000910327
-0.000911791
-0.000912316
-0.000914116
-0.00090929
-0.000909883
-0.000911543
-0.000912379
-0.000914668
-0.000941697
-0.000941723
-0.000942677
-0.000943469
-0.000946415
-0.000937559
-0.000938087
-0.000939934
-0.000940904
-0.000943444
-0.000935007
-0.000936002
-0.000938541
-0.000939965
-0.00094269
-0.000931593
-0.000932954
-0.000936037
-0.000938165
-0.000941797
-0.000930036
-0.00093163
-0.000935081
-0.000937685
-0.000941829
-0.000961226
-0.000961821
-0.000963939
-0.00096572
-0.000969443
-0.000955423
-0.000956595
-0.000959661
-0.000961804
-0.000965693
-0.000951339
-0.000953004
-0.000956926
-0.000959707
-0.00096396
-0.000946635
-0.000948631
-0.000953051
-0.000956696
-0.000961905
-0.000944553
-0.000946708
-0.000951456
-0.000955599
-0.000961394
-0.000974732
-0.0009762
-0.00098012
-0.000983345
-0.000989293
-0.000965777
-0.000967993
-0.000972941
-0.000976861
-0.000983346
-0.00095939
-0.000962171
-0.000967958
-0.00097302
-0.000980199
-0.0009534
-0.000956363
-0.000962274
-0.000968174
-0.000976383
-0.000950327
-0.000953523
-0.00095961
-0.000966071
-0.000975028
-0.00099136
-0.000992842
-0.000997148
-0.00100077
-0.00100763
-0.0009814
-0.000983695
-0.00098876
-0.000993233
-0.00100077
-0.000974755
-0.000977597
-0.000983506
-0.000988895
-0.000997272
-0.000968152
-0.000971625
-0.000977753
-0.000983989
-0.00099313
-0.000964413
-0.000968378
-0.000975124
-0.00098189
-0.000991828
-0.000993462
-0.000996639
-0.00100391
-0.00100869
-0.00101871
-0.000979902
-0.00098339
-0.000990189
-0.000997164
-0.00100873
-0.000969858
-0.000974427
-0.000981777
-0.000990385
-0.00100414
-0.000961658
-0.00096698
-0.000974702
-0.000983848
-0.000997113
-0.000955596
-0.000961968
-0.000970431
-0.000980634
-0.000994177
-0.0010161
-0.00101816
-0.00102385
-0.00102769
-0.00103789
-0.000999061
-0.00100379
-0.00100994
-0.00101667
-0.00102772
-0.00098507
-0.000992238
-0.00100085
-0.00101022
-0.00102414
-0.00097384
-0.000984073
-0.000992581
-0.0010044
-0.00101879
-0.000960129
-0.000974348
-0.000985896
-0.0010001
-0.00101711
-0.00100521
-0.00100932
-0.00101587
-0.00102113
-0.00103523
-0.000983464
-0.000989745
-0.00099802
-0.00100733
-0.00102122
-0.000964975
-0.000974178
-0.000984592
-0.000998328
-0.00101626
-0.000950233
-0.000962915
-0.000974713
-0.000990533
-0.00101018
-0.000935181
-0.000950962
-0.000966151
-0.000984789
-0.00100658
-0.00102614
-0.00103188
-0.0010396
-0.00104564
-0.00106214
-0.000997869
-0.00101165
-0.00101737
-0.00103026
-0.00104568
-0.000955474
-0.000982285
-0.000996282
-0.00101774
-0.00103996
-0.000930759
-0.00097302
-0.000982918
-0.00101256
-0.00103275
-0.000860159
-0.000931708
-0.000957126
-0.000999564
-0.00102774
-0.00101371
-0.00101466
-0.00101996
-0.00102642
-0.00104721
-0.000974784
-0.000986011
-0.000994828
-0.00100591
-0.00102656
-0.000954174
-0.000965963
-0.00097894
-0.00099513
-0.00102041
-0.000924711
-0.000952932
-0.000966739
-0.000986992
-0.00101576
-0.000880072
-0.000927337
-0.000956625
-0.000976933
-0.00101576
-0.00100385
-0.00102216
-0.00103546
-0.00105055
-0.00107632
-0.000958025
-0.000996406
-0.000999771
-0.00103174
-0.00105053
-0.000829998
-0.000921004
-0.000945964
-0.00099995
-0.0010357
-0.000752763
-0.000926801
-0.000922055
-0.000997164
-0.00102291
-0.000414614
-0.000754044
-0.000833091
-0.000959871
-0.00100586
-0.00102181
-0.00101246
-0.00102144
-0.00102202
-0.00105022
-0.000943049
-0.000964565
-0.000978151
-0.000994327
-0.00102214
-0.000934797
-0.000951918
-0.000972765
-0.000978334
-0.00102172
-0.000890233
-0.000926151
-0.000951389
-0.000964945
-0.00101323
-0.000614299
-0.000898275
-0.000938102
-0.000946184
-0.00102447
-0.000996241
-0.00102058
-0.00103189
-0.00104919
-0.00107205
-0.0009176
-0.000973014
-0.000988621
-0.0010304
-0.00104912
-0.000645157
-0.00081615
-0.000893745
-0.000988452
-0.00103213
-0.000214328
-0.000737143
-0.000816899
-0.000973285
-0.00102145
0.000707379
-0.000379825
-0.000651988
-0.000921836
-0.00100096
-0.00101736
-0.000988526
-0.00100495
-0.000995038
-0.00102919
-0.000948871
-0.000930133
-0.000951641
-0.00097168
-0.000994836
-0.00092928
-0.000878317
-0.000938075
-0.000952163
-0.00100492
-0.000553157
-0.000826948
-0.000876654
-0.000929641
-0.000988101
3.87196e-05
-0.000507369
-0.000937488
-0.0009532
-0.00102078
-0.00109469
-0.00109388
-0.0010593
-0.00104705
-0.00104989
-0.00106359
-0.00106721
-0.00105319
-0.00103314
-0.00104697
-0.00127224
-0.00122463
-0.00105428
-0.00105321
-0.00105982
-0.00110513
-0.00151704
-0.00122205
-0.00106511
-0.00109456
-0.00332094
-0.00160202
-0.00128602
-0.00106201
-0.00109905
-0.000971062
-0.000952096
-0.00096964
-0.00095533
-0.000979269
-0.000877033
-0.000899334
-0.000917128
-0.000935685
-0.000954037
-0.000818017
-0.000838304
-0.000902952
-0.000919563
-0.000968714
-0.000857418
-0.000775181
-0.00082668
-0.000897975
-0.000949833
-0.00125589
-0.000865366
-0.000801444
-0.0008801
-0.000966718
-0.000932518
-0.0009659
-0.000962777
-0.000968922
-0.000970127
-0.000976914
-0.00093772
-0.00095595
-0.000959363
-0.000968402
-0.000684007
-0.000895487
-0.000883936
-0.000956721
-0.000963095
-0.0010111
-0.000823304
-0.000893185
-0.000937371
-0.000966298
-3.86064e-05
-0.000313733
-0.000683713
-0.000979117
-0.000932892
-0.00100228
-0.000964559
-0.000958564
-0.000933178
-0.000933272
-0.00105555
-0.000996354
-0.000977569
-0.000941443
-0.000932839
-0.0012588
-0.00110931
-0.00105219
-0.000978426
-0.000958367
-0.00137802
-0.00115884
-0.00110658
-0.00099637
-0.000964314
-0.00190429
-0.00128144
-0.00125386
-0.00105712
-0.00100123
-0.000913519
-0.000909431
-0.000913675
-0.00090641
-0.000906638
-0.000927812
-0.000920619
-0.000908904
-0.000905227
-0.000906096
-0.000962817
-0.000932277
-0.000912267
-0.000909405
-0.000913157
-0.00103646
-0.001016
-0.000930796
-0.000920705
-0.000908495
-0.00187448
-0.00121406
-0.000958259
-0.000929679
-0.000912429
-0.000973314
-0.000925759
-0.000930129
-0.000893006
-0.000890487
-0.000936343
-0.000936907
-0.000914623
-0.000898231
-0.000893546
-0.00097254
-0.000963096
-0.000976132
-0.000914522
-0.000930678
-0.00112439
-0.00108008
-0.000963079
-0.000937227
-0.00092687
-0.00092871
-0.00112433
-0.000972519
-0.000936875
-0.000974324
-0.000845076
-0.0008282
-0.000821612
-0.000799807
-0.00079601
-0.00083442
-0.000834766
-0.000817069
-0.000802847
-0.000800011
-0.000815249
-0.000830249
-0.000824657
-0.000817498
-0.000821762
-0.000903678
-0.000885408
-0.000828913
-0.00083505
-0.000828177
-0.000939016
-0.000906698
-0.000814966
-0.000835818
-0.000845565
-0.000753326
-0.000738869
-0.000741821
-0.000726679
-0.000722429
-0.000729117
-0.000731529
-0.000733616
-0.000728579
-0.000727096
-0.000778209
-0.000751097
-0.000758595
-0.000733348
-0.000742334
-0.000789504
-0.000783059
-0.00075172
-0.000731513
-0.000739568
-0.000775684
-0.000789478
-0.000778759
-0.00072898
-0.000753597
-0.000405942
-0.000406104
-0.000415232
-0.000416688
-0.000424864
-0.000391122
-0.000394016
-0.000396136
-0.000400977
-0.000417101
-0.000390062
-0.000398976
-0.000405074
-0.000395944
-0.000415075
-0.000393633
-0.000402446
-0.000398511
-0.000394074
-0.000406174
-0.000360255
-0.000394857
-0.00039003
-0.000391375
-0.000406001
-0.000222323
-0.000213152
-0.00020521
-0.000200018
-0.000190397
-0.000240706
-0.0002293
-0.000216814
-0.000210792
-0.000199981
-0.000299244
-0.000267579
-0.000242853
-0.000217077
-0.000205759
-0.000338682
-0.000309173
-0.000267364
-0.000229154
-0.000213159
-0.000376693
-0.000339355
-0.000299673
-0.000241261
-0.000223018
-0.000976834
-0.00178407
-0.00156515
-0.000852441
-0.000770942
-0.00176433
-0.00172156
-0.00136554
-0.00217038
-0.00330085
-0.000791723
-0.000465878
-0.00216341
-0.000799057
-0.00102109
-0.00181757
-0.00114083
-0.00176777
-0.000763392
-0.00178113
-0.000805515
-0.00112916
-0.00067696
-0.00112158
0.000255424
-0.000222689
0.000455911
0.000125883
-0.000803944
0.00249732
6.89627e-06
0.00133292
-0.000531627
0.000533578
0.00132456
-0.00125618
-0.00174383
-0.00128362
-0.00120974
-0.00117108
-0.00197641
-0.00141894
-0.00108443
-0.00098057
-0.00189693
-0.00236203
-0.00137387
-0.00303833
-0.00235614
-0.0012536
-0.00174347
-0.00137599
-0.00141694
-0.0011696
-0.0019699
-0.00120782
-0.000989354
-0.00141162
-0.00121612
-0.000968663
-0.000889855
-0.00128805
-0.00118859
-0.00107956
-0.00228446
-0.00187207
-0.00105279
-0.000893465
-0.00126863
-0.00104267
-0.000988659
-0.00140362
-0.00103773
-0.00118275
-0.000891743
-0.00126856
-0.000979127
-0.00166158
-0.0016494
-0.00212074
-0.00123538
-0.00199242
-0.00104362
-0.00178879
-0.00214308
-0.00204317
-0.000530623
-0.00195151
-0.00183864
-0.00156181
-0.00223658
-0.00220106
-0.00125607
-0.00124418
-0.00123555
-0.00184528
-0.00179486
-0.00190933
-0.00185321
-0.00219174
-0.00139675
-0.0013866
-0.000780754
-0.00225984
-0.0022159
-0.00216257
-0.00195048
-0.000533909
-0.00190483
-0.00175929
-0.00158076
-0.00220557
-0.00256082
-0.00309916
-0.00205761
-0.00272654
-0.00284346
-0.00250976
-0.00252728
-0.00271765
-0.00256095
-0.00289554
-0.0028913
-0.00254464
-0.00261198
-0.00260832
-0.00255977
-0.00309236
-0.00205359
-0.00272249
-0.00283749
-0.00250846
-0.00252163
-0.00174602
-0.00161435
-0.00161201
-0.000652512
-0.00189885
-0.00134596
-0.00134084
-0.0015313
-0.00208
-0.00207772
-0.00196299
-0.00196451
-0.00177153
-0.00176521
-0.00165521
-0.00164787
-0.00211963
-0.00122577
-0.00199269
-0.0010344
-0.00178232
-0.000305196
0.00710417
4.14296e-06
-0.00326454
-0.00140464
-0.00149263
-0.00327233
-0.00249924
-0.00237101
-0.00237391
-0.00244958
-0.00253322
-0.00259278
-0.00258742
-0.00248213
-0.00315549
-0.00262167
-0.00257393
-0.00262275
-0.00235602
-0.00268956
-0.00249087
-0.00314965
-0.00262892
-0.00255393
-0.00263229
-0.00234005
-0.00270025
-0.00318938
-0.00155024
-0.00200859
-0.00200716
-0.00205123
-0.00204819
-0.00268229
-0.00298284
-0.00214062
-0.00212038
-0.00169691
-0.00331461
-0.00230385
-0.00228118
-0.00234741
-0.00125296
-0.00125175
-0.00195162
-0.00162052
-0.00213388
-0.00213103
-0.00262965
-0.00159966
-0.00179645
-0.0037531
-0.00237424
-0.0034662
-0.0024922
-0.0014641
-0.00170933
-0.00137622
-0.0018982
-0.00168393
-0.0011986
-0.00157655
-0.0026252
-0.00158943
-0.00179347
-0.00374474
-0.00237424
-0.00345781
-0.00248548
-0.00145913
-0.00170376
-0.00189454
-0.00137075
-0.00167852
-0.00119625
-0.00157083
-0.00185429
-0.00186497
-0.00220539
-0.00131516
-8.20789e-05
-0.000696835
-0.000715613
-0.000676506
-1.98174e-05
-0.000498647
-0.00133132
-0.00106813
-0.00172236
-0.00106502
-0.000689586
-4.38719e-05
-0.000570339
-0.0010772
-0.00108726
-0.00175931
-0.00134967
-0.00122065
-0.00153735
-0.00170915
-0.0021205
-0.00138125
-0.0022176
-0.00129582
-0.0012339
-0.00173487
-0.00156662
-0.00215293
-0.00141387
-0.002241
-0.00129816
-0.00258165
-0.00251366
-0.0027534
-0.00271225
-0.000447388
-0.000542985
-0.00188854
-0.00258956
-0.00253167
-0.00275697
-0.00272521
-0.000480535
-0.000564812
-0.00191959
-0.00329363
-0.00191272
-0.0019116
-0.00167041
-0.00260336
-0.00215684
-0.00215491
-0.00212856
-0.0021272
-0.00347022
-0.00197725
-0.000743712
-0.00171267
-0.00171482
-0.00106241
-0.00128184
-0.00115752
-0.00112749
-0.0010779
-0.00117595
-0.00112683
0.00173518
0.00257978
0.00026659
0.000266162
-5.10905e-05
0.00252203
0.0025257
-0.00112349
0.000346249
-0.000310063
-0.000739334
-0.000865464
-0.00122951
-0.000473734
-0.00112256
0.000355527
-0.00100133
-0.000476848
-0.000865424
-0.00122715
-0.000737541
0.00128214
0.000985836
0.000507447
-0.000456339
-8.69596e-05
-0.000548416
0.00221086
0.00129529
0.000991739
0.000500737
-0.000459721
-9.07065e-05
-0.000566779
0.00222183
-0.00141255
-0.00101296
-0.00178851
-0.00177954
-0.000990779
-0.00161865
-0.0015493
-0.00140981
-0.00178512
-0.00101073
-0.00177345
-0.000984177
-0.00161714
-0.00154283
8.17513e-05
0.00155222
0.000708836
0.00115974
1.13901e-05
0.00487275
0.00114465
0.00118978
0.00533663
0.00523677
0.00257721
0.00267748
0.00164859
0.00161539
-4.18504e-05
-0.000216035
0.00230723
0.000960053
0.00173419
-4.47632e-05
-0.000430579
-4.50653e-05
-0.00023117
0.00227888
0.000925446
0.00171687
-8.0449e-05
-0.000452176
-0.00131591
-0.00160344
-0.00112272
-0.00201864
-0.00181042
-0.000692904
-0.000636152
-0.00163101
-0.00133799
-0.00114439
-0.00206008
-0.00183637
-0.000721852
-0.000665341
0.000999266
-0.000519893
-0.000885911
-0.000883197
-0.00025231
-0.000250546
0.00052667
0.000318412
-0.000122666
-0.000130248
-0.000539881
0.00115466
-0.000837917
-0.000849493
-0.00129973
-0.00104647
-0.00142787
-0.00130939
-0.00122865
-0.00120124
-0.00151819
-0.00130351
-0.0010499
-0.00143037
-0.00130801
-0.0012328
-0.00120121
-0.00151908
0.00190392
0.00201513
0.00201827
0.00403897
0.0011445
0.00257492
0.00260649
-0.000905771
-0.000626858
-0.000832175
-0.000899686
-0.000985584
-0.000464546
-0.000906906
-0.000762502
-0.00147718
-0.000993455
-0.00108348
-0.00133002
-0.00102454
-0.000740955
-0.000774379
-0.00149654
-0.00101328
-0.00109424
-0.00135003
-0.00104243
-0.000756534
5.69236e-05
-0.000269039
-0.000870636
-2.91977e-05
-0.000482731
-0.000576739
-0.000328401
5.9088e-05
-0.000879991
-0.00026659
-2.51233e-05
-0.000482677
-0.000568137
-0.000327902
0.0021843
-0.000412927
0.0011142
0.000868235
0.000690312
0.000494531
0.00240295
0.00213822
-0.000381509
0.00113808
0.000844504
0.000718333
0.000467325
0.00237865
0.00409342
0.00408805
0.00408256
0.00155016
0.00315759
0.0022775
0.00226011
-0.000322487
-0.00021567
-0.00037789
-0.000628432
-0.000731597
0.000121583
-0.00015798
-0.00032887
-0.000226085
-0.000220404
-0.000158978
-0.000734352
0.000110158
-0.000644917
4.71038e-05
-0.000890059
-0.000634186
-0.000595493
-0.000337067
-0.000401368
-0.000382297
3.84448e-05
-0.00091674
-0.000651313
-0.000624392
-0.000359924
-0.000438534
-0.000409119
0.00115099
-0.000351922
-0.000345797
-0.000266948
0.000379689
0.000249001
0.00025201
0.000889993
0.00350913
0.00268582
0.000873887
0.000386116
0.000368772
0.00111762
0.000861155
0.00350483
0.00268694
0.000849066
0.00037791
0.000369948
0.00111163
0.000259743
0.000250002
0.00175178
9.72318e-05
0.000450174
8.65066e-05
9.28391e-05
)
;

boundaryField
{
    inlet
    {
        type            fixedValue;
        value           uniform 0;
    }
    wall
    {
        type            zeroGradient;
    }
    outlet
    {
        type            fixedValue;
        value           uniform 0;
    }
    procBoundary1to0
    {
        type            processor;
        value           nonuniform List<scalar> 
317
(
-3.01691e-05
-3.01494e-05
-3.01543e-05
-3.01437e-05
-3.01469e-05
-6.78484e-05
-6.78403e-05
-6.78385e-05
-6.78344e-05
-6.78339e-05
-0.000139704
-0.000139679
-0.000139679
-0.000139666
-0.000139667
-0.00019126
-0.000191236
-0.000191233
-0.000191221
-0.000191221
-0.000257328
-0.000257291
-0.000257289
-0.000257269
-0.000257271
-0.000313349
-0.000313301
-0.000313298
-0.000313273
-0.000313275
-0.000375901
-0.000375834
-0.000375831
-0.000375799
-0.000375803
-0.000434324
-0.000434229
-0.000434223
-0.00043418
-0.000434185
-0.000494458
-0.000494325
-0.000494306
-0.000494236
-0.000494234
-0.000554008
-0.000553791
-0.000553725
-0.000553584
-0.000553554
-0.000612345
-0.000612054
-0.00061192
-0.000611641
-0.000611527
-0.000671782
-0.000671328
-0.000670993
-0.000670397
-0.000670226
-0.000728079
-0.000727387
-0.000727352
-0.000727589
-0.000728007
-0.000784714
-0.000784181
-0.000785391
-0.00078702
-0.000788017
-0.000834362
-0.000835173
-0.000836885
-0.000837712
-0.000838453
-0.00087947
-0.000879538
-0.000880513
-0.000880252
-0.00088044
-0.000914529
-0.000912267
-0.00091149
-0.000909861
-0.000909302
-0.000941704
-0.00093757
-0.000935019
-0.00093161
-0.000930056
-0.00096123
-0.000955435
-0.000951352
-0.000946653
-0.000944576
-0.000974728
-0.000965783
-0.000959391
-0.000953403
-0.00095033
-0.00099135
-0.000981399
-0.000974753
-0.000968149
-0.000964411
-0.000993448
-0.000979898
-0.000969842
-0.000961649
-0.000955571
-0.00101611
-0.000999077
-0.000985073
-0.000973809
-0.000960071
-0.00100521
-0.000983507
-0.000964992
-0.000950271
-0.000935167
-0.00102619
-0.000997905
-0.000955475
-0.000930524
-0.000859738
-0.0010137
-0.000974949
-0.000954408
-0.000925117
-0.000880339
-0.00100387
-0.0009579
-0.000829974
-0.000751552
-0.000412457
-0.0010218
-0.000943284
-0.000935741
-0.000891764
-0.000613582
-0.000996387
-0.000917206
-0.000645594
-0.000208592
0.00071011
-0.00101796
-0.000948595
-0.000934052
-0.000545546
3.81158e-05
-0.00109559
-0.00106297
-0.00128255
-0.00112203
-0.0033039
-0.000969849
-0.000879128
-0.00081591
-0.000858168
-0.00116958
-0.000932159
-0.000976597
-0.000683252
-0.00101115
-1.28548e-05
-0.00100131
-0.00105585
-0.00125749
-0.00137909
-0.00190312
-0.000913224
-0.000927524
-0.000963251
-0.00103753
-0.00187842
-0.00097217
-0.000936592
-0.000971207
-0.00112661
-0.000930028
-0.000845247
-0.00083415
-0.000815773
-0.00090403
-0.000938033
-0.00075258
-0.000729099
-0.000777244
-0.000790362
-0.000774105
-0.000405915
-0.000390745
-0.000390362
-0.000393545
-0.000360809
-0.000222281
-0.00024106
-0.00029925
-0.000339268
-0.000376553
-0.00178896
-0.00176346
-0.000847904
-0.0021637
-0.00215625
-0.000766802
-0.000720611
0.000402688
0.000168419
0.00251522
0.000535065
0.0013304
-0.0017461
-0.00197549
-0.00121369
-0.000980823
-0.00304278
-0.00236361
-0.00141299
-0.001282
-0.000982633
-0.00229359
-0.00128602
-0.00104204
-0.00212896
-0.00178772
-0.00123434
-0.00138952
-0.0022168
-0.00215134
-0.00200151
-0.00220994
-0.00187628
-0.00290085
-0.00261505
-0.00256352
-0.00309937
-0.00253114
-0.00272982
-0.00196308
-0.00177544
-0.00208779
0.00714847
-0.00148557
-0.00325157
-0.00243328
-0.00257222
-0.00236118
-0.0026066
-0.00268096
-0.0025594
-0.00195305
-0.00213536
-0.00125291
-0.00179669
-0.00249342
-0.00375325
-0.00137539
-0.00157765
-0.00171166
-0.00184622
-0.000688421
-7.18376e-05
-1.87857e-05
-0.00172444
-0.00133413
-0.00213341
-0.00129239
-0.00153867
-0.000440736
-0.00188042
-0.00250205
0.000270502
0.00254082
0.00258304
0.0003522
-0.00122881
-0.000742928
0.000995523
0.00222691
-0.000454518
-0.00177886
-0.00154906
-0.00101447
0.0015524
0.00490082
0.00116489
0.00259559
0.00165944
0.00535093
0.00231588
-0.00042189
0.000968131
-0.00131486
-0.000633626
-0.00201977
0.00402855
0.00260158
0.0020303
-0.000269897
-0.000329158
5.96526e-05
0.00113097
0.00239508
0.000858119
0.00410004
0.00228534
0.00317823
-0.000217212
0.000122914
-0.000629611
-0.000886229
-0.000381274
-0.000333531
0.000389065
0.0011277
0.00351561
)
;
    }
    procBoundary1to3
    {
        type            processor;
        value           nonuniform List<scalar> 
317
(
-3.01455e-05
-3.01431e-05
-3.01523e-05
-3.01482e-05
-3.01664e-05
-6.78328e-05
-6.78327e-05
-6.78356e-05
-6.7837e-05
-6.78433e-05
-0.000139665
-0.000139664
-0.000139675
-0.000139675
-0.000139697
-0.000191218
-0.000191217
-0.000191228
-0.00019123
-0.000191251
-0.000257268
-0.000257266
-0.000257283
-0.000257285
-0.000257319
-0.000313272
-0.000313269
-0.000313291
-0.000313293
-0.000313338
-0.0003758
-0.000375796
-0.000375825
-0.000375827
-0.00037589
-0.000434181
-0.000434176
-0.000434216
-0.000434222
-0.000434313
-0.00049423
-0.000494233
-0.000494299
-0.00049432
-0.000494448
-0.00055355
-0.000553582
-0.00055372
-0.000553788
-0.000554
-0.000611521
-0.000611639
-0.000611917
-0.000612059
-0.000612342
-0.000670229
-0.000670405
-0.000670992
-0.000671338
-0.000671789
-0.000728048
-0.000727655
-0.000727397
-0.000727422
-0.000728117
-0.000788058
-0.000787114
-0.000785516
-0.000784294
-0.000784789
-0.000838476
-0.000837787
-0.000837007
-0.000835342
-0.000834493
-0.000880437
-0.000880289
-0.000880592
-0.000879681
-0.000879648
-0.000909269
-0.000909861
-0.00091152
-0.000912356
-0.000914646
-0.000930002
-0.000931594
-0.000935043
-0.000937648
-0.000941793
-0.000944514
-0.000946661
-0.000951403
-0.000955547
-0.000961347
-0.000950305
-0.000953491
-0.000959565
-0.000966019
-0.000974976
-0.000964397
-0.000968349
-0.000975089
-0.000981845
-0.000991777
-0.000955595
-0.000961963
-0.000970421
-0.000980612
-0.000994119
-0.000960185
-0.000974355
-0.000985899
-0.00100007
-0.00101707
-0.000935197
-0.000950959
-0.00096617
-0.000984757
-0.00100653
-0.000860676
-0.000931988
-0.000957279
-0.000999481
-0.00102751
-0.000880047
-0.000927513
-0.000956818
-0.000976767
-0.00101556
-0.000417308
-0.000756578
-0.000833721
-0.000959555
-0.00100532
-0.000614868
-0.000899936
-0.000937175
-0.000945411
-0.00102408
0.00156091
-0.000221471
-0.000652756
-0.000924376
-0.00100195
0.00705909
-4.34098e-05
-0.000943697
-0.000960914
-0.00102173
-0.00217146
-0.00181166
-0.00128709
-0.00106425
-0.00109864
-0.000806936
-0.000864985
-0.000803671
-0.000880655
-0.000966327
0.00245966
0.000328052
-0.000684324
-0.000980551
-0.000933156
-0.000979844
-0.00174178
-0.00125367
-0.0010571
-0.00100151
-0.00227987
-0.00140146
-0.000958385
-0.000929038
-0.000912776
-0.000925726
-0.00112562
-0.000971002
-0.000937245
-0.000974029
-0.000937379
-0.000905536
-0.000813765
-0.000835191
-0.000845357
-0.000773928
-0.000790259
-0.000778008
-0.000728911
-0.000753176
-0.00035961
-0.000394564
-0.000389775
-0.000391212
-0.000406062
-0.000375849
-0.000339273
-0.000299105
-0.000240846
-0.000222369
-0.00225343
-0.000804488
-0.00329907
-0.00175783
-0.000809003
-0.0011603
0.000685859
0.000101129
-0.00100266
0.000534445
0.00131463
-5.14873e-06
-0.00303313
-0.00235578
-0.00189562
-0.00196862
-0.0012096
-0.00137394
-0.00125943
-0.0010373
-0.00187169
-0.00126533
-0.000981007
-0.00103451
-0.00195796
-0.0017665
-0.00207442
-0.00130557
-0.00195665
-0.00231051
-0.00186604
-0.00222646
-0.00189826
-0.00288901
-0.00260662
-0.00255862
-0.00309003
-0.00251985
-0.0027188
-0.00211738
-0.0017772
-0.0012277
-0.0014985
-0.0032819
3.10478e-06
-0.00246108
-0.0025013
-0.00236412
-0.00264025
-0.00271763
-0.00254745
-0.00195024
-0.00212987
-0.00125107
-0.00179304
-0.00248482
-0.00374365
-0.00137071
-0.00157079
-0.00170375
-0.00187064
-0.000726041
-9.27689e-05
-0.00176225
-0.00134655
-0.000575994
-0.00213751
-0.00130959
-0.00158363
-0.000489843
-0.0019326
-0.00254245
0.000266114
0.00252384
0.00258712
-0.00123348
-0.000738035
-0.00100903
-0.00177489
-0.00154362
-0.00100804
0.000987716
0.00220554
-0.000460752
0.00484526
0.00113355
0.000697807
0.0025582
0.00160249
0.00522167
0.00227107
-0.000464786
0.000912786
-0.0013339
-0.00066698
-0.00206556
0.00409801
0.00264099
0.00197628
-0.00026874
-0.000333093
4.56893e-05
0.00112587
0.0023788
0.000837694
0.00408024
0.00224902
0.0031363
0.000107248
-0.000639971
-0.00022042
-0.000919876
-0.000407474
-0.00035736
0.000373051
0.00109911
0.00348548
)
;
    }
}


// ************************************************************************* //
