/*--------------------------------*- C++ -*----------------------------------*\
| =========                 |                                                 |
| \\      /  F ield         | OpenFOAM: The Open Source CFD Toolbox           |
|  \\    /   O peration     | Version:  5.x                                   |
|   \\  /    A nd           | Web:      www.OpenFOAM.org                      |
|    \\/     M anipulation  |                                                 |
\*---------------------------------------------------------------------------*/
FoamFile
{
    version     2.0;
    format      ascii;
    class       volVectorField;
    location    "0.045";
    object      U;
}
// * * * * * * * * * * * * * * * * * * * * * * * * * * * * * * * * * * * * * //

dimensions      [0 1 -1 0 0 0 0];

internalField   nonuniform List<vector> 
1539
(
(-8.82503e-08 -8.60188e-06 0.00165942)
(4.50423e-06 -8.62922e-06 0.00165852)
(4.49365e-06 -8.59163e-06 0.00166059)
(7.60337e-06 -8.59193e-06 0.00165876)
(7.87771e-06 -8.5085e-06 0.00166314)
(-2.13849e-07 -8.46229e-06 0.00165442)
(4.51345e-06 -8.5095e-06 0.00165355)
(4.52927e-06 -8.47945e-06 0.00165571)
(7.68402e-06 -8.48876e-06 0.00165389)
(7.96111e-06 -8.40022e-06 0.00165836)
(-2.90372e-07 -5.23532e-06 0.00165631)
(4.48701e-06 -5.27218e-06 0.00165544)
(4.51433e-06 -5.24951e-06 0.00165762)
(7.68258e-06 -5.25959e-06 0.00165578)
(7.96884e-06 -5.1978e-06 0.00166027)
(-3.42935e-07 -5.2808e-06 0.00165376)
(4.49926e-06 -5.31667e-06 0.00165292)
(4.54185e-06 -5.29434e-06 0.00165515)
(7.73576e-06 -5.30462e-06 0.00165333)
(8.02485e-06 -5.24681e-06 0.00165786)
(-3.96778e-07 -3.8078e-07 0.00165465)
(4.47346e-06 -4.13261e-07 0.0016538)
(4.52638e-06 -4.11127e-07 0.00165605)
(7.73013e-06 -4.24607e-07 0.00165421)
(8.02852e-06 -4.07294e-07 0.00165875)
(-2.31044e-07 -3.72877e-06 -0.000172447)
(2.24086e-06 -3.70206e-06 -0.000172151)
(2.94807e-06 -3.63096e-06 -0.000171684)
(4.14998e-06 -3.615e-06 -0.000171052)
(3.16125e-06 -3.5572e-06 -0.000170489)
(-5.11864e-08 -5.0588e-06 -0.000172982)
(2.33535e-06 -5.01776e-06 -0.000172678)
(3.03247e-06 -4.93212e-06 -0.000172203)
(4.22162e-06 -4.90964e-06 -0.000171566)
(3.21906e-06 -4.84254e-06 -0.000170989)
(1.84103e-08 -3.94625e-06 -0.000173677)
(2.36746e-06 -3.91411e-06 -0.000173365)
(3.05612e-06 -3.85324e-06 -0.000172885)
(4.23953e-06 -3.83608e-06 -0.000172245)
(3.23024e-06 -3.78674e-06 -0.000171664)
(1.12906e-07 -3.41258e-06 -0.000174136)
(2.42836e-06 -3.38105e-06 -0.000173823)
(3.1105e-06 -3.32461e-06 -0.000173342)
(4.28813e-06 -3.30768e-06 -0.0001727)
(3.26988e-06 -3.2617e-06 -0.000172112)
(1.60154e-07 -1.17082e-06 -0.000174517)
(2.45543e-06 -1.14405e-06 -0.000174197)
(3.12949e-06 -1.11685e-06 -0.000173715)
(4.30245e-06 -1.10604e-06 -0.00017307)
(3.27764e-06 -1.09134e-06 -0.000172481)
(1.45942e-07 -9.29463e-06 0.00110036)
(5.35486e-06 -9.31354e-06 0.00110027)
(5.70017e-06 -9.26684e-06 0.00110334)
(8.94905e-06 -9.26194e-06 0.00110321)
(8.59058e-06 -9.16243e-06 0.00110839)
(6.12575e-08 -9.85703e-06 0.00109476)
(5.38137e-06 -9.8877e-06 0.00109468)
(5.74994e-06 -9.84339e-06 0.00109781)
(9.05056e-06 -9.8436e-06 0.0010977)
(8.69007e-06 -9.73571e-06 0.00110297)
(2.33879e-08 -6.51162e-06 0.00109486)
(5.36845e-06 -6.53848e-06 0.00109476)
(5.74422e-06 -6.50912e-06 0.00109791)
(9.05671e-06 -6.51295e-06 0.00109778)
(8.70146e-06 -6.4393e-06 0.00110307)
(-2.84724e-08 -6.22432e-06 0.00109147)
(5.38387e-06 -6.25217e-06 0.00109138)
(5.77546e-06 -6.22703e-06 0.00109456)
(9.1204e-06 -6.23214e-06 0.00109445)
(8.76587e-06 -6.16567e-06 0.0010998)
(-6.36501e-08 -7.8663e-07 0.00109151)
(5.36573e-06 -8.12594e-07 0.00109142)
(5.76426e-06 -8.18272e-07 0.0010946)
(9.1181e-06 -8.29868e-07 0.00109448)
(8.76991e-06 -8.20512e-07 0.00109984)
(-3.22114e-07 -9.47606e-06 0.000269344)
(5.23097e-06 -9.44373e-06 0.000269609)
(5.89406e-06 -9.31079e-06 0.000272694)
(9.19537e-06 -9.28191e-06 0.000273319)
(8.48007e-06 -9.12023e-06 0.0002783)
(-1.77303e-07 -1.05616e-05 0.000264)
(5.39136e-06 -1.05233e-05 0.000264284)
(6.05129e-06 -1.03731e-05 0.000267454)
(9.38093e-06 -1.03431e-05 0.000268101)
(8.64176e-06 -1.01619e-05 0.000273206)
(-1.4691e-07 -7.24137e-06 0.000263248)
(5.4193e-06 -7.21238e-06 0.000263537)
(6.07409e-06 -7.10579e-06 0.000266722)
(9.40663e-06 -7.08572e-06 0.000267371)
(8.66617e-06 -6.96021e-06 0.000272496)
(-5.00608e-08 -6.76048e-06 0.000259864)
(5.52693e-06 -6.73119e-06 0.000260165)
(6.17796e-06 -6.63022e-06 0.000263402)
(9.52655e-06 -6.60976e-06 0.000264064)
(8.77079e-06 -6.49271e-06 0.000269267)
(-2.36434e-08 -1.21808e-06 0.000259432)
(5.54955e-06 -1.20082e-06 0.000259736)
(6.19551e-06 -1.16299e-06 0.00026298)
(9.54418e-06 -1.15594e-06 0.000263645)
(8.78649e-06 -1.12642e-06 0.000268857)
(2.73747e-07 -1.4801e-05 0.000798251)
(8.70491e-06 -1.48e-05 0.000798593)
(9.41031e-06 -1.46671e-05 0.000804119)
(1.45565e-05 -1.46392e-05 0.000804855)
(1.37274e-05 -1.44128e-05 0.000813786)
(2.39915e-07 -1.5955e-05 0.000788718)
(8.83523e-06 -1.59613e-05 0.000789069)
(9.56679e-06 -1.58175e-05 0.000794718)
(1.48047e-05 -1.57933e-05 0.000795479)
(1.39537e-05 -1.55411e-05 0.000804632)
(2.17791e-07 -1.06468e-05 0.000787867)
(8.84226e-06 -1.06576e-05 0.000788212)
(9.57817e-06 -1.0561e-05 0.000793874)
(1.48329e-05 -1.05492e-05 0.00079463)
(1.39857e-05 -1.03782e-05 0.00080381)
(1.9053e-07 -1.00404e-05 0.000781924)
(8.92099e-06 -1.00529e-05 0.000782273)
(9.67516e-06 -9.96834e-06 0.00078801)
(1.49875e-05 -9.95841e-06 0.000788782)
(1.41291e-05 -9.80474e-06 0.000798095)
(1.6408e-07 -1.29006e-06 0.000781452)
(8.91437e-06 -1.31267e-06 0.000781796)
(9.6727e-06 -1.3131e-06 0.00078754)
(1.49966e-05 -1.32351e-06 0.000788308)
(1.41434e-05 -1.30825e-06 0.000797636)
(2.40401e-08 -1.92832e-05 0.000467308)
(1.10995e-05 -1.92425e-05 0.000467845)
(1.21555e-05 -1.89833e-05 0.000474933)
(1.88645e-05 -1.89279e-05 0.000476123)
(1.76731e-05 -1.85383e-05 0.000487582)
(1.32205e-07 -2.09481e-05 0.000454915)
(1.13912e-05 -2.0908e-05 0.000455486)
(1.24615e-05 -2.06215e-05 0.000462807)
(1.92977e-05 -2.05709e-05 0.000464054)
(1.80628e-05 -2.01406e-05 0.00047587)
(1.43115e-07 -1.40357e-05 0.000453494)
(1.1426e-05 -1.40083e-05 0.000454065)
(1.24925e-05 -1.38134e-05 0.000461421)
(1.93453e-05 -1.37831e-05 0.000462668)
(1.81151e-05 -1.34968e-05 0.000474538)
(2.21165e-07 -1.31762e-05 0.000445703)
(1.16136e-05 -1.31468e-05 0.000446292)
(1.26867e-05 -1.2964e-05 0.0004538)
(1.96144e-05 -1.29322e-05 0.000455081)
(1.83571e-05 -1.26669e-05 0.00046718)
(2.2986e-07 -1.78796e-06 0.000444901)
(1.16383e-05 -1.78391e-06 0.000445491)
(1.2707e-05 -1.74106e-06 0.000453013)
(1.96425e-05 -1.73996e-06 0.000454294)
(1.83876e-05 -1.69564e-06 0.000466421)
(6.47447e-07 -2.75654e-05 0.000651688)
(1.63298e-05 -2.75295e-05 0.000652565)
(1.76889e-05 -2.71583e-05 0.000663179)
(2.72097e-05 -2.70723e-05 0.000665)
(2.55399e-05 -2.64813e-05 0.000682075)
(6.62745e-07 -2.97734e-05 0.000633329)
(1.6727e-05 -2.9745e-05 0.000634241)
(1.81349e-05 -2.93332e-05 0.000645177)
(2.78712e-05 -2.92526e-05 0.000647065)
(2.6131e-05 -2.8589e-05 0.000664703)
(6.44941e-07 -1.98589e-05 0.000631264)
(1.67699e-05 -1.9851e-05 0.000632169)
(1.81811e-05 -1.95686e-05 0.000643147)
(2.79538e-05 -1.95221e-05 0.000645028)
(2.6219e-05 -1.90683e-05 0.000662734)
(6.43602e-07 -1.86329e-05 0.00061979)
(1.70173e-05 -1.8627e-05 0.000620722)
(1.84638e-05 -1.83764e-05 0.00063189)
(2.83716e-05 -1.83319e-05 0.000633813)
(2.6596e-05 -1.79219e-05 0.00065185)
(6.14929e-07 -2.22415e-06 0.000618637)
(1.70264e-05 -2.2512e-06 0.000619567)
(1.84762e-05 -2.23779e-06 0.000630765)
(2.84084e-05 -2.24976e-06 0.000632681)
(2.66391e-05 -2.2095e-06 0.000650758)
(8.47496e-07 -3.81874e-05 0.000535212)
(2.25908e-05 -3.81109e-05 0.000536434)
(2.45906e-05 -3.75202e-05 0.000550767)
(3.77659e-05 -3.73951e-05 0.000553289)
(3.52635e-05 -3.64282e-05 0.000576369)
(9.5755e-07 -4.13778e-05 0.00050996)
(2.32396e-05 -4.131e-05 0.000511255)
(2.52859e-05 -4.06595e-05 0.000526196)
(3.88293e-05 -4.05492e-05 0.000528858)
(3.62305e-05 -3.94872e-05 0.000552874)
(9.53474e-07 -2.75748e-05 0.000506955)
(2.33088e-05 -2.75274e-05 0.000508259)
(2.53511e-05 -2.71006e-05 0.000523312)
(3.89383e-05 -2.70357e-05 0.000525982)
(3.63542e-05 -2.63497e-05 0.000550135)
(1.03596e-06 -2.58039e-05 0.000491003)
(2.37138e-05 -2.57496e-05 0.000492353)
(2.57775e-05 -2.53463e-05 0.000507841)
(3.95805e-05 -2.52789e-05 0.000510624)
(3.69368e-05 -2.46425e-05 0.000535384)
(1.0295e-06 -3.08199e-06 0.000489327)
(2.37664e-05 -3.09026e-06 0.000490681)
(2.58219e-05 -3.02296e-06 0.000506212)
(3.96423e-05 -3.0313e-06 0.000509006)
(3.70085e-05 -2.95022e-06 0.000533837)
(1.67421e-06 -5.35872e-05 0.000590644)
(3.18844e-05 -5.3476e-05 0.000592628)
(3.45439e-05 -5.24833e-05 0.000613387)
(5.28199e-05 -5.22523e-05 0.0006174)
(4.93425e-05 -5.07036e-05 0.000650759)
(1.76271e-06 -5.80392e-05 0.000554212)
(3.29624e-05 -5.79279e-05 0.000556333)
(3.5738e-05 -5.67966e-05 0.000577931)
(5.4557e-05 -5.65679e-05 0.000582154)
(5.08912e-05 -5.48308e-05 0.000616946)
(1.75341e-06 -3.88159e-05 0.000549666)
(3.31267e-05 -3.87526e-05 0.000551768)
(3.59036e-05 -3.79235e-05 0.000573474)
(5.47857e-05 -3.77563e-05 0.000577697)
(5.11221e-05 -3.65574e-05 0.000612699)
(1.79501e-06 -3.6261e-05 0.000526994)
(3.38548e-05 -3.62056e-05 0.000529187)
(3.67344e-05 -3.5476e-05 0.00055134)
(5.59234e-05 -3.53083e-05 0.000555669)
(5.21196e-05 -3.42205e-05 0.000591517)
(1.76424e-06 -4.11309e-06 0.000524453)
(3.39117e-05 -4.14111e-06 0.000526645)
(3.68008e-05 -4.08823e-06 0.000548892)
(5.60415e-05 -4.09231e-06 0.000553201)
(5.22359e-05 -3.98598e-06 0.000589185)
(2.68897e-06 -7.5724e-05 0.000515263)
(4.53341e-05 -7.55061e-05 0.000518049)
(4.93634e-05 -7.40519e-05 0.000546131)
(7.51496e-05 -7.37086e-05 0.000551519)
(6.96466e-05 -7.12695e-05 0.000596591)
(2.91296e-06 -8.23685e-05 0.000465392)
(4.69593e-05 -8.21827e-05 0.00046832)
(5.11077e-05 -8.0585e-05 0.000497801)
(7.78563e-05 -8.02651e-05 0.000503501)
(7.20857e-05 -7.7559e-05 0.000550874)
(2.8831e-06 -5.47924e-05 0.000458822)
(4.71171e-05 -5.46726e-05 0.00046187)
(5.12803e-05 -5.36922e-05 0.000491731)
(7.81756e-05 -5.35207e-05 0.000497488)
(7.24285e-05 -5.17788e-05 0.000545166)
(3.03872e-06 -5.10163e-05 0.000426815)
(4.80594e-05 -5.08722e-05 0.000430077)
(5.22597e-05 -4.99285e-05 0.00046123)
(7.97703e-05 -4.97749e-05 0.000467378)
(7.38806e-05 -4.81558e-05 0.000516455)
(3.02189e-06 -5.84679e-06 0.000422969)
(4.8205e-05 -5.86268e-06 0.000426335)
(5.23776e-05 -5.70799e-06 0.000457704)
(7.99488e-05 -5.74166e-06 0.000463977)
(7.40944e-05 -5.52591e-06 0.000513197)
(4.20843e-06 -0.000105023 0.000565624)
(6.2753e-05 -0.000104763 0.000570099)
(6.8014e-05 -0.000102335 0.00061075)
(0.000103297 -0.000101778 0.000619603)
(9.58579e-05 -9.78714e-05 0.000685094)
(4.42759e-06 -0.000114499 0.000492015)
(6.53723e-05 -0.000114126 0.000497071)
(7.09192e-05 -0.000111215 0.000540012)
(0.000107648 -0.000110617 0.00054968)
(9.97645e-05 -0.000106273 0.000618895)
(4.5281e-06 -7.73931e-05 0.000481297)
(6.60357e-05 -7.69958e-05 0.000486341)
(7.15221e-05 -7.44946e-05 0.000529802)
(0.000108239 -7.38796e-05 0.000539655)
(0.000100314 -7.09772e-05 0.000609685)
(4.76416e-06 -7.21141e-05 0.000436101)
(6.82708e-05 -7.17413e-05 0.000441137)
(7.40354e-05 -6.95029e-05 0.000485669)
(0.000111166 -6.88194e-05 0.000496037)
(0.000102747 -6.61897e-05 0.000568379)
(4.82829e-06 -8.29599e-06 0.000430734)
(6.86469e-05 -8.22322e-06 0.000435619)
(7.44439e-05 -7.95674e-06 0.000480117)
(0.000111553 -7.83744e-06 0.000490456)
(0.000103013 -7.59919e-06 0.000563373)
(6.91065e-06 -0.000151584 0.000427726)
(9.04597e-05 -0.00015077 0.000433763)
(9.88672e-05 -0.000146962 0.000487934)
(0.000149518 -0.00014578 0.00049952)
(0.000137173 -0.000139511 0.00058679)
(7.6895e-06 -0.000166721 0.000329503)
(9.49561e-05 -0.000165967 0.000336013)
(0.000103716 -0.000161558 0.00039356)
(0.000156764 -0.000160239 0.000406034)
(0.000143442 -0.000152992 0.000498523)
(7.63852e-06 -0.000110707 0.000317722)
(9.56216e-05 -0.000110606 0.000323872)
(0.000104594 -0.000108036 0.000380982)
(0.000158084 -0.000107163 0.000393134)
(0.000144625 -0.000102295 0.000486472)
(7.78409e-06 -0.00010158 0.000258645)
(9.7627e-05 -0.000101594 0.000264858)
(0.000107159 -9.96135e-05 0.000322962)
(0.000162507 -9.89734e-05 0.000334693)
(0.000148452 -9.44682e-05 0.000431363)
(7.61427e-06 -1.15447e-05 0.000251184)
(9.75877e-05 -1.17236e-05 0.000257984)
(0.000107214 -1.16241e-05 0.000316195)
(0.000163231 -1.16954e-05 0.00032757)
(0.000149255 -1.08968e-05 0.00042467)
(9.90381e-06 -0.00020642 0.000526387)
(0.000122963 -0.000205666 0.000536943)
(0.000133772 -0.000199767 0.000617638)
(0.000202187 -0.000198284 0.000636399)
(0.000185984 -0.000189007 0.000764541)
(1.05784e-05 -0.000224542 0.000381588)
(0.00012943 -0.000224057 0.000392655)
(0.000140941 -0.000218206 0.00047617)
(0.000212649 -0.000217041 0.000497171)
(0.000195261 -0.000206625 0.000635284)
(1.0305e-05 -0.000148251 0.000354838)
(0.000129297 -0.000148151 0.000367708)
(0.000140785 -0.000145093 0.000455068)
(0.000213767 -0.000145221 0.000475693)
(0.000196697 -0.000138138 0.000616007)
(1.05345e-05 -0.000138653 0.000254027)
(0.000132588 -0.00013763 0.000268602)
(0.00014387 -0.000134291 0.000366508)
(0.000219607 -0.000134385 0.000391111)
(0.000202557 -0.000127993 0.000534262)
(1.11674e-05 -1.6274e-05 0.000238778)
(0.000133659 -1.56266e-05 0.000253279)
(0.00014403 -1.52244e-05 0.000352838)
(0.000220067 -1.5475e-05 0.000379292)
(0.000203275 -1.48475e-05 0.000522927)
(1.70406e-05 -0.000301012 0.000269741)
(0.000181709 -0.000299633 0.000283627)
(0.000198321 -0.000292819 0.000388124)
(0.00029647 -0.000289319 0.00041638)
(0.000269347 -0.000272813 0.000585359)
(1.83087e-05 -0.000338322 6.70439e-05)
(0.000189537 -0.000335253 8.53978e-05)
(0.000208229 -0.000324177 0.000204039)
(0.000315927 -0.000320994 0.00023483)
(0.000285853 -0.000301575 0.0004149)
(2.00029e-05 -0.000238264 2.77729e-05)
(0.000195849 -0.000234656 4.65501e-05)
(0.000212575 -0.000217694 0.000167845)
(0.000319073 -0.00021322 0.00020339)
(0.000289315 -0.000203314 0.000386023)
(2.1851e-05 -0.000217638 -9.53886e-05)
(0.000210106 -0.000216021 -7.48658e-05)
(0.000229665 -0.000201841 4.51623e-05)
(0.000330312 -0.000195372 8.32739e-05)
(0.000296166 -0.000187547 0.000280268)
(2.15706e-05 -2.73722e-05 -0.000117052)
(0.000211646 -2.76426e-05 -9.63655e-05)
(0.000233225 -2.59019e-05 2.53409e-05)
(0.000333371 -2.40934e-05 6.38359e-05)
(0.000297507 -2.28104e-05 0.000265582)
(2.33896e-05 -0.000415504 0.000427392)
(0.000241349 -0.000410213 0.000451558)
(0.000266526 -0.000389944 0.000605544)
(0.00039949 -0.000385811 0.000650309)
(0.000360527 -0.000365048 0.000894429)
(2.84779e-05 -0.000466601 0.000119266)
(0.000266431 -0.000461223 0.000150472)
(0.000290376 -0.00043857 0.000321411)
(0.000423591 -0.000430112 0.000378967)
(0.00038129 -0.00040603 0.000648521)
(2.86053e-05 -0.000310686 5.28694e-05)
(0.000269375 -0.000308416 8.59422e-05)
(0.000297629 -0.000303974 0.000261097)
(0.00043203 -0.000296781 0.000320752)
(0.000385404 -0.000272771 0.000603133)
(3.05616e-05 -0.000283481 -0.00013029)
(0.000273143 -0.000280549 -9.33243e-05)
(0.000302012 -0.0002768 8.43967e-05)
(0.000454801 -0.000273944 0.000148202)
(0.000405849 -0.000248438 0.00044743)
(3.13162e-05 -3.85451e-05 -0.000171224)
(0.000276055 -3.77663e-05 -0.000131507)
(0.000304234 -3.57819e-05 5.01033e-05)
(0.000460398 -3.56831e-05 0.000115672)
(0.000411387 -3.03437e-05 0.000421595)
(4.07742e-05 -0.000618601 5.22475e-06)
(0.000359855 -0.000610032 4.54158e-05)
(0.000397064 -0.000585833 0.000255143)
(0.000585457 -0.000569262 0.000317282)
(0.000521312 -0.000526586 0.0006303)
(4.90037e-05 -0.000712951 -0.000366604)
(0.000391675 -0.000700973 -0.000322974)
(0.000436712 -0.000668725 -0.000109066)
(0.000643135 -0.000650649 -3.45692e-05)
(0.000563988 -0.000592973 0.000314923)
(5.25505e-05 -0.000487813 -0.000462302)
(0.00040407 -0.000478445 -0.000412744)
(0.000447374 -0.000454697 -0.000189267)
(0.000661209 -0.000443973 -0.000109716)
(0.000580556 -0.000404396 0.000252116)
(5.82478e-05 -0.000441731 -0.000709059)
(0.000424791 -0.000433469 -0.000653982)
(0.000471184 -0.000412828 -0.000415034)
(0.00069345 -0.000400445 -0.00032581)
(0.000604685 -0.00036908 3.97297e-05)
(6.06581e-05 -6.8948e-05 -0.000768525)
(0.000432974 -6.65193e-05 -0.000710246)
(0.000480398 -6.08404e-05 -0.000465795)
(0.000704969 -5.73259e-05 -0.000370601)
(0.000612866 -4.93242e-05 -1.72872e-06)
(6.30765e-05 -0.000800267 0.000159529)
(0.000491282 -0.0007913 0.000226194)
(0.000538394 -0.000766337 0.000545933)
(0.000774785 -0.000749476 0.000655412)
(0.000684525 -0.000691434 0.00114088)
(7.14617e-05 -0.00093432 -0.00042544)
(0.000523979 -0.000919572 -0.00034152)
(0.000578784 -0.000883166 -2.80019e-06)
(0.000847756 -0.000857285 0.000130304)
(0.000742567 -0.000784352 0.000652889)
(7.74454e-05 -0.000653138 -0.000610417)
(0.000542419 -0.000639422 -0.000514037)
(0.00060066 -0.000609944 -0.00015548)
(0.000873599 -0.000588026 -3.51956e-06)
(0.000759389 -0.000547967 0.000542634)
(8.47952e-05 -0.000589709 -0.000999343)
(0.000567174 -0.000578057 -0.00088972)
(0.000630181 -0.000553338 -0.000516398)
(0.000909754 -0.00053484 -0.00034466)
(0.00078406 -0.000502297 0.000220566)
(8.86947e-05 -9.90474e-05 -0.00112029)
(0.000578791 -9.51209e-05 -0.00100085)
(0.000643874 -8.77263e-05 -0.000614213)
(0.000924656 -8.16301e-05 -0.000429957)
(0.000793167 -7.30263e-05 0.000152755)
(0.000106654 -0.00122311 -0.000385883)
(0.00074624 -0.00119675 -0.00029364)
(0.000826253 -0.00115257 9.20402e-05)
(0.00118061 -0.0011115 0.000243391)
(0.00102215 -0.00102998 0.000843791)
(0.000132152 -0.00148314 -0.0011651)
(0.000814303 -0.00144143 -0.00104352)
(0.000908506 -0.00137034 -0.000612867)
(0.00129902 -0.00130978 -0.000418615)
(0.00110367 -0.00119142 0.000239879)
(0.000148129 -0.0010617 -0.00143594)
(0.000859003 -0.00102662 -0.00129449)
(0.000957866 -0.00096827 -0.000834689)
(0.00135953 -0.000918907 -0.00061364)
(0.00114468 -0.000836691 8.75917e-05)
(0.000167044 -0.000951612 -0.00195397)
(0.000907742 -0.000920285 -0.00179019)
(0.00101622 -0.000871557 -0.00129794)
(0.00143064 -0.000826872 -0.00104766)
(0.00118889 -0.000758939 -0.000301108)
(0.000179219 -0.000190831 -0.00213445)
(0.000939059 -0.00017868 -0.00195535)
(0.00105127 -0.000159708 -0.00144097)
(0.00147218 -0.000143719 -0.00117084)
(0.00121509 -0.000118243 -0.000395395)
(0.00015474 -0.00160678 -0.000361304)
(0.000969242 -0.00156759 -0.000184777)
(0.00107542 -0.00149587 0.000412128)
(0.00152681 -0.00143484 0.000688283)
(0.00130605 -0.00131652 0.00160755)
(0.00019211 -0.0019848 -0.00158049)
(0.00107623 -0.00192083 -0.0013398)
(0.00120367 -0.00181029 -0.00067748)
(0.00170087 -0.00171468 -0.000316865)
(0.00142437 -0.00154082 0.000684225)
(0.00021791 -0.00144199 -0.00213758)
(0.00114369 -0.00138607 -0.00183858)
(0.00128149 -0.001295 -0.00110526)
(0.00179627 -0.00121705 -0.000678287)
(0.00148519 -0.00108895 0.000407358)
(0.000247278 -0.00128823 -0.00298312)
(0.00122323 -0.00123894 -0.00262614)
(0.00137269 -0.00115964 -0.00184199)
(0.00190699 -0.00109206 -0.00134406)
(0.00155697 -0.000985321 -0.000192842)
(0.000266381 -0.000281158 -0.00339912)
(0.00127228 -0.000262001 -0.002985)
(0.00142837 -0.000232592 -0.00214287)
(0.00197065 -0.000206695 -0.00158656)
(0.00159584 -0.000169373 -0.000371106)
(0.00028231 -0.00248343 -0.00100389)
(0.00151963 -0.00239092 -0.000757978)
(0.00169923 -0.00227863 -4.04976e-05)
(0.00237647 -0.0021503 0.000329581)
(0.001971 -0.00198295 0.00140629)
(0.000371803 -0.00325999 -0.00259119)
(0.0017173 -0.00309577 -0.0022447)
(0.00193135 -0.00288818 -0.00141225)
(0.00266114 -0.00267676 -0.000911368)
(0.00213836 -0.00239205 0.000323739)
(0.000446138 -0.00246427 -0.00339197)
(0.00189134 -0.0023129 -0.00295813)
(0.00211807 -0.0021327 -0.00201719)
(0.00287259 -0.00194602 -0.00141262)
(0.00226672 -0.00171367 -4.69843e-05)
(0.00052276 -0.00221318 -0.00452669)
(0.0020489 -0.00206674 -0.0039944)
(0.00229823 -0.00190918 -0.00296417)
(0.00308033 -0.00173514 -0.00225066)
(0.0023792 -0.00153736 -0.000769698)
(0.000592131 -0.000608319 -0.00513778)
(0.00219534 -0.000539102 -0.00452683)
(0.00244965 -0.000462236 -0.00339893)
(0.00324451 -0.000387928 -0.00259821)
(0.00247162 -0.000298332 -0.00101742)
(0.000400085 -0.00325203 -0.00138093)
(0.00193272 -0.0031091 -0.000897948)
(0.00216295 -0.00291763 0.000231133)
(0.00297411 -0.00272169 0.000924388)
(0.00242205 -0.00243847 0.00259113)
(0.000536959 -0.00437381 -0.00394396)
(0.00225521 -0.00412186 -0.00322218)
(0.00253694 -0.00378782 -0.0019214)
(0.00343759 -0.00345762 -0.00095981)
(0.00270528 -0.00299461 0.000918777)
(0.000649944 -0.00337743 -0.00572714)
(0.00251853 -0.00313569 -0.00472743)
(0.00282695 -0.00284686 -0.00316788)
(0.00376731 -0.00255628 -0.00192198)
(0.00290073 -0.00218235 0.000225259)
(0.000776902 -0.00303415 -0.00766544)
(0.00278581 -0.0028077 -0.00642022)
(0.00311635 -0.00254144 -0.00473227)
(0.00410234 -0.00227769 -0.00322793)
(0.00309262 -0.00195585 -0.000908438)
(0.000874415 -0.000895599 -0.00924985)
(0.00301124 -0.000797854 -0.00766778)
(0.00335692 -0.000670637 -0.005734)
(0.00435309 -0.000557384 -0.00395157)
(0.00323449 -0.000419986 -0.00139316)
(0.000764545 -0.00513586 -0.00179101)
(0.00313166 -0.00479688 -0.00115154)
(0.00352135 -0.00450571 0.000139644)
(0.00473743 -0.0040998 0.00101476)
(0.00369344 -0.00371111 0.00285865)
(0.00109189 -0.00760752 -0.00505303)
(0.00373982 -0.00692642 -0.00402778)
(0.00419347 -0.00628821 -0.00245789)
(0.00550218 -0.00552398 -0.00118004)
(0.00408214 -0.00475889 0.00100575)
(0.00144481 -0.00618562 -0.00754509)
(0.00445064 -0.00551078 -0.00611862)
(0.00492332 -0.00494336 -0.00414126)
(0.00626675 -0.00421388 -0.00245662)
(0.0044884 -0.00354067 0.000130753)
(0.00176577 -0.00573599 -0.0102586)
(0.00498212 -0.00500714 -0.0083455)
(0.00549037 -0.00447534 -0.00612973)
(0.00690533 -0.0037647 -0.00403599)
(0.00478031 -0.00315574 -0.00116863)
(0.00217317 -0.00219529 -0.0126229)
(0.00571129 -0.00178889 -0.0102534)
(0.00616573 -0.00146677 -0.00755373)
(0.00758668 -0.00111428 -0.00505959)
(0.00511934 -0.000785679 -0.00180884)
(0.00103834 -0.00663815 -0.00304079)
(0.00386348 -0.00609798 -0.00173594)
(0.00432899 -0.00561528 0.000389417)
(0.00569387 -0.00500346 0.00197185)
(0.00433587 -0.00436147 0.0048097)
(0.00155863 -0.0101301 -0.0083045)
(0.00485043 -0.0090909 -0.00618543)
(0.00538443 -0.00807047 -0.00373698)
(0.00690263 -0.00693041 -0.00130319)
(0.00497787 -0.00572326 0.00196383)
(0.00207236 -0.00858315 -0.0139904)
(0.00592253 -0.00745328 -0.0105877)
(0.00648873 -0.00651849 -0.00721358)
(0.00804107 -0.00541197 -0.00373641)
(0.00558804 -0.00435647 0.000382771)
(0.00268453 -0.00811244 -0.0188933)
(0.00691491 -0.00694268 -0.0143569)
(0.00742574 -0.00595408 -0.0105945)
(0.0090654 -0.00488074 -0.00619271)
(0.00607245 -0.00389554 -0.00174979)
(0.00323797 -0.00326786 -0.0254983)
(0.00808089 -0.00271389 -0.0188957)
(0.00855086 -0.00210123 -0.0139984)
(0.0101002 -0.00158679 -0.00831288)
(0.00660914 -0.00106465 -0.00305558)
(0.00206849 -0.0105953 -0.00234013)
(0.00656196 -0.00941381 -0.000705571)
(0.00722894 -0.00878246 0.00156887)
(0.00915987 -0.0074953 0.00346556)
(0.00663161 -0.00665748 0.00635523)
(0.0032072 -0.0185601 -0.00905575)
(0.00830716 -0.0157804 -0.0059415)
(0.0090752 -0.0138934 -0.00313254)
(0.0112045 -0.0112337 -3.09087e-05)
(0.00746943 -0.00918797 0.00345227)
(0.00484662 -0.0167757 -0.0171266)
(0.0112276 -0.0136827 -0.0120911)
(0.0117746 -0.0118008 -0.00773313)
(0.0138652 -0.0091029 -0.00312719)
(0.00875776 -0.00725408 0.00155853)
(0.00629638 -0.0172447 -0.0246809)
(0.0132811 -0.0133153 -0.0170126)
(0.013655 -0.0112603 -0.0121121)
(0.0157522 -0.00834098 -0.00595261)
(0.0093905 -0.00659418 -0.000728785)
(0.00877736 -0.00880997 -0.0353716)
(0.017212 -0.00633392 -0.0246596)
(0.0167498 -0.0048774 -0.0171333)
(0.0185324 -0.00323911 -0.0090572)
(0.0105722 -0.00209742 -0.00235938)
(0.00266866 -0.01362 -0.00404284)
(0.00777221 -0.0115585 -0.000891569)
(0.00849901 -0.0105095 0.00258871)
(0.0104807 -0.00865126 0.00571568)
(0.00734159 -0.00738076 0.00976552)
(0.00466444 -0.024919 -0.0144689)
(0.0107731 -0.0204792 -0.00865348)
(0.0112946 -0.0173753 -0.00438989)
(0.0134896 -0.0135254 0.000986384)
(0.00861209 -0.0105205 0.00570576)
(0.00709904 -0.0242113 -0.0317091)
(0.0153148 -0.0185251 -0.0205197)
(0.0154523 -0.0154977 -0.0130984)
(0.0173356 -0.0113333 -0.00438724)
(0.0104662 -0.00853642 0.00258421)
(0.0103491 -0.0263516 -0.046594)
(0.0194809 -0.0195084 -0.0295384)
(0.0184865 -0.0153531 -0.0205283)
(0.0204515 -0.0108102 -0.00866317)
(0.0115206 -0.00781318 -0.000904897)
(0.0139608 -0.0139951 -0.0768656)
(0.0263133 -0.0103881 -0.0465821)
(0.0241563 -0.00713826 -0.0317098)
(0.0248766 -0.00470307 -0.0144747)
(0.0135728 -0.00270235 -0.00405155)
(0.00521799 -0.0214506 -0.00066045)
(0.013194 -0.0175028 0.0033217)
(0.0138366 -0.0160433 0.00691192)
(0.0163409 -0.0124201 0.0103562)
(0.0108414 -0.0108775 0.0140212)
(0.00901353 -0.0462352 -0.013396)
(0.0183867 -0.0354123 -0.00449326)
(0.0187167 -0.0295851 -0.000331602)
(0.0213024 -0.0213389 0.00608307)
(0.012384 -0.0163735 0.0103379)
(0.01604 -0.0489221 -0.0394561)
(0.0298387 -0.0345769 -0.0212906)
(0.0279118 -0.0279441 -0.011693)
(0.0295525 -0.018754 -0.000321448)
(0.0160112 -0.0138651 0.00690197)
(0.0233489 -0.0624108 -0.0651746)
(0.0393405 -0.0393717 -0.0315977)
(0.0345395 -0.0298721 -0.0213244)
(0.0353795 -0.0184291 -0.00451152)
(0.0174756 -0.0132304 0.00329033)
(0.039146 -0.0392187 -0.120786)
(0.0623774 -0.0234394 -0.0651396)
(0.0488785 -0.0160878 -0.0394398)
(0.0461995 -0.00906523 -0.0133949)
(0.0214244 -0.00525382 -0.000670127)
(0.00663977 -0.0269111 0.00294747)
(0.0153425 -0.0197845 0.00830635)
(0.0155298 -0.0180818 0.0127732)
(0.0175878 -0.0131475 0.0168294)
(0.0111705 -0.0112283 0.0206011)
(0.0135521 -0.0636863 -0.0151712)
(0.0238277 -0.0450836 -0.00219354)
(0.0218722 -0.0359794 0.00379166)
(0.0241591 -0.0242029 0.0122241)
(0.0130897 -0.0176375 0.0168182)
(0.0252692 -0.0759907 -0.0589923)
(0.0430432 -0.0456374 -0.0279142)
(0.0364205 -0.0364895 -0.012176)
(0.0359297 -0.0219291 0.00379836)
(0.018018 -0.0155803 0.0127767)
(0.0441102 -0.1073 -0.115679)
(0.0632496 -0.0632763 -0.0512205)
(0.0455805 -0.0430653 -0.0279352)
(0.0450582 -0.0238739 -0.00221028)
(0.0197332 -0.0153832 0.00829835)
(0.0703437 -0.0703142 -0.271978)
(0.107277 -0.0441542 -0.115502)
(0.0759017 -0.0253216 -0.0589441)
(0.0636178 -0.0136135 -0.0151554)
(0.0268526 -0.00668439 0.00296931)
(0.010576 -0.040461 0.0137862)
(0.0230201 -0.0285377 0.0204045)
(0.0223639 -0.0254563 0.0236125)
(0.0241747 -0.0172702 0.0267834)
(0.0147983 -0.014846 0.0287414)
(0.0220078 -0.108204 -0.00129746)
(0.0373494 -0.0716498 0.0153015)
(0.0331524 -0.0545464 0.0179334)
(0.0343383 -0.0343793 0.0252593)
(0.0172226 -0.0242038 0.0267627)
(0.0473332 -0.14963 -0.072084)
(0.0766242 -0.0836662 -0.016677)
(0.0596629 -0.0597094 -0.000125023)
(0.0545173 -0.0332066 0.0179335)
(0.0254207 -0.0223893 0.0236066)
(0.0891353 -0.277304 -0.184091)
(0.127095 -0.126974 -0.0296587)
(0.0836115 -0.07661 -0.0166941)
(0.0716298 -0.0373827 0.0152647)
(0.0285189 -0.0230382 0.0203725)
(0.20553 -0.205844 -0.501275)
(0.277304 -0.0894672 -0.18412)
(0.149427 -0.047434 -0.0718767)
(0.108142 -0.0220985 -0.00135095)
(0.0404408 -0.0106104 0.0138225)
(0.0132373 -0.042906 0.0395443)
(0.025153 -0.025409 0.0397879)
(0.021908 -0.0241494 0.041282)
(0.0227158 -0.0148777 0.0402921)
(0.0132742 -0.0133534 0.0393769)
(0.0302035 -0.149175 0.0335295)
(0.0429526 -0.0820869 0.0404631)
(0.0318179 -0.0596822 0.0396822)
(0.0329722 -0.0330366 0.0420804)
(0.0147985 -0.0227714 0.0402732)
(0.0815107 -0.22501 -0.00651989)
(0.114655 -0.0899362 0.0183902)
(0.0710041 -0.0710908 0.0347186)
(0.0596265 -0.0319117 0.0396966)
(0.0240789 -0.0219698 0.0412872)
(0.127322 -0.490773 -0.127243)
(0.22874 -0.228752 -0.0361956)
(0.0898443 -0.114472 0.0183723)
(0.0820468 -0.0430528 0.0404062)
(0.0253623 -0.0251517 0.0397617)
(0.383244 -0.857418 -0.972519)
(0.50544 -0.230771 -0.297953)
(0.225169 -0.0816353 -0.0062736)
(0.148939 -0.0303584 0.0334967)
(0.0429371 -0.0132869 0.0395937)
(0.0108221 -0.0473791 0.0812485)
(0.024754 -0.0282516 0.0700396)
(0.02287 -0.0273213 0.0627789)
(0.0222709 -0.0155569 0.0552244)
(0.0138908 -0.0139581 0.0495497)
(0.0291122 -0.149025 0.108647)
(0.0433033 -0.0924926 0.0818773)
(0.0347507 -0.0610488 0.0759967)
(0.0349039 -0.0349493 0.0617686)
(0.0154895 -0.0222948 0.0551975)
(0.0732327 -0.225202 0.212016)
(0.114473 -0.108202 0.137805)
(0.080516 -0.0805657 0.106518)
(0.0610248 -0.0348619 0.0759969)
(0.0272758 -0.0229027 0.0627604)
(0.20678 -0.8001 0.132464)
(0.243343 -0.371884 0.201091)
(0.108294 -0.114214 0.137836)
(0.0924663 -0.0433845 0.0818029)
(0.0282636 -0.0247279 0.0699966)
(0.477735 -2.99074 -1.64399)
(0.916601 -0.592869 0.224973)
(0.225694 -0.0736024 0.212272)
(0.148778 -0.029184 0.108605)
(0.0474418 -0.0108762 0.0812516)
(0.00206886 -0.0153724 0.105874)
(0.00675172 -0.0135885 0.0893537)
(0.00713324 -0.0108402 0.0774806)
(0.00951362 -0.00821726 0.0661036)
(0.00748879 -0.00759573 0.056148)
(0.00369686 -0.0139041 0.136231)
(0.0107202 -0.0144163 0.110765)
(0.0119219 -0.0161593 0.0978437)
(0.0122903 -0.0123815 0.0778517)
(0.00811027 -0.00958774 0.0660486)
(0.00654538 -0.00772583 0.290299)
(0.00609441 -0.0211673 0.190759)
(0.00906942 -0.00912283 0.142384)
(0.0160856 -0.0120905 0.0979939)
(0.0107504 -0.00721114 0.0774537)
(0.0197844 -0.113342 0.579886)
(-0.0461693 0.0461761 0.298078)
(0.0213462 -0.00565372 0.190096)
(0.0143068 -0.010864 0.110764)
(0.0135729 -0.00672826 0.0891922)
(-0.061453 0.143952 -6.21088)
(-0.164025 0.0780247 0.784957)
(0.00904538 -0.00663616 0.289591)
(0.0134098 -0.00386661 0.136763)
(0.0154505 -0.00213517 0.105758)
(-0.00576975 -0.0151208 0.0751362)
(-0.00370317 -0.00582098 0.0715093)
(-0.000401704 -0.00600778 0.0674079)
(0.000944889 -0.0032963 0.0618531)
(0.00351542 -0.0036388 0.055346)
(0.00315853 0.0310293 0.085301)
(0.00516002 0.00600378 0.0850737)
(0.0019626 0.00370744 0.0775246)
(0.0031525 -0.00310263 0.071361)
(0.00317303 -0.000995604 0.0618261)
(-0.0317791 -0.00163583 0.0711209)
(-0.0321684 0.0080399 0.0841257)
(-0.00918127 0.00861268 0.085299)