/*--------------------------------*- C++ -*----------------------------------*\
| =========                 |                                                 |
| \\      /  F ield         | OpenFOAM: The Open Source CFD Toolbox           |
|  \\    /   O peration     | Version:  5.x                                   |
|   \\  /    A nd           | Web:      www.OpenFOAM.org                      |
|    \\/     M anipulation  |                                                 |
\*---------------------------------------------------------------------------*/
FoamFile
{
    version     2.0;
    format      ascii;
    class       surfaceScalarField;
    location    "0.072";
    object      phi;
}
// * * * * * * * * * * * * * * * * * * * * * * * * * * * * * * * * * * * * * //

dimensions      [0 3 -1 0 0 0 0];

internalField   nonuniform List<scalar> 
4261
(
-2.80709e-07
4.19979e-08
-1.69898e-08
-2.37845e-07
3.78953e-08
-1.12662e-07
-1.92505e-07
3.57297e-08
-1.16261e-07
-1.15281e-07
3.25435e-08
-1.49467e-07
3.01803e-08
-1.42913e-07
-2.8263e-07
1.15581e-07
-2.27266e-08
-2.40148e-07
1.13686e-07
-1.18261e-07
-1.94863e-07
1.12209e-07
-1.21752e-07
-1.17593e-07
1.10158e-07
-1.54866e-07
1.082e-07
-1.48106e-07
-2.83965e-07
1.65186e-07
1.8197e-09
-2.41857e-07
1.64535e-07
-9.29456e-08
-1.9688e-07
1.63546e-07
-9.6304e-08
-1.19956e-07
1.62343e-07
-1.29097e-07
1.60812e-07
-1.22388e-07
-2.84726e-07
2.11725e-07
5.19703e-09
-2.42805e-07
2.12002e-07
-8.93774e-08
-1.9802e-07
2.11326e-07
-9.25532e-08
-1.21189e-07
2.10771e-07
-1.25249e-07
2.0955e-07
-1.18398e-07
-2.84394e-07
8.37368e-08
-2.43005e-07
-9.84312e-09
-1.98873e-07
-1.28966e-08
-1.22798e-07
-4.52523e-08
-3.85827e-08
-4.02553e-08
-1.23693e-08
-4.01894e-08
-5.77632e-08
-9.20063e-09
-1.24064e-07
-6.88019e-08
-8.65886e-09
-1.32956e-07
-5.80446e-08
-7.73012e-09
-1.86906e-07
-8.22178e-09
-1.92982e-07
-3.93945e-08
1.03269e-08
-3.7186e-08
-5.71841e-08
1.17798e-08
-1.21438e-07
-6.88123e-08
1.17235e-08
-1.30491e-07
-5.84907e-08
1.19239e-08
-1.84821e-07
1.12315e-08
-1.91114e-07
-3.83345e-08
1.21351e-08
8.17268e-09
-5.6563e-08
1.28907e-08
-7.58131e-08
-6.87428e-08
1.26013e-08
-8.49886e-08
-5.90658e-08
1.25582e-08
-1.39393e-07
1.18386e-08
-1.46023e-07
-3.83749e-08
1.08211e-08
1.47547e-08
-5.68151e-08
1.12293e-08
-6.92605e-08
-6.92021e-08
1.09432e-08
-7.84942e-08
-5.97409e-08
1.08858e-08
-1.33023e-07
1.0338e-08
-1.39769e-07
-3.80733e-08
8.92392e-08
-5.68069e-08
6.06812e-09
-6.94728e-08
-3.17187e-09
-6.04039e-08
-5.7398e-08
-6.43937e-08
-2.51438e-07
4.62375e-08
-7.49273e-08
-2.24767e-07
4.27451e-08
-2.25255e-07
-1.9154e-07
4.08952e-08
-2.41195e-07
-1.19226e-07
3.74343e-08
-3.3543e-07
3.49326e-08
-3.44041e-07
-2.53275e-07
1.18699e-07
-7.12069e-08
-2.26947e-07
1.16932e-07
-2.21938e-07
-1.93929e-07
1.15515e-07
-2.38116e-07
-1.21715e-07
1.13209e-07
-3.32792e-07
1.11082e-07
-3.41693e-07
-2.54455e-07
1.57938e-07
7.93038e-09
-2.28685e-07
1.57312e-07
-1.41949e-07
-1.96183e-07
1.56271e-07
-1.58232e-07
-1.24533e-07
1.54855e-07
-2.52673e-07
1.53138e-07
-2.62024e-07
-2.55263e-07
1.92245e-07
1.97653e-08
-2.29731e-07
1.92538e-07
-1.30002e-07
-1.97435e-07
1.91823e-07
-1.46329e-07
-1.25949e-07
1.912e-07
-2.4084e-07
1.89885e-07
-2.50338e-07
-2.5492e-07
1.52013e-07
-2.30004e-07
4.09206e-09
-1.98418e-07
-1.21257e-08
-1.27848e-07
-1.0578e-07
-1.15601e-07
-2.11807e-07
2.75116e-08
-1.15127e-07
-1.95776e-07
2.90527e-08
-3.11811e-07
-1.70943e-07
2.86927e-08
-3.36311e-07
-1.11148e-07
2.86106e-08
-4.65409e-07
2.73287e-08
-4.81657e-07
-2.1185e-07
9.43088e-08
-1.07322e-07
-1.9616e-07
9.58675e-08
-3.04428e-07
-1.71763e-07
9.54075e-08
-3.29213e-07
-1.12398e-07
9.54443e-08
-4.58974e-07
9.41383e-08
-4.75702e-07
-2.10444e-07
1.29041e-07
3.85513e-09
-1.95435e-07
1.30829e-07
-1.91904e-07
-1.71877e-07
1.30413e-07
-2.16781e-07
-1.13568e-07
1.30706e-07
-3.46228e-07
1.29531e-07
-3.63607e-07
-2.10526e-07
1.57926e-07
2.16874e-08
-1.95767e-07
1.599e-07
-1.73816e-07
-1.7249e-07
1.59599e-07
-1.98777e-07
-1.14491e-07
1.6019e-07
-3.28309e-07
1.59248e-07
-3.45958e-07
-2.08656e-07
1.9854e-07
-1.94577e-07
5.98244e-09
-1.722e-07
-1.87155e-08
-1.15431e-07
-1.46859e-07
-1.64882e-07
-3.6415e-07
8.0642e-08
-1.76388e-07
-3.27177e-07
7.77583e-08
-4.64418e-07
-2.77952e-07
7.58169e-08
-5.017e-07
-1.69263e-07
7.20284e-08
-6.91936e-07
6.89083e-08
-7.15568e-07
-3.66019e-07
1.90123e-07
-1.64294e-07
-3.29534e-07
1.89572e-07
-4.5271e-07
-2.80723e-07
1.88141e-07
-4.90332e-07
-1.72376e-07
1.8602e-07
-6.81294e-07
1.83364e-07
-7.05548e-07
-3.66067e-07
2.46658e-07
2.6409e-10
-3.30544e-07
2.47724e-07
-2.85562e-07
-2.82823e-07
2.46738e-07
-3.23083e-07
-1.75837e-07
2.45895e-07
-5.13072e-07
2.43738e-07
-5.38043e-07
-3.66706e-07
2.93707e-07
2.79276e-08
-3.31532e-07
2.95954e-07
-2.57202e-07
-2.84184e-07
2.9536e-07
-2.94732e-07
-1.77598e-07
2.95604e-07
-4.84588e-07
2.9397e-07
-5.09854e-07
-3.64433e-07
2.86479e-07
-3.30286e-07
6.45178e-09
-2.84344e-07
-3.03777e-08
-1.79727e-07
-2.17571e-07
-2.43144e-07
-4.59764e-07
1.01376e-07
-2.58737e-07
-4.11887e-07
1.01728e-07
-6.6212e-07
-3.46997e-07
1.00391e-07
-7.16871e-07
-2.08899e-07
9.87213e-08
-9.81987e-07
9.59093e-08
-1.01705e-06
-4.60727e-07
2.42498e-07
-2.40103e-07
-4.13425e-07
2.45252e-07
-6.43516e-07
-3.49137e-07
2.44378e-07
-6.9859e-07
-2.11664e-07
2.44368e-07
-9.64395e-07
2.41934e-07
-1.00021e-06
-4.58006e-07
3.16635e-07
-8.641e-09
-4.11944e-07
3.21104e-07
-4.07457e-07
-3.49284e-07
3.20649e-07
-4.61995e-07
-2.14018e-07
3.21921e-07
-7.25872e-07
3.19941e-07
-7.62409e-07
-4.57933e-07
3.77987e-07
3.20787e-08
-4.12312e-07
3.8349e-07
-3.65189e-07
-3.50186e-07
3.83402e-07
-4.19592e-07
-2.1558e-07
3.85654e-07
-6.82911e-07
3.84181e-07
-7.19764e-07
-4.52505e-07
3.95839e-07
-4.08235e-07
7.16243e-09
-3.48215e-07
-4.57125e-08
-2.16648e-07
-3.04423e-07
-3.41339e-07
-6.60505e-07
1.70089e-07
-3.76381e-07
-5.91311e-07
1.68397e-07
-9.48444e-07
-4.95804e-07
1.66168e-07
-1.03078e-06
-2.91918e-07
1.61995e-07
-1.40808e-06
1.57588e-07
-1.45978e-06
-6.62406e-07
3.71687e-07
-3.47148e-07
-5.94004e-07
3.75038e-07
-9.18538e-07
-4.99313e-07
3.73952e-07
-1.00105e-06
-2.96313e-07
3.73337e-07
-1.37872e-06
3.69844e-07
-1.43122e-06
-6.58882e-07
4.74991e-07
-1.7513e-08
-5.92241e-07
4.81655e-07
-5.80692e-07
-4.99957e-07
4.81402e-07
-6.61709e-07
-3.00403e-07
4.83245e-07
-1.03531e-06
4.80587e-07
-1.08821e-06
-6.58518e-07
5.57513e-07
4.42657e-08
-5.92476e-07
5.66114e-07
-5.15668e-07
-5.01004e-07
5.66476e-07
-5.96117e-07
-3.02561e-07
5.70112e-07
-9.682e-07
5.6826e-07
-1.02125e-06
-6.49915e-07
5.583e-07
-5.85767e-07
1.2796e-08
-4.97549e-07
-6.44246e-08
-3.04026e-07
-4.28286e-07
-4.80673e-07
-9.18199e-07
2.4473e-07
-5.42937e-07
-8.19172e-07
2.461e-07
-1.35298e-06
-6.81131e-07
2.44075e-07
-1.47616e-06
-3.94815e-07
2.41344e-07
-2.00718e-06
2.3645e-07
-2.08363e-06
-9.19449e-07
5.26836e-07
-4.97961e-07
-8.21448e-07
5.35384e-07
-1.3058e-06
-6.84616e-07
5.34968e-07
-1.42875e-06
-3.99641e-07
5.37083e-07
-1.95942e-06
5.33346e-07
-2.03658e-06
-9.11471e-07
6.7246e-07
-3.26946e-08
-8.15765e-07
6.85881e-07
-8.26868e-07
-6.8266e-07
6.86657e-07
-9.46478e-07
-4.02874e-07
6.92275e-07
-1.47027e-06
6.89654e-07
-1.54721e-06
-9.09761e-07
7.87877e-07
5.95568e-08
-8.1488e-07
8.03605e-07
-7.28246e-07
-6.83039e-07
8.05157e-07
-8.46435e-07
-4.04986e-07
8.12882e-07
-1.36684e-06
8.11242e-07
-1.44356e-06
-8.94105e-07
7.85906e-07
-8.01756e-07
2.17215e-08
-6.75041e-07
-9.0155e-08
-4.04535e-07
-5.96964e-07
-6.71621e-07
-1.28558e-06
3.6488e-07
-7.7339e-07
-1.15116e-06
3.68255e-07
-1.92001e-06
-9.55505e-07
3.66538e-07
-2.10833e-06
-5.47961e-07
3.63684e-07
-2.86157e-06
3.57565e-07
-2.97752e-06
-1.28604e-06
7.57264e-07
-7.02939e-07
-1.15299e-06
7.73485e-07
-1.84405e-06
-9.59139e-07
7.75061e-07
-2.0311e-06
-5.54056e-07
7.8122e-07
-2.78202e-06
7.77536e-07
-2.89844e-06
-1.27128e-06
9.57775e-07
-4.8181e-08
-1.14141e-06
9.81806e-07
-1.16503e-06
-9.53056e-07
9.85442e-07
-1.34518e-06
-5.57023e-07
9.97023e-07
-2.08208e-06
9.95128e-07
-2.1963e-06
-1.26647e-06
1.1101e-06
9.18753e-08
-1.13773e-06
1.13749e-06
-1.01263e-06
-9.51447e-07
1.14227e-06
-1.18952e-06
-5.58713e-07
1.15698e-06
-1.9195e-06
1.15646e-06
-2.03243e-06
-1.2391e-06
1.11e-06
-1.11377e-06
4.5284e-08
-9.35368e-07
-1.19278e-07
-5.55497e-07
-8.25171e-07
-9.32698e-07
-1.82808e-06
5.37208e-07
-1.10413e-06
-1.63781e-06
5.46381e-07
-2.73304e-06
-1.35022e-06
5.45682e-07
-3.02494e-06
-7.66545e-07
5.44905e-07
-4.08928e-06
5.38232e-07
-4.26804e-06
-1.82667e-06
1.09744e-06
-9.93881e-07
-1.63811e-06
1.12506e-06
-2.61127e-06
-1.35332e-06
1.12929e-06
-2.89947e-06
-7.73043e-07
1.14064e-06
-3.95801e-06
1.1371e-06
-4.13513e-06
-1.80252e-06
1.38394e-06
-6.94068e-08
-1.61777e-06
1.42429e-06
-1.64897e-06
-1.34227e-06
1.43181e-06
-1.92317e-06
-7.74448e-07
1.4522e-06
-2.96143e-06
1.45137e-06
-3.13314e-06
-1.79338e-06
1.59677e-06
1.43663e-07
-1.61006e-06
1.64083e-06
-1.41246e-06
-1.33792e-06
1.64973e-06
-1.67955e-06
-7.75178e-07
1.67371e-06
-2.70371e-06
1.67455e-06
-2.87177e-06
-1.74943e-06
1.58064e-06
-1.57007e-06
8.70766e-08
-1.31094e-06
-1.56632e-07
-7.66971e-07
-1.14332e-06
-1.30014e-06
-2.56678e-06
7.72554e-07
-1.5519e-06
-2.31367e-06
7.95708e-07
-3.86736e-06
-1.90819e-06
7.99006e-07
-4.3243e-06
-1.07712e-06
8.06223e-07
-5.84416e-06
7.99646e-07
-6.12444e-06
-2.55882e-06
1.54597e-06
-1.37854e-06
-2.30808e-06
1.60367e-06
-3.66994e-06
-1.90734e-06
1.61695e-06
-4.11812e-06
-1.08367e-06
1.64884e-06
-5.62428e-06
1.64968e-06
-5.90184e-06
-2.50944e-06
1.94185e-06
-8.68627e-08
-2.26379e-06
2.01877e-06
-2.30969e-06
-1.87555e-06
2.03804e-06
-2.73247e-06
-1.07677e-06
2.08212e-06
-4.19344e-06
2.08769e-06
-4.45753e-06
-2.48789e-06
2.22051e-06
2.40078e-07
-2.24452e-06
2.30252e-06
-1.93954e-06
-1.86224e-06
2.32411e-06
-2.34786e-06
-1.07345e-06
2.37309e-06
-3.78344e-06
2.38104e-06
-4.03873e-06
-2.40588e-06
2.24352e-06
-2.16775e-06
1.71006e-07
-1.80501e-06
-1.93926e-07
-1.0509e-06
-1.56171e-06
-1.79296e-06
-3.68507e-06
1.15013e-06
-2.19696e-06
-3.34172e-06
1.18805e-06
-5.49876e-06
-2.7382e-06
1.19865e-06
-6.2385e-06
-1.54443e-06
1.21048e-06
-8.38911e-06
1.20862e-06
-8.85142e-06
-3.6683e-06
2.26766e-06
-1.9194e-06
-3.32732e-06
2.35149e-06
-5.1743e-06
-2.73014e-06
2.37802e-06
-5.89464e-06
-1.5457e-06
2.41771e-06
-8.01594e-06
2.42451e-06
-8.45915e-06
-3.59931e-06
2.83672e-06
-9.43611e-08
-3.26305e-06
2.95417e-06
-3.24858e-06
-2.69123e-06
2.99041e-06
-3.91664e-06
-1.53517e-06
3.05484e-06
-5.98659e-06
3.06796e-06
-6.40174e-06
-3.56068e-06
3.21863e-06
4.13576e-07
-3.22637e-06
3.33815e-06
-2.65779e-06
-2.66441e-06
3.37634e-06
-3.2957e-06
-1.52464e-06
3.44499e-06
-5.31332e-06
3.46056e-06
-5.70919e-06
-3.44139e-06
3.23869e-06
-3.1096e-06
3.28945e-07
-2.58191e-06
-2.25807e-07
-1.48849e-06
-2.14412e-06
-2.49329e-06
-5.2164e-06
1.62707e-06
-3.04622e-06
-4.77867e-06
1.71922e-06
-7.76915e-06
-3.92861e-06
1.74535e-06
-8.96298e-06
-2.20304e-06
1.79436e-06
-1.20775e-05
1.79203e-06
-1.28111e-05
-5.17346e-06
3.15926e-06
-2.60459e-06
-4.73888e-06
3.34662e-06
-7.23624e-06
-3.90707e-06
3.4026e-06
-8.38365e-06
-2.20558e-06
3.52526e-06
-1.14483e-05
3.54726e-06
-1.21676e-05
-5.02062e-06
3.94667e-06
-7.03127e-08
-4.58998e-06
4.18234e-06
-4.51489e-06
-3.78436e-06
4.25836e-06
-5.57798e-06
-2.15718e-06
4.40643e-06
-8.49489e-06
4.44683e-06
-9.16478e-06
-4.94092e-06
4.43217e-06
7.24059e-07
-4.51426e-06
4.67074e-06
-3.5728e-06
-3.72836e-06
4.75108e-06
-4.57427e-06
-2.13084e-06
4.90237e-06
-7.40673e-06
4.94596e-06
-8.02975e-06
-4.70212e-06
4.63773e-06
-4.27867e-06
6.21254e-07
-3.5421e-06
-2.30969e-07
-2.04009e-06
-2.87947e-06
-3.41035e-06
-7.60462e-06
2.48011e-06
-4.2494e-06
-7.07214e-06
2.61759e-06
-1.10509e-05
-5.77932e-06
2.68576e-06
-1.30938e-05
-3.29734e-06
2.74622e-06
-1.75091e-05
2.79468e-06
-1.88568e-05
-7.51822e-06
4.73793e-06
-3.52157e-06
-6.987e-06
4.99237e-06
-1.01422e-05
-5.70345e-06
5.12179e-06
-1.21032e-05
-3.24671e-06
5.23696e-06
-1.63958e-05
5.30953e-06
-1.76161e-05
-7.32255e-06
5.87817e-06
7.13637e-08
-6.79167e-06
6.22392e-06
-6.27728e-06
-5.59089e-06
6.38536e-06
-8.04229e-06
-3.18878e-06
6.58073e-06
-1.22407e-05
6.66252e-06
-1.33397e-05
-7.16456e-06
6.50966e-06
1.33636e-06
-6.62954e-06
6.8342e-06
-4.71805e-06
-5.46112e-06
6.99185e-06
-6.34914e-06
-3.12108e-06
7.18626e-06
-1.03523e-05
7.2704e-06
-1.13704e-05
-6.84034e-06
6.84711e-06
-6.28518e-06
1.20852e-06
-5.20986e-06
-1.25599e-07
-2.98753e-06
-3.86185e-06
-4.69691e-06
-1.09405e-05
3.5033e-06
-5.69955e-06
-1.04712e-05
3.84449e-06
-1.55137e-05
-8.76056e-06
4.02453e-06
-1.90048e-05
-5.09337e-06
4.32731e-06
-2.57487e-05
4.49492e-06
-2.83886e-05
-1.07465e-05
6.58942e-06
-4.53004e-06
-1.02472e-05
7.2047e-06
-1.40016e-05
-8.57002e-06
7.47952e-06
-1.72353e-05
-4.9448e-06
8.00299e-06
-2.36966e-05
8.20843e-06
-2.58891e-05
-1.02752e-05
8.1567e-06
4.47475e-07
-9.71689e-06
8.89129e-06
-8.52211e-06
-8.04872e-06
9.22679e-06
-1.14577e-05
-4.64345e-06
9.75604e-06
-1.7399e-05
9.98817e-06
-1.93085e-05
-9.96957e-06
8.88625e-06
2.45511e-06
-9.38399e-06
9.57324e-06
-5.98555e-06
-7.77467e-06
9.88273e-06
-8.61435e-06
-4.46164e-06
1.03494e-05
-1.42586e-05
1.0549e-05
-1.59138e-05
-9.28125e-06
1.00368e-05
-8.64883e-06
2.3011e-06
-7.16187e-06
2.08736e-07
-4.12207e-06
-4.94585e-06
-6.25055e-06
-1.66254e-05
5.58273e-06
-7.42456e-06
-1.68643e-05
6.27801e-06
-2.172e-05
-1.51994e-05
7.07946e-06
-2.79575e-05
-9.88566e-06
7.8687e-06
-3.92599e-05
8.98198e-06
-4.71479e-05
-1.61828e-05
1.02591e-05
-5.44539e-06
-1.61765e-05
1.12761e-05
-1.90059e-05
-1.41318e-05
1.23923e-05
-2.45927e-05
-8.71797e-06
1.34506e-05
-3.46923e-05
1.44517e-05
-3.95481e-05
-1.54975e-05
1.25467e-05
1.57863e-06
-1.52601e-05
1.3727e-05
-1.12104e-05
-1.30203e-05
1.46588e-05
-1.5964e-05
-7.75903e-06
1.55924e-05
-2.48021e-05
1.62829e-05
-2.83323e-05
-1.47813e-05
1.33155e-05
4.82016e-06
-1.4338e-05
1.42825e-05
-6.98429e-06
-1.19725e-05
1.5003e-05
-1.1324e-05
-6.99941e-06
1.56846e-05
-1.93239e-05
1.6136e-05
-2.21672e-05
-1.38146e-05
1.53853e-05
-1.31624e-05
4.62554e-06
-1.09786e-05
1.28978e-06
-6.34153e-06
-5.97357e-06
-8.093e-06
-2.50645e-05
8.42128e-06
-8.70248e-06
-2.83689e-05
1.00734e-05
-2.86818e-05
-2.5839e-05
1.16182e-05
-4.2354e-05
-1.45318e-05
1.33979e-05
-6.43517e-05
1.34629e-05
-7.50147e-05
-2.37216e-05
1.47959e-05
-5.48849e-06
-2.60204e-05
1.75494e-05
-2.4183e-05
-2.45134e-05
1.92105e-05
-3.36921e-05
-1.44676e-05
2.35228e-05
-5.4863e-05
2.48042e-05
-6.46975e-05
-2.19971e-05
1.74986e-05
4.37969e-06
-2.25456e-05
2.01504e-05
-1.32629e-05
-2.01269e-05
2.19167e-05
-2.10889e-05
-1.27262e-05
2.52646e-05
-3.39444e-05
2.76405e-05
-4.3114e-05
-2.06389e-05
1.79314e-05
9.21966e-06
-2.08708e-05
2.00699e-05
-6.67177e-06
-1.83651e-05
2.14792e-05
-1.33923e-05
-1.0996e-05
2.31488e-05
-2.45771e-05
2.44986e-05
-2.92732e-05
-1.84991e-05
2.30919e-05
-1.82105e-05
8.9902e-06
-1.5584e-05
4.02741e-06
-9.28103e-06
-6.11952e-06
-9.48476e-06
-4.0792e-05
1.39373e-05
-7.98791e-06
-4.28776e-05
1.64813e-05
-4.32841e-05
-3.42647e-05
1.79449e-05
-6.91711e-05
-2.08893e-05
1.86564e-05
-9.67941e-05
1.98273e-05
-0.000115572
-3.67279e-05
2.31742e-05
-3.08405e-06
-4.11417e-05
2.77549e-05
-3.10428e-05
-3.29646e-05
3.16106e-05
-5.55348e-05
-1.97584e-05
3.18203e-05
-8.12331e-05
3.31725e-05
-9.70906e-05
-3.32771e-05
2.64001e-05
1.02614e-05
-3.60687e-05
3.10549e-05
-1.37712e-05
-3.28055e-05
3.52401e-05
-2.79816e-05
-1.90599e-05
4.00832e-05
-5.59529e-05
4.17791e-05
-6.98678e-05
-3.03046e-05
2.5967e-05
1.72342e-05
-3.19516e-05
2.95563e-05
-3.52617e-06
-2.88765e-05
3.26044e-05
-1.38316e-05
-1.76454e-05
3.60364e-05
-3.17612e-05
4.01057e-05
-4.42563e-05
-2.67194e-05
3.36808e-05
-2.73516e-05
1.69829e-05
-2.42575e-05
9.88224e-06
-1.51065e-05
-3.77957e-06
-8.87458e-06
-5.10387e-05
1.60086e-05
-8.80982e-06
-5.19123e-05
1.98685e-05
-6.24575e-05
-4.29735e-05
2.15059e-05
-9.98604e-05
-2.64687e-05
2.3567e-05
-0.000137295
2.53004e-05
-0.0001672
-4.80774e-05
2.77196e-05
-9.79821e-07
-4.89954e-05
3.53277e-05
-4.5584e-05
-4.02705e-05
3.64796e-05
-7.92334e-05
-2.47156e-05
3.91689e-05
-0.00011239
4.1863e-05
-0.000137599
-4.38748e-05
3.26833e-05
1.67837e-05
-4.62583e-05
3.96852e-05
-1.57452e-05
-3.73929e-05
4.55383e-05
-4.59057e-05
-2.25297e-05
4.80538e-05
-7.97009e-05
5.09373e-05
-0.000100526
-3.89015e-05
3.23623e-05
2.63221e-05
-4.05896e-05
3.81539e-05
-3.0684e-07
-3.60929e-05
4.30929e-05
-1.58829e-05
-2.07384e-05
4.72758e-05
-4.63377e-05
5.03503e-05
-6.34226e-05
-3.31094e-05
4.50822e-05
-3.37224e-05
2.61738e-05
-2.89014e-05
1.63063e-05
-1.71881e-05
-1.91423e-06
-9.85985e-06
-7.45281e-05
2.43442e-05
-1.11559e-05
-8.10715e-05
2.9239e-05
-8.53751e-05
-7.00312e-05
3.50767e-05
-0.00014625
-4.70313e-05
3.93719e-05
-0.000200198
4.55848e-05
-0.000259538
-6.87283e-05
4.01321e-05
2.71396e-06
-7.35641e-05
4.78454e-05
-5.93546e-05
-6.23274e-05
5.54302e-05
-0.000110824
-4.08247e-05
6.08738e-05
-0.000155395
6.85508e-05
-0.000200432
-6.34732e-05
4.90273e-05
2.41351e-05
-6.77029e-05
5.79996e-05
-2.16697e-05
-5.68929e-05
6.64028e-05
-6.76882e-05
-3.65736e-05
7.22189e-05
-0.000111365
7.96419e-05
-0.000146885
-5.50101e-05
4.98977e-05
3.79274e-05
-5.92911e-05
5.38438e-05
8.12992e-06
-4.93074e-05
6.23399e-05
-2.18037e-05
-3.07893e-05
6.74573e-05
-6.00943e-05
7.30316e-05
-8.62148e-05
-5.10654e-05
6.57931e-05
-5.03489e-05
3.75962e-05
-4.17968e-05
2.37033e-05
-2.62283e-05
1.61834e-06
-1.28079e-05
-0.000101124
3.36836e-05
-1.58839e-05
-0.000114892
4.11785e-05
-0.000113013
-0.000102756
5.00279e-05
-0.000208721
-6.89635e-05
5.83499e-05
-0.000292927
6.72716e-05
-0.000395555
-9.2268e-05
5.42891e-05
7.67017e-06
-0.000102786
6.52231e-05
-7.28814e-05
-9.01645e-05
7.83705e-05
-0.000151787
-6.00905e-05
8.84991e-05
-0.000215618
0.000101286
-0.000293398
-8.4705e-05
6.5524e-05
3.46117e-05
-9.21626e-05
7.71601e-05
-2.61491e-05
-7.98943e-05
9.08814e-05
-9.24674e-05
-5.16896e-05
0.000101378
-0.000152449
0.000113671
-0.000209528
-7.41753e-05
6.51071e-05
5.62068e-05
-7.85268e-05
7.3018e-05
1.66236e-05
-6.6843e-05
8.36794e-05
-2.62854e-05
-4.28957e-05
9.10978e-05
-7.3761e-05
0.000100241
-0.000114126
-6.62084e-05
9.42163e-05
-6.68084e-05
5.57217e-05
-5.58058e-05
3.41086e-05
-3.52609e-05
6.2771e-06
-1.77114e-05
-0.000163809
5.52986e-05
-1.48723e-05
-0.000204986
6.99577e-05
-0.000142063
-0.000201691
9.48995e-05
-0.000307227
-0.000154941
0.000113828
-0.000454308
0.000152735
-0.00070268
-0.0001416
8.95525e-05
1.91507e-05
-0.000172303
0.000105077
-7.72984e-05
-0.000161372
0.00013747
-0.000205288
-0.000116166
0.000159185
-0.000306182
0.000199532
-0.000454945
-0.000131503
0.000103665
6.01985e-05
-0.000152549
0.000120874
-2.08995e-05
-0.000139669
0.000150616
-0.000118493
-9.72141e-05
0.000170347
-0.000206066
0.000203008
-0.00030816
-0.000110911
9.68403e-05
9.49185e-05
-0.000122761
0.000109232
4.01154e-05
-0.000107238
0.000129741
-2.09327e-05
-7.22186e-05
0.000139808
-7.82416e-05
0.000161917
-0.000143185
-9.85439e-05
0.000144009
-0.000105611
9.43212e-05
-9.17564e-05
5.95677e-05
-5.76712e-05
1.75468e-05
-1.69493e-05
-0.000235913
7.35913e-05
-1.31452e-06
-0.000307633
0.000101513
-0.000172078
-0.000312632
0.000142872
-0.00044554
-0.000245626
0.000184685
-0.000706814
0.000243273
-0.00119144
-0.000197629
0.000117242
4.55336e-05
-0.000249112
0.000146884
-7.11862e-05
-0.000243853
0.000199412
-0.000267087
-0.000187137
0.000241372
-0.000419585
0.000310745
-0.00070783
-0.000177544
0.000133718
0.000101179
-0.000213742
0.000163874
-1.69223e-06
-0.000201459
0.000212074
-0.000143438
-0.00014517
0.000247126
-0.000268109
0.000306165
-0.000446695
-0.000143409
0.000122121
0.000150093
-0.000165741
0.000141816
8.45056e-05
-0.000149233
0.000176237
-1.6049e-06
-0.000103939
0.000195854
-7.22636e-05
0.000235052
-0.000173714
-0.000123558
0.000207884
-0.000135428
0.000149386
-0.000119259
0.000100488
-7.56297e-05
4.34452e-05
-3.35034e-06
-0.000409387
0.0001298
5.47728e-05
-0.000596474
0.000177264
-0.000162681
-0.000699809
0.000296099
-0.000638871
-0.000644126
0.000401011
-0.0011651
0.000640376
-0.00247478
-0.00032031
0.000185354
0.000127349
-0.0004386
0.000239533
-1.51657e-05
-0.00046817
0.000368171
-0.000309588
-0.000405534
0.000464514
-0.000545725
0.000696759
-0.00116667
-0.000282684
0.00020142
0.000195233
-0.000366603
0.000256717
6.50434e-05
-0.000371754
0.00036362
-0.000133736
-0.000300067
0.000435736
-0.000311019
0.000593972
-0.000640021
-0.000209493
0.000173638
0.000252919
-0.000259473
0.000206935
0.000184268
-0.000242783
0.000279955
6.53698e-05
-0.000180872
0.000317512
-1.59496e-05
0.000406232
-0.00016351
-0.00017631
0.000312503
-0.000204355
0.000252078
-0.000188843
0.000194706
-0.000133222
0.000124784
5.25715e-05
-0.000573412
0.000164718
0.000164438
-0.000893003
0.000257305
-0.000100379
-0.0011133
0.000443442
-0.000862458
-0.00107494
0.000678491
-0.0018824
0.0010731
-0.00462403
-0.000416879
0.00022914
0.000255844
-0.000613528
0.000316659
0.000122129
-0.000712122
0.000523359
-0.000290912
-0.00067994
0.000709119
-0.000608535
0.00111133
-0.00188704
-0.000356989
0.000242026
0.000326503
-0.000492246
0.000319607
0.000197352
-0.00052542
0.000490405
-6.76076e-05
-0.000445588
0.000611356
-0.000293089
0.000891295
-0.000863522
-0.000250488
0.000206289
0.000382031
-0.000321786
0.000248216
0.000326957
-0.000319499
0.000355457
0.00019803
-0.000259699
0.000414218
0.000121389
0.000572124
-0.000101379
-0.000208218
0.000436297
-0.000243926
0.000380762
-0.000230958
0.000325646
-0.000165842
0.000252254
0.000162643
-0.000955987
0.000243192
0.000437514
-0.00168666
0.000414821
0.000214795
-0.002775
0.000845203
-0.000620353
-0.00319006
0.00148388
-0.000588828
-0.000939806
-0.0006236
-0.000802646
0.00318188
-0.0026282
-0.00369281
-0.0020485
-0.00262521
-0.000638332
0.000321727
0.000506587
-0.00103052
0.000479605
0.000449532
-0.00138969
0.000930033
-1.65741e-05
-0.00149555
0.00138246
-0.000401248
0.00277334
-0.000809334
-0.000937974
-0.000625307
-0.000587537
-0.000520305
0.000325153
0.000557036
-0.000768954
0.000450558
0.000475049
-0.000935467
0.00076472
0.000264218
-0.000852839
0.00102695
-2.0204e-05
0.00168576
-0.000619337
-0.000333585
0.000263229
0.000582311
-0.000454259
0.000329811
0.000568379
-0.000483838
0.00051592
0.000476409
-0.000419621
0.000633953
0.000450168
0.000952235
0.000218427
-0.000267325
0.000609878
-0.000329648
0.000581053
-0.000327155
0.000556671
-0.000248989
0.000503278
0.000436819
-0.00126564
0.000287464
0.000904711
-0.00251858
0.000531901
0.000936045
-0.00129034
0.00134501
0.00104262
-0.00130989
-0.00154444
-0.00138286
-0.00179036
0.000485398
-0.000575104
-0.00199602
0.00129478
0.00220074
-0.00112869
-0.000911016
-0.000902192
-0.00118901
-0.000715057
0.000350498
0.000852926
-0.00119164
0.000537464
0.000920547
-0.00207127
0.00124128
0.000966795
-0.000679095
0.00206673
0.000358527
0.000316131
0.000225233
0.000363119
-0.000656496
-0.000684902
-0.000614053
-0.000950977
-0.000654342
-0.000952724
-0.000609668
-0.00153829
-0.000621629
0.00156807
-0.000896576
-0.000579058
0.00033781
0.000842368
-0.000900449
0.000467092
0.000866812
-0.00124161
0.000897999
0.000948665
-0.00134402
0.00118897
0.000959961
0.00251578
0.00103377
-0.00130391
-0.00128626
-0.00138327
-0.00153955
-0.000336606
0.000272487
0.000793546
-0.000469237
0.000333647
0.000834455
-0.000540015
0.000577191
0.000867996
-0.000532341
0.000710392
0.000921074
0.00126308
0.000936255
-0.000274944
0.000778239
-0.000340469
0.000792424
-0.000352788
0.000841789
-0.000289293
0.000849593
0.000902315
-0.00142877
0.000293693
0.00143725
-0.00282906
0.000580372
0.00175544
-0.00201039
0.00141726
0.00315187
-0.00160009
-0.00152129
-0.00122317
0.000759144
0.000834395
0.000271378
-0.000934245
-0.000986978
-0.000984002
-0.000968839
0.00171277
0.00124761
-0.00150838
0.000568496
-0.00201929
-0.000837708
0.000366085
0.00127042
-0.00141667
0.000589491
0.00149039
-0.000862594
0.0014154
0.0022791
-0.000681561
-0.000643792
-0.000539164
-0.000866283
-0.00110541
0.000813134
0.000654491
-0.000858734
0.00247721
-0.00117272
-0.000835175
-0.00114571
0.00142017
0.000218473
-0.000427537
-0.000391662
-0.000285556
-0.00034788
0.00033551
0.000333492
0.000354461
0.000325655
-0.000636594
0.000345092
0.00115541
-0.0010213
0.00050839
0.00133262
-0.00142829
0.00101346
0.0017576
-0.00143675
0.00141114
0.00227987
-0.000680129
-0.00085982
-0.000542262
-0.000640379
0.00281869
0.0031499
-0.00159213
-0.0020058
-0.00122248
-0.0015212
-0.000360429
0.000273362
0.00102703
-0.000511938
0.00035596
0.00113839
-0.000593069
0.000630165
0.00133242
-0.000583775
0.000832766
0.00149016
0.00142362
0.00175641
-0.000278913
0.000946351
-0.000351531
0.00102697
-0.000373802
0.00115623
-0.000300475
0.00126983
0.00144302
-0.000643932
0.000151532
0.00158619
-0.00105675
0.000298606
0.00186988
-0.00102966
0.000591099
0.00325653
-0.000712021
-6.91189e-05
5.9113e-05
0.000287759
0.00127205
-0.00146788
-0.000175954
-0.000423807
-0.000406171
-0.000114866
0.000137291
0.00462246
-3.9878e-05
-9.18842e-05
-0.00462952
-0.000366087
0.000202119
0.00139
-0.000481425
0.00029087
0.00161346
-0.000526011
0.000572509
0.00234227
-0.000110532
0.000518422
0.00289754
-0.000353148
-0.0001286
-6.20775e-05
0.000478584
-0.000307441
0.000484927
-6.77949e-05
-0.00087433
-0.00139553
-0.000729895
-0.000876137
-0.000200776
0.000581506
0.00124092
3.7326e-05
3.09598e-05
0.000235924
-0.000492872
-2.45934e-05
5.89751e-05
-5.91913e-05
-0.000101534
-0.000436647
-0.000493979
-0.000486549
-0.000337959
0.000204425
0.00127342
-0.000457513
0.000258386
0.00148466
-0.000575155
0.000456096
0.00199165
-0.000596138
0.000474782
0.00234449
0.00105675
0.00326044
-0.000721098
-0.00103818
4.32798e-05
-7.74196e-05
-0.000202058
0.000186483
0.00111769
-0.000259432
0.000199291
0.00125486
-0.000290858
0.000336259
0.00148368
-0.0002979
0.000360662
0.00161132
0.000644805
0.00186562
-0.000188839
0.00101132
-0.000207172
0.00111878
-0.000204182
0.00127471
-0.000154712
0.00139378
0.00159006
-0.000159373
-2.16456e-05
0.0014274
-0.000297976
0.000185402
0.00182399
0.000967592
-0.00017786
0.00216982
0.0014651
-0.000768142
-0.000686195
0.00169461
0.000722366
0.00119961
-0.000400854
0.00182226
-0.000299312
-0.000201457
-0.00193848
-0.000463286
-0.00117483
0.00069469
-0.00157791
-0.0125677
0.00351147
0.00435042
0.00313104
0.00391615
-0.000141934
4.19768e-05
0.00132758
-7.73701e-05
0.000152815
0.00158149
0.000185799
-5.76463e-05
0.00195889
0.000738449
-0.000194726
0.00177148
-0.000963173
-0.00119826
0.00165337
0.00147422
0.00121213
0.000731973
-0.000188047
0.00182187
-0.000298726
-0.000401373
-0.00193811
-0.00045755
-0.00067862
-0.000143554
7.05913e-05
0.00123035
-7.89936e-05
0.000117583
0.00145533
5.19632e-05
7.40826e-05
0.00172897
0.000167956
7.52756e-05
0.0019585
0.000297714
0.00217353
-0.000113754
9.66316e-05
0.00111822
-0.000122913
0.000109152
0.00127245
-0.000159822
0.000138822
0.00145585
-0.0001926
0.000137328
0.00158204
0.000155976
0.0018264
-0.000101285
0.00100354
-7.58665e-05
0.00111936
-4.75983e-05
0.00123142
1.60042e-05
0.00133064
0.001429
3.76487e-06
-5.10347e-05
0.00134145
-6.48422e-05
2.45402e-05
0.00186918
-0.000106522
-0.000113066
0.00234647
0.000198004
-0.000151197
-6.69659e-05
-0.000289365
-3.33741e-05
-0.000471773
0.00262269
0.000205407
-0.000303452
5.41696e-05
-0.00257781
4.86576e-05
-4.79501e-05
0.00124059
2.83501e-05
8.19414e-06
0.00161814
1.81422e-05
-0.00015378
0.00200981
-0.000266848
-1.00304e-05
0.000784096
0.000831236
0.000628884
0.00078106
2.43739e-05
-0.000264592
0.000123812
-0.00051331
2.68592e-05
-0.000486645
0.000130722
5.6264e-05
-0.000345958
-4.89329e-05
-0.000782312
-6.25857e-05
-3.6198e-05
-0.000245389
1.35903e-05
-2.43453e-05
0.00113417
0.000118294
-3.25433e-05
0.00139136
0.000154076
-0.000120649
0.00166005
0.000116096
-2.63465e-05
0.00201279
7.10012e-05
0.0023415
0.000198916
-0.000111259
-6.4092e-05
-0.000148791
3.5689e-06
2.88854e-05
0.00104128
3.04902e-05
-5.45457e-06
0.00121844
-1.13587e-05
-1.37578e-05
0.00139081
-2.6417e-05
-5.00974e-05
0.00162085
-9.03657e-07
0.00187477
-2.97481e-05
0.000927227
2.31543e-05
0.00104288
4.79396e-05
0.00113459
5.11292e-05
0.00124472
0.00134154
0.000336129
-0.000110789
0.00120092
0.000632448
-0.000120486
0.00169387
-0.000129934
-0.000398779
0.00228574
9.41656e-05
0.000546984
0.000583747
6.04713e-05
0.000777386
-0.00025043
-0.000284164
-0.000259724
-7.9799e-05
-9.42654e-05
0.00385592
0.000413072
-5.99207e-05
0.000148752
-0.00435752
0.000261332
-0.000112433
0.00111381
0.000482144
-0.000184687
0.00146153
-0.000101459
-0.000376052
0.00193007
5.39903e-05
0.000273466
0.000313168
2.82271e-05
-0.000101174
-4.62224e-05
0.000801808
-0.000208752
8.34471e-05
-0.000165411
-0.000130348
0.000124476
0.000296587
0.000172051
-0.000106252
0.00100103
0.000299925
-0.0001838
0.0012626
0.000369419
-0.000305249
0.00151975
0.000392679
-0.000484412
0.00193907
5.1703e-05
-0.00010275
0.000313439
0.000272479
-0.000642961
0.00228466
9.1976e-05
-0.000122803
0.000573814
0.000541045
0.000119986
-5.24325e-05
0.000927187
0.000181243
-0.000123194
0.00109658
0.00018247
-0.00017653
0.00126086
0.000121221
-0.000264497
0.00146219
-0.000343215
0.00169176
4.76948e-05
0.000811897
0.000101257
0.000929909
0.000106837
0.00100322
0.000106126
0.00112094
0.00120413
0.00102003
-0.000208735
0.00085022
0.00206788
-0.000354889
0.00100217
0.000881739
-0.000945465
0.00125157
0.000952319
0.00119763
0.00101969
0.00163422
-0.000345731
0.00031363
-0.000718926
0.00340428
-0.000715389
0.000574418
-0.000369345
-0.00289998
0.000731815
-0.000236564
0.000821771
0.0013852
-0.000474781
0.000928043
0.00226462
-0.00103159
0.00113677
0.000872698
-0.00226577
0.00102558
0.000529277
0.000882551
0.000515387
0.00113327
0.000532838
0.00111605
0.000513705
-0.000575103
-0.000941948
-0.000498937
-0.00057497
0.000425057
0.000719313
-0.00137608
0.000128967
0.000689965
0.000460068
0.000705315
-0.000879912
0.000445591
-0.000210987
0.000755489
0.000772345
-0.000425526
0.000886592
0.0010334
-0.000770245
0.000997354
0.000947824
-0.00138477
0.00114365
-0.00206389
0.00126759
0.000951951
0.000877089
0.00101906
0.00118461
0.000282711
-0.000120529
0.000727434
0.000425529
-0.000282193
0.000810429
0.000474617
-0.000443491
0.000885021
0.000354049
-0.000730184
0.00092817
-0.00101698
0.000998385
0.000121934
0.000646195
0.000212801
0.000729795
0.00023846
0.000757817
0.000210905
0.000827817
0.000857211
0.00106784
-0.000225955
0.000515549
0.00193941