/*--------------------------------*- C++ -*----------------------------------*\
| =========                 |                                                 |
| \\      /  F ield         | OpenFOAM: The Open Source CFD Toolbox           |
|  \\    /   O peration     | Version:  5.x                                   |
|   \\  /    A nd           | Web:      www.OpenFOAM.org                      |
|    \\/     M anipulation  |                                                 |
\*---------------------------------------------------------------------------*/
FoamFile
{
    version     2.0;
    format      ascii;
    class       volScalarField;
    location    "0.072";
    object      phiIB;
}
// * * * * * * * * * * * * * * * * * * * * * * * * * * * * * * * * * * * * * //

dimensions      [0 2 -1 0 0 0 0];

internalField   nonuniform List<scalar> 
1539
(
-0.000220168
-0.000220071
-0.00022006
-0.000220024
-0.000220025
-0.00022017
-0.000220073
-0.000220061
-0.000220025
-0.000220026
-0.000220191
-0.000220092
-0.00022008
-0.000220043
-0.000220045
-0.000220202
-0.000220103
-0.000220092
-0.000220054
-0.000220056
-0.00022027
-0.000220171
-0.000220159
-0.000220121
-0.000220122
-0.000440602
-0.000440575
-0.00044055
-0.00044053
-0.000440521
-0.000440601
-0.000440574
-0.00044055
-0.00044053
-0.000440521
-0.000440607
-0.000440581
-0.000440556
-0.000440536
-0.000440527
-0.000440621
-0.000440594
-0.00044057
-0.00044055
-0.00044054
-0.000440628
-0.000440602
-0.000440577
-0.000440557
-0.000440547
-0.00102858
-0.00102845
-0.0010284
-0.00102834
-0.00102832
-0.00102858
-0.00102846
-0.0010284
-0.00102834
-0.00102832
-0.00102861
-0.00102849
-0.00102843
-0.00102837
-0.00102835
-0.00102865
-0.00102852
-0.00102847
-0.0010284
-0.00102839
-0.00102873
-0.00102861
-0.00102855
-0.00102849
-0.00102847
-0.00133683
-0.00133672
-0.00133665
-0.00133658
-0.00133655
-0.00133684
-0.00133672
-0.00133665
-0.00133659
-0.00133656
-0.00133687
-0.00133676
-0.00133669
-0.00133662
-0.00133659
-0.00133692
-0.0013368
-0.00133673
-0.00133666
-0.00133664
-0.00133699
-0.00133688
-0.00133681
-0.00133674
-0.00133671
-0.00188546
-0.00188526
-0.00188516
-0.00188506
-0.00188502
-0.00188547
-0.00188527
-0.00188517
-0.00188507
-0.00188503
-0.00188553
-0.00188533
-0.00188523
-0.00188513
-0.00188509
-0.0018856
-0.0018854
-0.0018853
-0.0018852
-0.00188516
-0.00188574
-0.00188555
-0.00188545
-0.00188534
-0.0018853
-0.00223408
-0.00223384
-0.0022337
-0.00223357
-0.00223352
-0.0022341
-0.00223385
-0.00223372
-0.00223359
-0.00223354
-0.00223418
-0.00223393
-0.0022338
-0.00223367
-0.00223362
-0.00223427
-0.00223403
-0.0022339
-0.00223376
-0.00223371
-0.00223446
-0.00223421
-0.00223408
-0.00223395
-0.00223389
-0.00274701
-0.00274665
-0.00274647
-0.00274629
-0.00274622
-0.00274703
-0.00274668
-0.00274649
-0.00274631
-0.00274624
-0.00274715
-0.0027468
-0.00274662
-0.00274643
-0.00274636
-0.00274729
-0.00274694
-0.00274675
-0.00274657
-0.0027465
-0.00274757
-0.00274722
-0.00274703
-0.00274685
-0.00274678
-0.0031251
-0.00312463
-0.00312438
-0.00312413
-0.00312404
-0.00312514
-0.00312466
-0.00312441
-0.00312416
-0.00312408
-0.00312531
-0.00312484
-0.00312459
-0.00312433
-0.00312424
-0.00312551
-0.00312503
-0.00312478
-0.00312453
-0.00312444
-0.0031259
-0.00312542
-0.00312517
-0.00312492
-0.00312483
-0.00361059
-0.00360992
-0.00360959
-0.00360925
-0.00360914
-0.00361065
-0.00360998
-0.00360964
-0.0036093
-0.00360918
-0.00361089
-0.00361023
-0.00360989
-0.00360954
-0.00360943
-0.00361116
-0.0036105
-0.00361016
-0.00360982
-0.0036097
-0.00361171
-0.00361106
-0.00361072
-0.00361038
-0.00361026
-0.00400838
-0.00400745
-0.00400697
-0.00400651
-0.00400635
-0.00400847
-0.00400753
-0.00400706
-0.00400659
-0.00400643
-0.00400882
-0.00400789
-0.00400741
-0.00400694
-0.00400678
-0.00400921
-0.00400829
-0.00400781
-0.00400734
-0.00400718
-0.00401
-0.00400908
-0.00400861
-0.00400814
-0.00400798
-0.00447296
-0.00447166
-0.00447103
-0.00447039
-0.0044702
-0.00447307
-0.00447177
-0.00447114
-0.00447049
-0.0044703
-0.00447355
-0.00447227
-0.00447163
-0.00447099
-0.00447079
-0.00447407
-0.00447281
-0.00447218
-0.00447154
-0.00447133
-0.00447515
-0.00447392
-0.0044733
-0.00447268
-0.00447247
-0.00488133
-0.00487951
-0.00487859
-0.00487771
-0.00487741
-0.0048815
-0.00487968
-0.00487877
-0.00487789
-0.00487759
-0.00488219
-0.00488039
-0.00487949
-0.0048786
-0.0048783
-0.00488294
-0.00488116
-0.00488028
-0.0048794
-0.00487911
-0.0048845
-0.00488276
-0.00488189
-0.00488102
-0.00488074
-0.00532818
-0.00532571
-0.00532454
-0.00532335
-0.005323
-0.00532838
-0.00532591
-0.00532475
-0.00532356
-0.00532321
-0.00532926
-0.00532684
-0.0053257
-0.00532454
-0.0053242
-0.0053302
-0.00532782
-0.00532671
-0.00532557
-0.00532524
-0.00533226
-0.00532998
-0.0053289
-0.00532782
-0.00532749
-0.00573759
-0.00573418
-0.00573262
-0.00573106
-0.0057305
-0.00573783
-0.00573446
-0.00573293
-0.0057314
-0.0057309
-0.00573901
-0.00573567
-0.0057342
-0.00573267
-0.00573222
-0.00574021
-0.00573694
-0.00573552
-0.00573404
-0.00573361
-0.00574312
-0.00573994
-0.00573858
-0.00573714
-0.00573674
-0.0061649
-0.00616085
-0.00615957
-0.00615783
-0.00615766
-0.00616503
-0.00616097
-0.00615974
-0.00615801
-0.00615767
-0.00616623
-0.00616224
-0.00616099
-0.00615946
-0.00615913
-0.00616738
-0.00616338
-0.00616207
-0.00616053
-0.00616024
-0.00617088
-0.00616707
-0.00616575
-0.00616427
-0.00616397
-0.00655994
-0.00655555
-0.00655569
-0.00655633
-0.00655984
-0.00655984
-0.00655539
-0.00655533
-0.00655496
-0.00655621
-0.00656106
-0.00655631
-0.006556
-0.00655496
-0.00655516
-0.00656191
-0.00655697
-0.00655613
-0.00655484
-0.00655485
-0.00656644
-0.00656151
-0.00656048
-0.00655888
-0.00655883
-0.00695044
-0.00694724
-0.00695204
-0.00696173
-0.00696704
-0.00694968
-0.00694571
-0.0069482
-0.00695569
-0.00696151
-0.0069505
-0.00694594
-0.0069469
-0.00694783
-0.00695161
-0.00695028
-0.00694514
-0.00694583
-0.00694519
-0.00694648
-0.00695542
-0.00694984
-0.0069499
-0.00694874
-0.00694932
-0.007286
-0.00728347
-0.00728794
-0.00728925
-0.00729026
-0.00728414
-0.00728037
-0.00728487
-0.00728707
-0.00728884
-0.00728494
-0.00727875
-0.00728027
-0.00728429
-0.0072869
-0.00728546
-0.00727779
-0.00727861
-0.00727963
-0.00728231
-0.00729577
-0.00728474
-0.00728405
-0.00728274
-0.00728424
-0.00756926
-0.00756072
-0.0075574
-0.0075511
-0.00754789
-0.00756964
-0.00756073
-0.00755821
-0.00755301
-0.00755064
-0.00757389
-0.00756248
-0.00756161
-0.00755741
-0.00755623
-0.00758074
-0.00756525
-0.00756192
-0.00755947
-0.00755912
-0.0075996
-0.00757984
-0.00757269
-0.0075677
-0.00756699
-0.00776211
-0.0077372
-0.00771498
-0.0076945
-0.00767961
-0.00776683
-0.00774327
-0.00772366
-0.00770555
-0.0076936
-0.00778191
-0.00775509
-0.00773857
-0.00772216
-0.00771261
-0.00779865
-0.00776859
-0.00775435
-0.00774109
-0.00773432
-0.00782428
-0.00779748
-0.00777992
-0.00776363
-0.00775875
-0.00791326
-0.00786574
-0.0078258
-0.00779284
-0.00776287
-0.00791783
-0.00787587
-0.00784153
-0.00781472
-0.00779214
-0.00793561
-0.00789494
-0.0078651
-0.00784001
-0.00782366
-0.00795483
-0.00791921
-0.00789403
-0.00787347
-0.00786271
-0.00798494
-0.00795356
-0.00793347
-0.00791402
-0.00790912
-0.00797595
-0.00789867
-0.00782997
-0.00778352
-0.007741
-0.00798564
-0.0079161
-0.00785903
-0.00782158
-0.00778206
-0.00800129
-0.00794185
-0.00789204
-0.00785664
-0.00782618
-0.00802155
-0.00797708
-0.00794054
-0.00791254
-0.00789396
-0.00805963
-0.00801943
-0.00799786
-0.00797988
-0.00796904
-0.00803137
-0.00794844
-0.00786712
-0.00782319
-0.00772477
-0.00803993
-0.00797097
-0.00790772
-0.00788414
-0.00782449
-0.0080535
-0.00798855
-0.00793782
-0.00790549
-0.00786593
-0.0080708
-0.00802212
-0.00798767
-0.00796812
-0.00794606
-0.00811449
-0.00806859
-0.00805066
-0.00803437
-0.00802639
-0.00802604
-0.00791763
-0.00786111
-0.00779962
-0.00773086
-0.00802496
-0.00793965
-0.00788181
-0.00784633
-0.00779717
-0.00803411
-0.00796008
-0.00791341
-0.00787822
-0.00785545
-0.00805163
-0.0079917
-0.00795842
-0.00793456
-0.00791059
-0.0081054
-0.00804836
-0.00802904
-0.00801626
-0.00801623
-0.00800999
-0.00790792
-0.00774273
-0.0076865
-0.00725736
-0.00802682
-0.00795407
-0.0078596
-0.00788864
-0.00769169
-0.00804132
-0.00795719
-0.00788413
-0.00785538
-0.00774273
-0.00806582
-0.00800721
-0.00795711
-0.00795108
-0.00790776
-0.00812523
-0.0080626
-0.00803791
-0.00801819
-0.00800551
-0.00802094
-0.00783802
-0.00784206
-0.00779816
-0.00748547
-0.00800582
-0.00787618
-0.00785906
-0.00785706
-0.00779661
-0.00802252
-0.00790193
-0.00788317
-0.00785366
-0.00783902
-0.0080339
-0.00794471
-0.00789969
-0.00786993
-0.00783014
-0.00810849
-0.00802922
-0.00801529
-0.00799314
-0.0080085
-0.00789622
-0.00772344
-0.00742053
-0.00698787
-0.0059306
-0.00792381
-0.00780796
-0.00759276
-0.00760335
-0.00729902
-0.00794541
-0.00782499
-0.00767685
-0.00758834
-0.00741724
-0.00798533
-0.00790877
-0.00782547
-0.00780451
-0.00772368
-0.00806201
-0.00798094
-0.00794164
-0.00791166
-0.00789083
-0.00797103
-0.00776977
-0.0077685
-0.00739568
-0.00696364
-0.00792442
-0.00776136
-0.00767749
-0.00760796
-0.00740699
-0.0079542
-0.00780387
-0.00777823
-0.00767067
-0.00779368
-0.00794777
-0.00785127
-0.0078015
-0.00775556
-0.00775677
-0.00803614
-0.00794208
-0.00794568
-0.00790801
-0.00796056
-0.00788745
-0.00773199
-0.00794774
-0.00797866
-0.00974555
-0.00788359
-0.00777539
-0.00790696
-0.00801142
-0.00829844
-0.00785523
-0.00779869
-0.00774829
-0.00789847
-0.00792518
-0.00785699
-0.00779319
-0.00779928
-0.00777024
-0.00772612
-0.00790399
-0.00785224
-0.00785087
-0.00787131
-0.00787677
-0.00785033
-0.00758658
-0.00752358
-0.00736475
-0.00735392
-0.00777069
-0.00763322
-0.00749211
-0.00728997
-0.00739666
-0.00782189
-0.00768611
-0.00767036
-0.0074854
-0.00752849
-0.00779589
-0.00772298
-0.0076847
-0.00763041
-0.0075835
-0.00786419
-0.00779227
-0.00781604
-0.00776157
-0.00784362
-0.00747921
-0.00752548
-0.00700381
-0.00770415
-0.00627449
-0.00751665
-0.0074693
-0.00737594
-0.00722567
-0.00641421
-0.00752135
-0.00749116
-0.00735511
-0.00737641
-0.00701336
-0.00754513
-0.00750832
-0.00749158
-0.0074686
-0.00752409
-0.0075755
-0.00754263
-0.00751965
-0.00751209
-0.0074795
-0.00764056
-0.00765681
-0.00779929
-0.00792631
-0.00867019
-0.00759143
-0.00759681
-0.0076528
-0.0076573
-0.00773526
-0.00759988
-0.00759886
-0.00765578
-0.00766939
-0.00784518
-0.00757493
-0.00757594
-0.00759712
-0.00759471
-0.00764882
-0.00758562
-0.00757371
-0.00759869
-0.00759266
-0.00764365
-0.00719208
-0.00721809
-0.00728272
-0.00732225
-0.008233
-0.00717275
-0.00721851
-0.00721301
-0.00735757
-0.00761251
-0.00717046
-0.00718726
-0.00720655
-0.00721443
-0.00727703
-0.00715766
-0.00717566
-0.00718764
-0.00721781
-0.00721597
-0.00714585
-0.00715654
-0.00716912
-0.00717139
-0.0071874
-0.00725592
-0.00719953
-0.00722409
-0.00735843
-0.0069796
-0.00722514
-0.00723743
-0.00724382
-0.00743878
-0.00736761
-0.00722417
-0.00720942
-0.00725481
-0.00724303
-0.00722647
-0.00719903
-0.00720468
-0.0072096
-0.00723719
-0.00719943
-0.00718859
-0.00719834
-0.00722365
-0.00722502
-0.00725517
-0.0065038
-0.0065048
-0.00647082
-0.00659284
-0.00652166
-0.00648566
-0.00651782
-0.00651802
-0.00656835
-0.00658349
-0.00646629
-0.00648871
-0.00651708
-0.00651947
-0.00646858
-0.00643125
-0.00645674
-0.00648922
-0.00651765
-0.00650113
-0.00641239
-0.00643104
-0.00646613
-0.00648479
-0.0064986
-0.00602929
-0.00599674
-0.00601119
-0.00607958
-0.00601022
-0.00603466
-0.00601894
-0.00601612
-0.00607953
-0.00608175
-0.00603643
-0.00602581
-0.00602032
-0.0060173
-0.00601095
-0.0060362
-0.00603246
-0.0060266
-0.00602042
-0.00599379
-0.00603185
-0.00603642
-0.00603744
-0.00603592
-0.00602756
-0.00454932
-0.00456138
-0.0045835
-0.00464635
-0.00462654
-0.00455177
-0.00456142
-0.00458495
-0.00463046
-0.00464573
-0.00455908
-0.00455323
-0.00457249
-0.00458682
-0.00458448
-0.00457564
-0.00456562
-0.00455407
-0.0045633
-0.00456309
-0.0045848
-0.00457615
-0.00455994
-0.00455316
-0.00454994
-0.00373388
-0.00375474
-0.00384914
-0.00396474
-0.00402371
-0.00372622
-0.0037456
-0.00380679
-0.00390907
-0.00396628
-0.00371521
-0.00372599
-0.00375284
-0.00380977
-0.00385451
-0.00371063
-0.00371595
-0.00372638
-0.00374782
-0.003757
-0.00370743
-0.00371065
-0.00371568
-0.00372755
-0.00373563
-0.00164385
-0.00166819
-0.00177481
-0.00178847
-0.00176842
-0.00163453
-0.00164096
-0.00172816
-0.00179052
-0.00179124
-0.0016248
-0.00162198
-0.00165541
-0.00173003
-0.00178382
-0.00161775
-0.0016153
-0.0016221
-0.00164119
-0.00167166
-0.00161676
-0.00161786
-0.00162468
-0.00163437
-0.00164446
-0.000866512
-0.000899752
-0.000960494
-0.00106847
-0.00115369
-0.000862182
-0.0008872
-0.000923126
-0.000996334
-0.00106742
-0.000857273
-0.000868862
-0.000884519
-0.00092173
-0.000956047
-0.00085404
-0.000861334
-0.000868449
-0.000886211
-0.00089869
-0.000856765
-0.000853984
-0.000857007
-0.000861993
-0.00086733
-0.00409342
-0.00729271
-0.00625201
-0.00498393
-0.00628767
-0.00707046
-0.00502086
-0.00769321
-0.00765805
-0.00864988
-0.00880374
-0.00934233
-0.00774325
-0.00879507
-0.00847308
-0.00739944
-0.00820692
-0.00703427
-0.00726551
-0.00660657
-0.00697281
-0.00686318
-0.00734633
-0.00735289
-0.00600888
-0.0058963
-0.0065394
-0.0060224
-0.00787175
-0.00729705
-0.00760194
-0.00716859
-0.00754489
-0.0069128
-0.00746405
-0.00785853
-0.00727798
-0.00730816
-0.00748559
-0.00751986
-0.00690978
-0.00717298
-0.00911592
-0.00824091
-0.00971763
-0.00726852
-0.00870296
-0.00669002
-0.00726027
-0.00788098
-0.00831335
-0.00829909
-0.00846021
-0.00819745
-0.00819238
-0.00818718
-0.00818798
-0.00841349
-0.00799947
-0.0074986
-0.00828915
-0.00729935
-0.00841187
-0.00819972
-0.00842902
-0.00798402
-0.00748697
-0.00830108
-0.00728094
-0.00840852
-0.00798331
-0.00797907
-0.00720428
-0.00820786
-0.00863607
-0.00845051
-0.00843392
-0.00861942
-0.00769394
-0.00836487
-0.00724486
-0.0085254
-0.00711803
-0.00824868
-0.00856453
-0.00770679
-0.00795604
-0.00840744
-0.00853365
-0.00710994
-0.00721653
-0.00834552
-0.00793591
-0.00792575
-0.0067252
-0.00824703
-0.0076794
-0.00765396
-0.00881567
-0.0068456
-0.00822493
-0.008583
-0.00835506
-0.00818604
-0.00872313
-0.00881194
-0.00683105
-0.00821535
-0.00858062
-0.00831923
-0.00818046
-0.00870247
-0.0077602
-0.00775485
-0.00883687
-0.00872379
-0.00768364
-0.00826797
-0.00827839
-0.00931694
-0.00906808
-0.00917261
-0.00916682
-0.00886994
-0.00914768
-0.00914695
-0.00822795
-0.00773077
-0.00770395
-0.0076531
-0.00845061
-0.00764268
-0.00788636
-0.00814609
-0.0076457
-0.00788654
-0.00789276
-0.00845082
-0.00763942
-0.00764881
-0.00917957
-0.00963373
-0.0091582
-0.00850563
-0.00945376
-0.00893408
-0.0091345
-0.00919033
-0.00963262
-0.00917347
-0.00851631
-0.00944194
-0.00895439
-0.00913756
4.661e-05
-0.00724227
-0.00698828
-0.0106223
-0.008726
-0.00832868
-0.0105889
-0.00907508
-0.00936569
-0.00935077
-0.00901817
-0.00953878
-0.00911609
-0.00909753
-0.00928844
-0.00978535
-0.00963204
-0.00893066
-0.00965721
-0.00872407
-0.00966954
-0.00927359
-0.00975382
-0.00961631
-0.00887418
-0.00963564
-0.00866833
-0.00964374
-0.00966569
-0.00807107
-0.00839533
-0.00840585
-0.00852747
-0.00847324
-0.00910803
-0.00952304
-0.00873239
-0.00872912
-0.0081165
-0.010074
-0.00878134
-0.00861211
-0.00903508
-0.0079546
-0.00794954
-0.00858221
-0.00829589
-0.00878426
-0.00878325
-0.00937794
-0.00851199
-0.0083141
-0.0104468
-0.00902191
-0.010166
-0.00918401
-0.0093813
-0.00849602
-0.00833419
-0.0104876
-0.00903522
-0.0101715
-0.00918622
-0.00821393
-0.00770153
-0.00834974
-0.00821556
-0.00752538
-0.00801861
-0.00811374
-0.00819051
-0.00838863
-0.00771304
-0.00817378
-0.00755258
-0.00801607
-0.00812023
-0.00916567
-0.00915698
-0.00957004
-0.00895637
-0.00746336
-0.00819424
-0.00819273
-0.00704398
-0.00743654
-0.00739292
-0.00812988
-0.0087337
-0.00783156
-0.00796542
-0.00702791
-0.00742673
-0.00738432
-0.00810614
-0.00872006
-0.00776782
-0.00809304
-0.00854859
-0.00917328
-0.00906318
-0.00753807
-0.00844086
-0.00824869
-0.0077862
-0.00849364
-0.00912263
-0.00891718
-0.00751522
-0.00844805
-0.00831623
-0.00774939
-0.00996767
-0.00982961
-0.010198
-0.0105851
-0.0083218
-0.00796478
-0.00962606
-0.00994718
-0.0098234
-0.0101939
-0.0105876
-0.008279
-0.00798046
-0.0096066
-0.0099996
-0.00849107
-0.00833548
-0.00820404
-0.00926971
-0.00865953
-0.00872191
-0.00903875
-0.0090321
-0.0108456
-0.00961546
-0.00771535
-0.0088477
-0.00880242
-0.00767381
-0.00755878
-0.00763824
-0.00761108
-0.00759301
-0.00759564
-0.00761564
-0.00484442
-0.00448993
-0.00648536
-0.00648526
-0.00669946
-0.00428969
-0.00428536
-0.00547411
-0.00784295
-0.0065053
-0.0070204
-0.0073422
-0.00733987
-0.00671459
-0.00547279
-0.00780009
-0.0076893
-0.00683053
-0.00736893
-0.00732251
-0.0070288
-0.00461404
-0.0051304
-0.0072244
-0.00581548
-0.00618637
-0.00708618
-0.00392101
-0.00454544
-0.00514879
-0.00722664
-0.00587036
-0.00621172
-0.00710921
-0.00390472
-0.00759252
-0.00831801
-0.00828599
-0.00757459
-0.00822019
-0.00788686
-0.00799892
-0.00829541
-0.00765508
-0.00829892
-0.00764437
-0.00828459
-0.0079095
-0.00802421
-0.00486411
-0.00666456
-0.0059206
-0.00554599
-0.000529676
-0.00676394
-0.00556297
-0.00652801
-0.00111495
-0.00124011
-0.00473875
-0.00399863
-0.00575695
-0.0057809
-0.00784261
-0.00452403
-0.00738793
-0.00604087
-0.00549458
-0.0069847
-0.00833143
-0.0078295
-0.00452598
-0.00740893
-0.00606
-0.00550565
-0.0070302
-0.00832279
-0.00858741
-0.00809739
-0.00786427
-0.00936731
-0.00911512
-0.00754938
-0.00762401
-0.00856629
-0.00810085
-0.00787908
-0.00930757
-0.00907797
-0.00758846
-0.00764895
-0.00457238
-0.00704829
-0.00727271
-0.00731675
-0.00656444
-0.0065443
-0.0057841
-0.00682321
-0.00721463
-0.00720625
-0.00744314
-0.00595837
-0.00800247
-0.00802539
-0.00788914
-0.00756966
-0.00782681
-0.0077333
-0.00814272
-0.00775683
-0.00762778
-0.00740852
-0.00761835
-0.00759434
-0.00773211
-0.0075795
-0.00769075
-0.00771277
-0.00431603
-0.00455503
-0.0045382
-0.00344293
-0.00540854
-0.00379613
-0.0037601
-0.00858219
-0.00754926
-0.00775237
-0.00803155
-0.008384
-0.00792944
-0.00767109
-0.00363151
-0.00459197
-0.00679122
-0.00537168
-0.00524242
-0.00579113
-0.00305058
-0.00370436
-0.0045923
-0.00679176
-0.00536975
-0.00525844
-0.00581483
-0.00304162
-0.00617069
-0.00648462
-0.00701251
-0.00618453
-0.00673269
-0.00691634
-0.00664973
-0.00617722
-0.00708952
-0.00653482
-0.00617416
-0.0068138
-0.00694797
-0.00669439
-0.00233486
-0.00234812
-0.00225054
-0.00478888
-0.002335
-0.00366087
-0.00369271
-0.00711978
-0.00708986
-0.00727204
-0.00749319
-0.00653506
-0.00757684
-0.00692665
-0.00712749
-0.00708995
-0.00699081
-0.00690297
-0.00653236
-0.0075635
-0.00749146
-0.00684299
-0.00829283
-0.00783349
-0.00753136
-0.0072476
-0.00721849
-0.00736979
-0.00682839
-0.00827216
-0.00782574
-0.00755744
-0.00724645
-0.00726453
-0.00736806
-0.00855455
-0.00761909
-0.00791519
-0.00804167
-0.00827941
-0.00799019
-0.00775798
-0.00284833
-0.00581975
-0.00366856
-0.00583088
-0.00643278
-0.00647124
-0.00549204
-0.0028384
-0.00586392
-0.00365782
-0.00585848
-0.00642979
-0.00646804
-0.0054846
-0.00469269
-0.00659669
-0.00658751
-0.00671783
-0.00551867
-0.00602412
-0.00600967
-0.00749482
-0.00775709
-0.00790021
-0.0078918
-0.00827222
-0.0078587
-0.00754329
-0.00650967
-0.00654122
-0.00486329
-0.00679458
-0.00632638
-0.00681849
-0.00681316
)
;

boundaryField
{
    inlet
    {
        type            fixedValue;
        value           uniform 0;
    }
    wall
    {
        type            zeroGradient;
    }
    outlet
    {
        type            fixedValue;
        value           uniform 0;
    }
    procBoundary2to0
    {
        type            processor;
        value           nonuniform List<scalar> 
317
(
-0.000220173
-0.000220077
-0.000220066
-0.000220031
-0.000220033
-0.00044061
-0.000440581
-0.000440556
-0.000440536
-0.000440528
-0.00102859
-0.00102846
-0.00102841
-0.00102835
-0.00102834
-0.00133685
-0.00133673
-0.00133666
-0.0013366
-0.00133657
-0.00188548
-0.00188528
-0.00188518
-0.00188508
-0.00188504
-0.0022341
-0.00223386
-0.00223373
-0.0022336
-0.00223355
-0.00274703
-0.00274668
-0.0027465
-0.00274632
-0.00274625
-0.00312513
-0.00312465
-0.00312441
-0.00312416
-0.00312408
-0.00361062
-0.00360996
-0.00360962
-0.00360929
-0.00360919
-0.00400841
-0.00400749
-0.00400702
-0.00400656
-0.00400641
-0.00447298
-0.00447171
-0.00447108
-0.00447045
-0.00447027
-0.00488136
-0.00487956
-0.00487865
-0.00487778
-0.00487749
-0.00532822
-0.00532577
-0.0053246
-0.00532343
-0.0053231
-0.00573762
-0.00573424
-0.0057327
-0.00573116
-0.00573062
-0.00616492
-0.00616091
-0.00615964
-0.00615793
-0.00615778
-0.00655997
-0.00655564
-0.00655578
-0.00655641
-0.00655988
-0.00695045
-0.00694729
-0.00695209
-0.00696181
-0.00696714
-0.00728608
-0.0072836
-0.00728809
-0.00728953
-0.00729061
-0.00756939
-0.00756105
-0.00755776
-0.00755161
-0.00754843
-0.00776225
-0.0077376
-0.0077155
-0.00769529
-0.00768057
-0.00791329
-0.00786611
-0.00782625
-0.00779364
-0.00776362
-0.00797596
-0.00789927
-0.00783084
-0.00778485
-0.00774255
-0.00803115
-0.00794882
-0.00786745
-0.00782393
-0.00772491
-0.00802593
-0.0079184
-0.00786231
-0.00780172
-0.00773381
-0.00800953
-0.00790795
-0.00774281
-0.00768621
-0.00725488
-0.00802085
-0.00783937
-0.00784472
-0.00780276
-0.00748801
-0.00789563
-0.0077228
-0.00742035
-0.00698173
-0.00591969
-0.00797168
-0.00776867
-0.00777317
-0.00738193
-0.00697034
-0.00788755
-0.00773263
-0.00795096
-0.0079835
-0.00975234
-0.00784968
-0.00758608
-0.0075286
-0.00736234
-0.00736162
-0.00747636
-0.00752559
-0.00700218
-0.00770913
-0.0062678
-0.00763781
-0.00765766
-0.00779443
-0.00793043
-0.00867648
-0.0071877
-0.00721602
-0.00728302
-0.00733499
-0.0082275
-0.00725184
-0.00720326
-0.0072148
-0.00737874
-0.00695436
-0.00650291
-0.00650357
-0.00647405
-0.00657135
-0.00653223
-0.0060301
-0.00600028
-0.00600662
-0.00608114
-0.00599908
-0.00454888
-0.00456189
-0.00458376
-0.00464147
-0.00462799
-0.00373229
-0.00375696
-0.00385401
-0.00396366
-0.00402068
-0.00163898
-0.00166394
-0.00178046
-0.00178864
-0.00176728
-0.000862869
-0.00089132
-0.000943763
-0.00106618
-0.00115589
-0.00497961
-0.00628446
-0.00408222
-0.00879619
-0.00934893
-0.0076947
-0.00698547
-0.00728687
-0.00848361
-0.00601666
-0.00588416
-0.0068714
-0.00716729
-0.00753027
-0.00787506
-0.00727094
-0.00871102
-0.0091247
-0.00831958
-0.00819675
-0.00846353
-0.0075126
-0.00841737
-0.00843321
-0.00864721
-0.00845869
-0.00798786
-0.00725374
-0.00852282
-0.00861939
-0.00881488
-0.00873087
-0.00835621
-0.00907053
-0.00915217
-0.00917854
-0.00765584
-0.00845795
-0.0082383
-0.00917086
-0.00914703
-0.00964034
-0.01062
-0.00873059
9.02643e-05
-0.00937497
-0.00912978
-0.00903056
-0.00893777
-0.00967637
-0.00979408
-0.00795691
-0.00878457
-0.00858319
-0.0104399
-0.00918179
-0.00851877
-0.00822371
-0.00811562
-0.00770095
-0.0074634
-0.00819705
-0.00917039
-0.00814162
-0.00873189
-0.00704606
-0.00843941
-0.00778622
-0.00917299
-0.00997049
-0.00962963
-0.00831918
-0.00448028
-0.00426685
-0.00647813
-0.00702739
-0.00733784
-0.00546801
-0.00721091
-0.00389692
-0.00512329
-0.00759823
-0.00799632
-0.00828794
-0.00553609
-0.000481668
-0.00486207
-0.00110923
-0.00575399
-0.00472664
-0.00603094
-0.00832849
-0.00452029
-0.00936172
-0.00761582
-0.00809394
-0.00452639
-0.00374191
-0.00342177
-0.00536372
-0.00303533
-0.00457992
-0.00616906
-0.00665044
-0.00648623
-0.00229637
-0.00364314
-0.00233306
-0.00750021
-0.00653777
-0.00712072
-0.00724262
-0.00736643
-0.00827895
-0.00282492
-0.00546973
-0.00642571
)
;
    }
    procBoundary2to3
    {
        type            processor;
        value           nonuniform List<scalar> 
317
(
-0.000220018
-0.000220018
-0.000220036
-0.000220047
-0.000220112
-0.000440516
-0.000440515
-0.00044052
-0.000440534
-0.00044054
-0.00102831
-0.00102831
-0.00102834
-0.00102837
-0.00102845
-0.00133654
-0.00133654
-0.00133657
-0.00133662
-0.00133669
-0.001885
-0.00188501
-0.00188506
-0.00188513
-0.00188527
-0.0022335
-0.00223351
-0.00223359
-0.00223368
-0.00223386
-0.00274619
-0.00274621
-0.00274632
-0.00274646
-0.00274673
-0.003124
-0.00312403
-0.0031242
-0.00312439
-0.00312477
-0.00360909
-0.00360913
-0.00360937
-0.00360964
-0.00361019
-0.00400629
-0.00400637
-0.00400671
-0.0040071
-0.00400789
-0.00447013
-0.00447022
-0.0044707
-0.00447124
-0.00447236
-0.00487732
-0.00487749
-0.00487819
-0.00487898
-0.00488059
-0.00532289
-0.0053231
-0.00532406
-0.00532509
-0.00532731
-0.00573035
-0.00573074
-0.00573203
-0.00573341
-0.00573651
-0.00615749
-0.0061575
-0.0061589
-0.00615999
-0.00616367
-0.00655977
-0.00655604
-0.00655479
-0.00655445
-0.00655839
-0.00696686
-0.00696136
-0.00695138
-0.00694612
-0.00694877
-0.00728981
-0.00728838
-0.00728642
-0.00728181
-0.00728353
-0.00754714
-0.00754988
-0.00755509
-0.00755787
-0.00756559
-0.00767849
-0.00769233
-0.00771109
-0.00773283
-0.00775748
-0.00776168
-0.00779111
-0.00782175
-0.00786096
-0.00790654
-0.00773938
-0.00777989
-0.00782353
-0.00789138
-0.00796587
-0.00772325
-0.00782389
-0.00786267
-0.00794366
-0.0080215
-0.00772875
-0.00779515
-0.00785204
-0.00790724
-0.00801047
-0.00725746
-0.00769181
-0.00773545
-0.00790368
-0.0079939
-0.00748051
-0.00779989
-0.00783207
-0.00782785
-0.00799928
-0.00485787
-0.00713646
-0.00740252
-0.00771932
-0.00787312
4.50474e-06
-0.00702853
-0.0077896
-0.0077645
-0.00794477
-0.00911015
-0.00856448
-0.0079191
-0.0077106
-0.00785731
-0.00684076
-0.00734223
-0.00751051
-0.00758296
-0.00782993
-0.00409803
-0.00550431
-0.00699543
-0.00751605
-0.00746772
-0.00769051
-0.00815703
-0.00784122
-0.007644
-0.00764457
-0.00848488
-0.0078478
-0.00728157
-0.00720803
-0.00718553
-0.00696963
-0.00737535
-0.00721468
-0.00719878
-0.00725486
-0.00655656
-0.00657743
-0.00647971
-0.0064989
-0.00649972
-0.00600079
-0.00608822
-0.00601043
-0.00599521
-0.00602965
-0.00463557
-0.00464536
-0.00458818
-0.00456445
-0.00455099
-0.00402298
-0.00396772
-0.00385947
-0.00375834
-0.00373544
-0.00176844
-0.00179191
-0.00179005
-0.0016727
-0.001644
-0.00115515
-0.00106622
-0.000947357
-0.000895463
-0.00086586
-0.00625149
-0.00507141
-0.00628779
-0.00864761
-0.00879886
-0.0093471
-0.00821395
-0.00698084
-0.0073007
-0.00731864
-0.00600005
-0.00588463
-0.00730421
-0.00715429
-0.00751246
-0.00971667
-0.00725213
-0.00870037
-0.00830774
-0.00818885
-0.00846615
-0.0074827
-0.00840907
-0.00843253
-0.00863203
-0.00842645
-0.00797278
-0.00797316
-0.00719056
-0.00857763
-0.00880994
-0.00870125
-0.00831437
-0.0090689
-0.0091489
-0.00917268
-0.00791911
-0.00762684
-0.00846952
-0.00918452
-0.00913812
-0.00964011
-0.00698417
-0.010591
-0.00872352
-0.00934437
-0.00908524
-0.00901013
-0.00886446
-0.00963999
-0.00975121
-0.00794362
-0.00878155
-0.00858123
-0.0104991
-0.0091832
-0.00848407
-0.00819146
-0.0081302
-0.00771778
-0.00746498
-0.00819218
-0.00915512
-0.00740142
-0.0080775
-0.00872527
-0.00845246
-0.00775071
-0.00913081
-0.00994832
-0.00960715
-0.00828037
-0.00449123
-0.00428653
-0.00648469
-0.00766957
-0.00700856
-0.00738142
-0.0076708
-0.00804629
-0.00831971
-0.00723046
-0.00393087
-0.0051549
-0.00594162
-0.00557199
-0.000581262
-0.00124547
-0.00578398
-0.00475127
-0.00607858
-0.00832203
-0.00453254
-0.00931812
-0.00766952
-0.00810904
-0.00454373
-0.00374703
-0.00344436
-0.00537716
-0.00305192
-0.0045998
-0.00619745
-0.00670522
-0.00654581
-0.00236996
-0.00370499
-0.00234779
-0.00700089
-0.00749219
-0.00653647
-0.00725091
-0.00737699
-0.00828182
-0.0028478
-0.00549625
-0.00643388
)
;
    }
}


// ************************************************************************* //
