/*--------------------------------*- C++ -*----------------------------------*\
| =========                 |                                                 |
| \\      /  F ield         | OpenFOAM: The Open Source CFD Toolbox           |
|  \\    /   O peration     | Version:  5.x                                   |
|   \\  /    A nd           | Web:      www.OpenFOAM.org                      |
|    \\/     M anipulation  |                                                 |
\*---------------------------------------------------------------------------*/
FoamFile
{
    version     2.0;
    format      ascii;
    class       surfaceScalarField;
    location    "0.099";
    object      phi;
}
// * * * * * * * * * * * * * * * * * * * * * * * * * * * * * * * * * * * * * //

dimensions      [0 3 -1 0 0 0 0];

internalField   nonuniform List<scalar> 
4288
(
-4.04507e-07
-3.86751e-07
-4.96917e-07
-1.74327e-07
-4.13769e-07
-4.8046e-07
4.28865e-08
-4.80668e-07
-4.66788e-07
2.04238e-07
-4.98951e-07
-4.12515e-07
-5.67493e-07
-2.42399e-07
-4.31587e-07
-1.5732e-07
-4.80768e-07
-2.02118e-07
-1.84899e-07
-4.58283e-07
1.78816e-08
-2.53318e-07
-4.47284e-07
1.80208e-07
-2.7191e-07
-3.89296e-07
-3.40469e-07
-2.26221e-07
-4.98412e-07
5.72684e-08
-4.64813e-07
-2.70322e-07
3.22715e-08
-4.45195e-07
-4.71406e-08
-3.27709e-08
-4.43654e-07
1.19934e-07
-5.06036e-08
-3.88301e-07
-1.17758e-07
-2.3889e-07
-5.16658e-07
2.16784e-07
-4.11567e-07
-2.88969e-07
1.92705e-07
-3.88051e-07
-6.50464e-08
1.32322e-07
-3.88936e-07
1.02454e-07
1.14853e-07
-3.32874e-07
5.3071e-08
-1.90781e-07
-5.85181e-07
-2.38694e-07
-3.57634e-07
-2.22202e-07
-1.32285e-07
-2.36951e-07
4.07406e-08
-1.88368e-07
-6.89971e-08
-3.36365e-07
-3.19586e-07
-5.66637e-07
-2.83201e-07
-3.40686e-07
-5.68067e-07
-2.80058e-07
-3.65042e-07
-5.04289e-07
-2.38094e-07
-3.78412e-07
-4.88702e-07
-3.96427e-07
-3.40272e-07
-3.5747e-07
-2.67907e-07
-5.67079e-07
-3.0148e-07
-2.86267e-07
-5.68593e-07
-2.94615e-07
-3.08618e-07
-5.10471e-07
-2.47424e-07
-3.19869e-07
-4.9493e-07
-3.36075e-07
-3.51799e-07
-3.81912e-07
-2.67044e-07
-5.00059e-07
-3.23814e-07
-2.81257e-07
-5.08201e-07
-3.13188e-07
-2.99957e-07
-4.62836e-07
-2.61412e-07
-3.08028e-07
-4.51815e-07
-3.2014e-07
-3.22013e-07
-3.95026e-07
-2.27908e-07
-4.85449e-07
-3.3517e-07
-2.37298e-07
-4.91765e-07
-3.2131e-07
-2.5146e-07
-4.51191e-07
-2.65897e-07
-2.5612e-07
-4.40097e-07
-2.63498e-07
-3.14826e-07
-4.13235e-07
-3.34142e-07
-3.51546e-07
-3.46408e-07
-3.33697e-07
-3.19332e-07
-2.73306e-07
-3.13648e-07
-2.00091e-07
-3.94109e-07
-3.75887e-07
-1.04049e-06
-1.63934e-07
-4.05712e-07
-1.03607e-06
2.46188e-09
-4.75569e-07
-9.08562e-07
1.47525e-07
-4.934e-07
-8.71313e-07
-5.6069e-07
-5.89129e-07
-4.24073e-07
-1.4614e-07
-1.03481e-06
-1.92484e-07
-1.75714e-07
-1.03007e-06
-2.4139e-08
-2.43894e-07
-9.10397e-07
1.24218e-07
-2.62989e-07
-8.73621e-07
-3.29726e-07
-6.00444e-07
-4.9482e-07
2.18024e-08
-9.03925e-07
-2.60811e-07
-1.13012e-08
-9.06529e-07
-8.58755e-08
-7.13499e-08
-8.10236e-07
6.77388e-08
-8.86768e-08
-7.79677e-07
-1.50758e-07
-5.32941e-07
-5.10233e-07
1.60378e-07
-8.64642e-07
-2.80073e-07
1.36068e-07
-8.69217e-07
-1.03056e-07
7.94081e-08
-7.78901e-07
5.32457e-08
6.35967e-08
-7.48621e-07
1.03841e-08
-5.09607e-07
-5.78539e-07
-5.79392e-07
-3.46928e-07
-5.922e-07
-1.66346e-07
-5.28221e-07
-6.05658e-09
-5.05189e-07
-2.93837e-07
-3.12069e-07
-2.91199e-07
-1.39148e-06
-1.28539e-07
-3.14516e-07
-1.39412e-06
-1.06264e-08
-3.66549e-07
-1.20009e-06
1.06861e-07
-3.82088e-07
-1.16092e-06
-4.32114e-07
-7.76926e-07
-3.35253e-07
-1.08953e-07
-1.39209e-06
-1.51187e-07
-1.32132e-07
-1.39642e-06
-3.1761e-08
-1.82465e-07
-1.21384e-06
8.90481e-08
-1.98185e-07
-1.1783e-06
-2.49075e-07
-8.04942e-07
-3.87841e-07
6.80772e-09
-1.1931e-06
-2.01828e-07
-1.49677e-08
-1.20964e-06
-7.89661e-08
-6.22616e-08
-1.05326e-06
4.74693e-08
-7.648e-08
-1.0278e-06
-1.24328e-07
-6.88839e-07
-4.02558e-07
1.20837e-07
-1.15192e-06
-2.1759e-07
1.0294e-07
-1.17206e-06
-9.28464e-08
6.06607e-08
-1.02655e-06
3.79086e-08
4.78159e-08
-1.00367e-06
7.91212e-09
-6.70612e-07
-4.52947e-07
-7.63583e-07
-2.68907e-07
-7.93644e-07
-1.41754e-07
-6.82742e-07
-8.99921e-09
-6.65837e-07
-3.771e-07
-3.70817e-07
-3.49303e-07
-2.07487e-06
-4.47992e-08
-3.8718e-07
-2.06531e-06
1.7652e-07
-4.77367e-07
-1.75982e-06
3.61106e-07
-5.0478e-07
-1.68513e-06
-5.95577e-07
-1.09883e-06
-4.08879e-07
-2.54922e-08
-2.06286e-06
-7.91163e-08
-5.94355e-08
-2.05389e-06
1.44037e-07
-1.4775e-07
-1.76661e-06
3.31346e-07
-1.74731e-07
-1.69567e-06
-2.66823e-07
-1.12711e-06
-4.99548e-07
1.93959e-07
-1.75071e-06
-1.67846e-07
1.61434e-07
-1.76221e-06
6.182e-08
7.78316e-08
-1.50853e-06
2.48519e-07
5.98725e-08
-1.44914e-06
-4.48416e-08
-9.25516e-07
-5.2683e-07
3.76028e-07
-1.67414e-06
-1.95898e-07
3.46482e-07
-1.68805e-06
3.71742e-08
2.64401e-07
-1.44623e-06
2.36987e-07
2.51505e-07
-1.39516e-06
1.65282e-07
-8.91302e-07
-6.17476e-07
-1.08186e-06
-2.87423e-07
-1.11257e-06
-6.21071e-08
-9.17502e-07
1.50957e-07
-8.85505e-07
-4.33906e-07
-2.56932e-07
-2.28923e-07
-2.91346e-06
1.56454e-07
-2.64393e-07
-2.89283e-06
3.98122e-07
-3.59163e-07
-2.41645e-06
6.07612e-07
-3.87973e-07
-2.30251e-06
-4.81652e-07
-1.43984e-06
-2.91638e-07
1.80578e-07
-2.88889e-06
1.1891e-07
1.40683e-07
-2.86957e-06
3.58763e-07
4.89551e-08
-2.41464e-06
5.76423e-07
4.18344e-10
-2.30178e-06
-9.31817e-08
-1.46225e-06
-3.90971e-07
4.21712e-07
-2.40486e-06
6.24993e-09
3.85571e-07
-2.40438e-06
2.7491e-07
2.98544e-07
-2.02684e-06
4.92464e-07
2.655e-07
-1.93183e-06
1.72243e-07
-1.15654e-06
-4.16883e-07
6.27574e-07
-2.28883e-06
-2.67887e-08
5.98802e-07
-2.29144e-06
2.41998e-07
5.12193e-07
-1.92872e-06
4.65303e-07
4.84638e-07
-1.83765e-06
3.97357e-07
-1.08691e-06
-5.10337e-07
-1.41795e-06
-1.18759e-07
-1.44363e-06
1.50596e-07
-1.1463e-06
3.78494e-07
-1.07853e-06
-4.06319e-07
-2.77678e-07
-2.49393e-07
-4.17136e-06
3.22853e-07
-2.97611e-07
-4.12163e-06
6.81679e-07
-4.48379e-07
-3.39682e-06
9.70119e-07
-4.86605e-07
-3.20795e-06
-6.36424e-07
-1.94455e-06
-3.26125e-07
3.4941e-07
-4.11771e-06
2.75467e-07
2.97921e-07
-4.06683e-06
6.29664e-07
1.52758e-07
-3.37006e-06
9.16847e-07
1.08969e-07
-3.18458e-06
-7.30276e-08
-1.94041e-06
-4.77892e-07
7.05705e-07
-3.38298e-06
1.21379e-07
6.5253e-07
-3.35834e-06
4.90834e-07
5.16751e-07
-2.76035e-06
7.99243e-07
4.7316e-07
-2.60446e-06
3.14762e-07
-1.47777e-06
-5.16665e-07
9.90956e-07
-3.19149e-06
7.42644e-08
9.39655e-07
-3.16954e-06
4.47651e-07
8.18204e-07
-2.60359e-06
7.56155e-07
7.76553e-07
-2.44956e-06
6.31602e-07
-1.34607e-06
-6.65414e-07
-1.91815e-06
-9.89873e-08
-1.91773e-06
2.91111e-07
-1.46542e-06
6.1139e-07
-1.33573e-06
-3.524e-07
-6.66911e-08
-3.04045e-08
-5.95274e-06
7.87134e-07
-7.59908e-08
-5.84681e-06
1.26664e-06
-2.41407e-07
-4.74189e-06
1.62718e-06
-2.84154e-07
-4.42438e-06
-4.53004e-07
-2.55418e-06
-1.1509e-07
8.24872e-07
-5.84446e-06
7.22991e-07
7.62961e-07
-5.74399e-06
1.21184e-06
5.77743e-07
-4.67811e-06
1.57976e-06
5.33501e-07
-4.37016e-06
3.54451e-07
-2.53388e-06
-2.81371e-07
1.30101e-06
-4.7262e-06
5.39621e-07
1.24755e-06
-4.66397e-06
1.02347e-06
1.05819e-06
-3.72466e-06
1.39974e-06
1.01167e-06
-3.45889e-06
8.17815e-07
-1.77348e-06
-3.23799e-07
1.65729e-06
-4.40604e-06
4.96598e-07
1.60915e-06
-4.35153e-06
9.76857e-07
1.43059e-06
-3.45623e-06
1.35667e-06
1.38676e-06
-3.20446e-06
1.20417e-06
-1.56634e-06
-4.9397e-07
-2.52135e-06
3.1337e-07
-2.50358e-06
7.82651e-07
-1.75839e-06
1.17419e-06
-1.55327e-06
-8.72826e-08
1.93462e-09
6.38125e-08
-8.46743e-06
1.1975e-06
-3.14094e-08
-8.26481e-06
1.8722e-06
-2.72655e-07
-6.63778e-06
2.35353e-06
-3.3252e-07
-6.11704e-06
-5.84032e-07
-3.41941e-06
-6.40738e-08
1.24e-06
-8.25599e-06
1.10955e-06
1.14738e-06
-8.09644e-06
1.79489e-06
8.7146e-07
-6.50755e-06
2.28814e-06
8.04635e-07
-6.00052e-06
5.28447e-07
-3.34273e-06
-3.09447e-07
1.90739e-06
-6.6197e-06
8.33701e-07
1.82989e-06
-6.48962e-06
1.51533e-06
1.54935e-06
-5.08416e-06
2.02004e-06
1.48175e-06
-4.64069e-06
1.18673e-06
-2.1928e-06
-3.69484e-07
2.38378e-06
-6.09864e-06
7.66475e-07
2.31758e-06
-5.97515e-06
1.44759e-06
2.04842e-06
-4.63639e-06
1.95999e-06
1.98915e-06
-4.22425e-06
1.71039e-06
-1.85466e-06
-6.21867e-07
-3.38157e-06
4.92591e-07
-3.30744e-06
1.15349e-06
-2.17395e-06
1.68145e-06
-1.83908e-06
2.82123e-07
6.26799e-07
6.76474e-07
-1.23178e-05
2.30996e-06
5.91648e-07
-1.18749e-05
3.24062e-06
2.57419e-07
-9.40859e-06
3.83268e-06
1.45855e-07
-8.49504e-06
-2.10941e-07
-4.49236e-06
5.31968e-07
2.35811e-06
-1.18661e-05
2.21555e-06
2.28356e-06
-1.14719e-05
3.15887e-06
1.9033e-06
-9.09673e-06
3.75937e-06
1.78204e-06
-8.23721e-06
1.38131e-06
-4.33437e-06
1.83876e-07
3.28746e-06
-9.3812e-06
1.83793e-06
3.21803e-06
-9.07812e-06
2.77675e-06
2.83275e-06
-6.95243e-06
3.4036e-06
2.70823e-06
-6.19375e-06
2.28598e-06
-2.58953e-06
5.28609e-08
3.88788e-06
-8.46128e-06
1.71312e-06
3.79814e-06
-8.21552e-06
2.65103e-06
3.44862e-06
-6.19019e-06
3.28834e-06
3.33533e-06
-5.48869e-06
2.94373e-06
-2.02333e-06
-2.66051e-07
-4.4447e-06
1.32163e-06
-4.28853e-06
2.23217e-06
-2.56647e-06
2.89684e-06
-2.00279e-06
1.09347e-06
9.69145e-07
1.01798e-06
-1.7645e-05
3.28375e-06
8.68481e-07
-1.68276e-05
4.58373e-06
4.20844e-07
-1.32702e-05
5.35676e-06
2.77608e-07
-1.17652e-05
-2.57063e-07
-5.99779e-06
8.21838e-07
3.32721e-06
-1.68207e-05
3.12718e-06
3.18456e-06
-1.60934e-05
4.46289e-06
2.66554e-06
-1.26772e-05
5.27198e-06
2.50807e-06
-1.12769e-05
1.92915e-06
-5.69194e-06
3.60904e-07
4.6258e-06
-1.32379e-05
2.61031e-06
4.51332e-06
-1.26563e-05
3.91933e-06
3.96742e-06
-9.56341e-06
4.74728e-06
3.80365e-06
-8.31736e-06
3.18986e-06
-3.14548e-06
2.0968e-07
5.40111e-06
-1.17249e-05
2.45078e-06
5.30963e-06
-1.1253e-05
3.75423e-06
4.78721e-06
-8.3135e-06
4.59887e-06
4.64056e-06
-7.1703e-06
4.06734e-06
-2.22206e-06
-3.06377e-07
-5.94494e-06
1.87719e-06
-5.63694e-06
3.14277e-06
-3.11924e-06
4.02607e-06
-2.19823e-06
2.22636e-06
2.40317e-06
2.4946e-06
-2.61054e-05
5.99973e-06
2.27134e-06
-2.45699e-05
7.90538e-06
1.67211e-06
-1.91185e-05
8.76932e-06
1.48265e-06
-1.64533e-05
8.11143e-07
-7.92411e-06
2.17912e-06
6.08993e-06
-2.45616e-05
5.708e-06
5.79863e-06
-2.31497e-05
7.58733e-06
5.04462e-06
-1.79292e-05
8.50236e-06
4.7543e-06
-1.54637e-05
3.89846e-06
-7.23306e-06
1.58697e-06
7.98407e-06
-1.90811e-05
4.95581e-06
7.67144e-06
-1.78981e-05
6.80935e-06
6.89016e-06
-1.32626e-05
7.77624e-06
6.56005e-06
-1.10901e-05
5.62491e-06
-3.5183e-06
1.40312e-06
8.83296e-06
-1.6411e-05
4.66488e-06
8.58387e-06
-1.54273e-05
6.4778e-06
7.84949e-06
-1.10858e-05
7.4604e-06
7.53496e-06
-9.12786e-06
6.66466e-06
-1.97098e-06
7.09056e-07
-7.85445e-06
3.80451e-06
-7.16355e-06
5.54192e-06
-3.48473e-06
6.59124e-06
-1.93911e-06
4.3912e-06
3.51297e-06
3.58219e-06
-3.78702e-05
8.28846e-06
3.21811e-06
-3.50361e-05
1.09488e-05
2.4075e-06
-2.72591e-05
1.20569e-05
2.13803e-06
-2.28778e-05
1.15127e-06
-1.05838e-05
3.14809e-06
8.35659e-06
-3.5028e-05
7.86049e-06
7.92911e-06
-3.25732e-05
1.05511e-05
6.96745e-06
-2.51798e-05
1.17381e-05
6.56287e-06
-2.10756e-05
5.39399e-06
-9.30024e-06
2.34458e-06
1.10074e-05
-2.7219e-05
6.90184e-06
1.06175e-05
-2.51439e-05
9.48655e-06
9.54787e-06
-1.84278e-05
1.07074e-05
9.09667e-06
-1.48448e-05
7.79336e-06
-3.99965e-06
2.07144e-06
1.2105e-05
-2.28305e-05
6.49405e-06
1.18005e-05
-2.1033e-05
9.03319e-06
1.07632e-05
-1.48404e-05
1.02904e-05
1.03478e-05
-1.16362e-05
9.14382e-06
-1.49756e-06
1.07364e-06
-1.05047e-05
5.32304e-06
-9.22208e-06
7.73001e-06
-3.96227e-06
9.08776e-06
-1.46223e-06
7.5047e-06
8.17826e-06
8.30507e-06
-5.91951e-05
1.58385e-05
7.54119e-06
-5.28181e-05
1.95364e-05
6.0616e-06
-4.02269e-05
2.01077e-05
5.29133e-06
-3.20361e-05
3.769e-06
-1.3652e-05
7.41772e-06
1.59666e-05
-5.28233e-05
1.48838e-05
1.5017e-05
-4.75151e-05
1.855e-05
1.30387e-05
-3.58233e-05
1.93056e-05
1.20217e-05
-2.85616e-05
9.9444e-06
-1.11465e-05
5.94185e-06
1.96537e-05
-4.01901e-05
1.29089e-05
1.86794e-05
-3.57735e-05
1.65762e-05
1.66986e-05
-2.5755e-05
1.75779e-05
1.55823e-05
-1.94071e-05
1.32538e-05
-3.51378e-06
5.17084e-06
2.02105e-05
-3.19905e-05
1.18884e-05
1.94325e-05
-2.85036e-05
1.54563e-05
1.76919e-05
-1.94017e-05
1.65777e-05
1.66956e-05
-1.38709e-05
1.46057e-05
6.53493e-07
3.63027e-06
-1.35576e-05
9.80699e-06
-1.10384e-05
1.31283e-05
-3.46303e-06
1.44904e-05
7.03586e-07
1.33316e-05
1.42541e-05
1.43531e-05
-9.53758e-05
2.51289e-05
1.21676e-05
-7.93388e-05
2.96414e-05
9.7038e-06
-5.8693e-05
2.84122e-05
8.45255e-06
-4.369e-05
5.75085e-06
-1.72085e-05
1.20701e-05
2.52203e-05
-7.93319e-05
2.29993e-05
2.30946e-05
-6.93714e-05
2.74149e-05
1.99371e-05
-5.04721e-05
2.71302e-05
1.777e-05
-3.75944e-05
1.45041e-05
-1.29258e-05
9.61653e-06
2.97155e-05
-5.864e-05
1.98579e-05
2.74961e-05
-5.04165e-05
2.42618e-05
2.43323e-05
-3.45542e-05
2.46267e-05
2.22945e-05
-2.42966e-05
1.88696e-05
-1.86573e-06
8.36409e-06
2.84786e-05
-4.36409e-05
1.769e-05
2.72066e-05
-3.75401e-05
2.22131e-05
2.46961e-05
-2.42886e-05
2.30364e-05
2.31111e-05
-1.55109e-05
2.02681e-05
4.63779e-06
5.66096e-06
-1.71058e-05
1.44212e-05
-1.28114e-05
1.87892e-05
-1.8084e-06
2.01952e-05
4.69143e-06
2.22902e-05
2.96637e-05
2.98984e-05
-0.000162991
5.31156e-05
2.80668e-05
-0.000135059
6.0455e-05
2.26023e-05
-9.37291e-05
5.04427e-05
1.76868e-05
-5.6015e-05
1.27442e-05
-1.82054e-05
2.78111e-05
5.33588e-05
-0.000135033
4.87819e-05
4.90533e-05
-0.000111329
5.35354e-05
3.90422e-05
-7.16656e-05
4.6371e-05
3.29831e-05
-4.57263e-05
2.58704e-05
-1.13599e-05
2.23665e-05
6.06538e-05
-9.3614e-05
3.87956e-05
5.3749e-05
-7.15414e-05
4.39358e-05
4.41098e-05
-4.47623e-05
4.09456e-05
3.86402e-05
-2.69636e-05
3.14663e-05
4.5302e-06
1.74808e-05
5.06147e-05
-5.59375e-05
3.27754e-05
4.65696e-05
-4.56554e-05
3.84445e-05
4.11169e-05
-2.69648e-05
3.70337e-05
3.72228e-05
-1.26827e-05
3.15813e-05
1.47201e-05
1.25316e-05
-1.80666e-05
2.56583e-05
-1.12069e-05
3.1273e-05
4.59578e-06
3.13969e-05
1.48003e-05
3.82915e-05
3.83089e-05
3.84056e-05
-0.000248507
6.44069e-05
3.47512e-05
-0.000200406
7.83972e-05
2.96345e-05
-0.000143374
7.16323e-05
2.56092e-05
-8.10606e-05
1.81786e-05
-1.67458e-05
3.46409e-05
6.45032e-05
-0.000200363
5.96901e-05
5.98009e-05
-0.000161428
7.39174e-05
5.4462e-05
-0.00011072
6.31971e-05
4.47643e-05
-5.41612e-05
3.52572e-05
-7.07288e-06
2.95277e-05
7.85059e-05
-0.000143253
5.43505e-05
7.40428e-05
-0.000110606
6.13619e-05
6.14673e-05
-5.8779e-05
5.4923e-05
5.25479e-05
-2.83082e-05
4.19694e-05
1.41741e-05
2.54912e-05
7.16957e-05
-8.09167e-05
4.46702e-05
6.32924e-05
-5.4084e-05
5.24836e-05
5.49997e-05
-2.83107e-05
4.93028e-05
4.93957e-05
-6.34961e-06
4.17914e-05
2.86348e-05
1.80655e-05
-1.6601e-05
3.51546e-05
-6.92036e-06
4.18724e-05
1.42335e-05
4.16963e-05
2.87241e-05
5.82895e-05
6.60604e-05
6.62137e-05
-0.000388778
9.97912e-05
5.75396e-05
-0.000295923
0.00011604
4.83097e-05
-0.000213686
0.000107777
3.98324e-05
-0.000118556
2.86619e-05
-1.43855e-05
5.73154e-05
0.000100005
-0.000295957
8.95409e-05
8.97974e-05
-0.000225911
0.000106093
7.98514e-05
-0.000158814
9.80002e-05
7.16163e-05
-7.78521e-05
5.21751e-05
3.10369e-06
4.81092e-05
0.000116257
-0.00021361
7.96251e-05
0.000106359
-0.000158684
9.77962e-05
9.79972e-05
-9.5096e-05
8.60719e-05
8.00358e-05
-2.50034e-05
6.07693e-05
3.2694e-05
3.96093e-05
0.00010802
-0.000118471
7.13233e-05
9.82919e-05
-7.77309e-05
7.97362e-05
8.63129e-05
-2.50393e-05
7.23106e-05
7.26179e-05
8.49383e-06
5.77714e-05
5.13393e-05
2.84035e-05
-1.42306e-05
5.18877e-05
3.31101e-06
6.04744e-05
3.27696e-05
5.74741e-05
5.1484e-05
8.24283e-05
9.61053e-05
9.61934e-05
-0.0005917
0.000141046
8.08646e-05
-0.000427205
0.000158123
6.51786e-05
-0.000303803
0.000137189
5.08445e-05
-0.000156523
3.45089e-05
-1.41968e-05
8.07844e-05
0.000141141
-0.000427251
0.000120487
0.000120577
-0.000305326
0.000138666
0.000103093
-0.000214908
0.000122548
8.41259e-05
-9.50148e-05
6.21726e-05
1.39691e-05
6.51078e-05
0.000158215
-0.000303732
0.000103013
0.000138755
-0.000214766
0.000120889
0.000120961
-0.00013084
0.000106518
9.86807e-05
-2.51883e-05
7.78443e-05
4.71592e-05
5.07778e-05
0.00013728
-0.000156458
8.40459e-05
0.00012265
-9.48947e-05
9.85937e-05
0.000106607
-2.52332e-05
8.92591e-05
8.93483e-05
2.71607e-05
7.78226e-05
7.37772e-05
3.44128e-05
-1.40383e-05
6.20613e-05
1.4191e-05
7.77413e-05
4.72221e-05
7.77386e-05
7.38908e-05
0.000118146
0.000202248
0.000202593
-0.00100847
0.000273311
0.000155586
-0.00065998
0.000280447
0.00012352
-0.000443059
0.000225094
8.77068e-05
-0.000197435
6.0122e-05
-4.18838e-06
0.000155216
0.000273699
-0.000660021
0.000217895
0.000218353
-0.000430772
0.000233336
0.000181951
-0.000288781
0.000192208
0.00013622
-0.0001024
0.000106093
3.35342e-05
0.000123173
0.000280835
-0.000442976
0.000181545
0.000233795
-0.00028858
0.000199589
0.000199992
-0.000166925
0.000171031
0.000156548
-1.69572e-05
0.000127611
7.97786e-05
8.73295e-05
0.0002255
-0.000197364
0.000135777
0.000192712
-0.000102258
0.00015611
0.000171455
-1.70287e-05
0.000141741
0.000142204
5.58727e-05
0.000121492
0.000122486
5.9708e-05
-3.96379e-06
0.00010567
3.38101e-05
0.000127183
7.98742e-05
0.000121053
0.000122639
0.000183343
0.000351701
0.000351794
-0.00172552
0.000436594
0.000255671
-0.00100676
0.00041601
0.00018911
-0.000622039
0.000308219
0.000128352
-0.000228378
8.84134e-05
1.18392e-05
0.000255593
0.000436694
-0.00100677
0.000326791
0.00032688
-0.000573179
0.000330163
0.000262545
-0.000365587
0.000255141
0.000184583
-8.361e-05
0.000143957
7.17331e-05
0.000189033
0.000416111
-0.000621928
0.000262446
0.000330243
-0.000365357
0.000276143
0.000276232
-0.000194309
0.000225664
0.000208906
9.19927e-06
0.000165961
0.00013536
0.00012828
0.000308329
-0.000228302
0.000184498
0.000255248
-8.34815e-05
0.00020882
0.000225736
9.14611e-06
0.000178751
0.000178831
0.000116017
0.000149655
0.000196384
8.83831e-05
1.20293e-05
0.000143881
7.20405e-05
0.000165892
0.000135422
0.000149585
0.000196511
0.00026853
0.0008762
0.000876605
-0.0034961
0.000947327
0.000535645
-0.0016242
0.000794687
0.000376646
-0.000858897
0.000548403
0.000226989
-0.000220736
0.000154144
8.57093e-05
0.00053516
0.000947825
-0.0016242
0.000639575
0.000640242
-0.000782191
0.000588596
0.000485723
-0.000423686
0.000427075
0.000314833
-9.93259e-06
0.000232819
0.000173277
0.000376173
0.00079523
-0.000858775
0.000485142
0.000589275
-0.00042336
0.000475492
0.000476087
-0.000175022
0.000365847
0.000336005
9.76727e-05
0.000256494
0.000252568
0.000226495
0.000549062
-0.000220696
0.000314202
0.000427917
-9.82979e-06
0.000335381
0.000366482
9.75711e-05
0.000269739
0.000270452
0.000247211
0.000222279
0.000327967
0.000153763
8.58773e-05
0.000232261
0.000173798
0.000255885
0.000252675
0.000221611
0.000328161
0.000403354
0.0017489
0.00174902
-0.00182888
-0.00170625
-0.00170611
-0.00176493
0.00164938
0.000975887
-0.00250264
0.00123016
0.000611846
-0.00106546
0.000774271
0.000335852
-0.000112182
0.000209395
0.000246234
0.000975826
0.00164949
-0.0025026
0.00098117
0.000981207
-0.000792856
0.00081409
0.000704797
-0.000349557
0.000551646
0.000407904
0.00018046
0.000289923
0.000358715
0.000611745
0.00123021
-0.00106524
0.00070466
0.000814065
-0.000349133
0.000646907
0.000646954
-5.94267e-05
0.000463266
0.000412482
0.000276735
0.000305055
0.000437569
0.000335857
0.000774402
-0.000112226
0.000407846
0.000551705
0.000180541
0.00041248
0.000463297
0.000276594
0.000316641
0.000316667
0.000438866
0.000253518
0.000505609
0.000209369
0.000246342
0.000289932
0.000359129
0.000305064
0.000437605
0.000253491
0.000505776
0.000570595
0.000652254
0.000652621
-0.00314609
0.00371945
0.00200091
-0.00142268
-0.000728061
-0.00112728
-0.000714666
-0.000900051
-0.000992875
-0.00124655
-0.00112527
0.00223158
0.00107644
-0.000674761
0.00126949
0.000527295
0.000307124
0.000292819
0.000591501
0.00200049
0.00371996
-0.00142244
-0.00112746
-0.00072785
-0.000714619
-0.000900235
-0.000993144
-0.00124664
-0.0011255
0.0019124
0.00191337
-0.000617231
0.00137863
0.00120913
5.15296e-05
0.000857488
0.000631851
0.000597049
0.000404518
0.000672986
0.00107589
0.00223217
-0.000674383
0.00120834
0.00137951
5.22803e-05
0.000990409
0.000991271
0.000376366
0.000679654
0.000593484
0.000625857
0.000412068
0.000725633
0.000526884
0.00127032
0.000306896
0.000631025
0.000858853
0.000597054
0.00059263
0.000680598
0.000625662
0.000439788
0.000440857
0.000744335
0.000340884
0.000757353
0.000292187
0.000591582
0.000403705
0.000673512
0.000411139
0.00072572
0.000339879
0.000757565
0.000788463
0.00139815
0.000510243
0.000510351
-0.00242185
-0.000934846
0.00254064
0.000939455
-0.000994005
-0.000919676
-0.000972064
-0.000291413
-0.000318269
-0.00025802
-0.000223598
0.00324239
0.00170009
0.00145377
-0.00165604
-0.00156674
-0.00209899
-0.00177179
0.00164513
0.000680761
0.00121652
0.000353418
0.00120242
-0.000934849
0.000938873
0.00253998
-0.000993918
-0.000919778
-0.000971963
-0.000291373
-0.000318101
-0.000257902
-0.000223454
0.00286608
0.00286591
0.00183608
-0.00101685
-0.000867423
-0.00143345
-0.000775464
-0.00101649
-0.000867404
-0.0014329
-0.000775324
0.00156119
0.00162153
0.00143498
0.000932798
0.000682277
0.00122393
0.000432467
0.00114156
0.00169955
0.00324225
0.00145366
-0.00165563
-0.00156656
-0.00209874
-0.00177197
0.00162119
0.00156091
0.00143564
0.00116571
0.00116581
0.00128757
0.000733707
0.000590155
0.00114998
0.000416462
0.0011065
0.000680912
0.00164504
0.00121646
0.000682267
0.000932607
0.001224
0.000590244
0.000733657
0.00114983
0.000415734
0.000415641
0.00109336
0.000326472
0.00103851
0.000353531
0.00120206
0.000432449
0.00114194
0.000416506
0.00110642
0.000326538
0.0010386
0.0010154
0.00506323
3.32278e-05
3.29658e-05
-0.00513176
-0.00160134
0.000144315
0.000316124
-0.000414969
0.00155338
0.00346238
0.0017394
0.00367549
-0.00241709
-0.00197077
-0.00168639
-0.00137163
0.00181742
0.000738943
0.00211356
0.000334576
0.00182815
-0.00160187
0.000144698
0.000315046
-0.000415503
0.00155368
0.00308264
0.00308309
0.00388264
-0.00143961
-0.00111566
-0.000776545
-0.0007732
-0.00143999
-0.0011161
-0.000776691
-0.000774497
0.00178902
0.00171735
0.00275065
0.00109656
0.000763148
0.00189218
0.000450764
0.00162447
0.00173848
0.00346332
0.00367505
-0.00241663
-0.00197057
-0.00168519
-0.00137119
0.00171605
0.00179009
0.00275108
0.00126895
0.00127036
0.00218166
0.00082416
0.000668242
0.00168967
0.000435128
0.00147796
0.000738928
0.00181826
0.00211364
0.000762246
0.00109837
0.0018924
0.000667295
0.000825417
0.00168973
0.00048031
0.00048165
0.00146694
0.000361524
0.00131975
0.000333528
0.00182779
0.000449644
0.00162441
0.000433788
0.00147791
0.000360219
0.00131966
0.00121681
0.00527685
2.02849e-05
1.9975e-05
-0.00531979
-9.33678e-05
0.00176198
-7.68988e-05
-0.00183914
0.000236192
0.00159071
0.000785439
0.00387435
-0.00132563
-0.000885123
-0.000196572
-0.000167132
0.000842742
0.000444871
0.00240627
0.000152443
0.00199668
-9.37356e-05
0.00176121
-7.75229e-05
-0.00183906
0.00023666
0.000703785
0.000702835
0.00331747
1.63677e-05
-0.000442434
0.00035358
-0.000348983
1.73592e-05
-0.00044222
0.000353817
-0.000348936
0.000584733
0.000704839
0.0029503
0.00043182
0.000368471
0.00212149
0.000216282
0.00176085
0.000783954
0.00158995
0.00387291
-0.00132438
-0.00088495
-0.000196434
-0.000166995
0.000704457
0.000583538
0.00294987
0.000545439
0.00054521
0.0025003
0.000403131
0.000304927
0.00189552
0.000225493
0.00163293
0.000445128
0.000841946
0.0024062
0.000368423
0.000431175
0.00212147
0.000305029
0.000402813
0.00189552
0.000226395
0.00022611
0.00162439
0.000201792
0.00143319
0.000152387
0.00199595
0.000216468
0.00176024
0.000225791
0.00163264
0.000202079
0.00143302
0.001308
8.95311e-06
8.85886e-06
0.00586156
0.00584067
0.00584065
0.00575174
-0.00561979
-0.00597496
-0.0058665
-0.0058665
0.00035055
0.0027209
-0.000583615
-0.000379533
-0.00211877
0.00107178
-5.44124e-05
0.00314951
0.000182315
3.0168e-05
-0.000386933
-0.00012876
0.000507911
0.000392171
0.00256656
-5.20941e-05
0.00187443
0.000350289
0.00272176
-0.000378838
-0.000583055
-0.00211905
0.00027918
0.000279484
0.000566282
0.00071676
0.00071668
0.000693493
0.000244961
-9.07645e-05
-0.000248121
0.000127966
0.000244575
-9.15808e-05
-0.000248463
0.000127016
0.000290732
0.000132799
0.00275154
0.000324838
0.000307876
0.00217168
6.55629e-05
0.00170799
-5.61263e-05
0.0010727
0.00314884
0.000181799
2.93921e-05
-0.000387371
-0.000129257
0.000131664
0.000291768
0.0027498
0.00021677
0.000218384
0.00232961
0.00028521
0.000222012
0.00191295
0.000109865
0.00159021
0.000391261
0.000508998
0.00256686
0.0003068
0.000326207
0.00217149
0.000220948
0.000286409
0.00191335
0.000200768
0.000202071
0.00166451
0.000161227
0.00143971
-5.30151e-05
0.00187386
6.44034e-05
0.00170696
0.000108492
0.00158996
0.000159993
0.00143923
0.00128834
0.0058882
-7.38727e-06
-7.28714e-06
-0.00586972
-0.000452911
0.000638868
0.000156839
-0.000617046
0.000276905
-0.000214726
-0.000153195
0.0032369
-0.000145393
-2.40181e-05
0.000198832
0.000239289
-0.00013901
3.04372e-06
0.00247087
-8.61565e-05
0.0017532
-0.000453161
0.000638793
0.000156774
-0.000616857
0.000277011
-0.000339596
-0.000339803
0.000171125
0.000170873
0.000903683
-0.0004717
-0.000244246
0.00276885
-3.97123e-05
0.000188491
0.000100264
0.000296392
-0.000233591
-0.000127636
0.00206425
-7.70462e-05
0.0015984
-0.000151671
-0.000216319
0.00323715
-0.00014521
-2.41906e-05
0.000198751
0.00023934
-0.00024349
-0.000472567
0.00276752
-3.94925e-05
0.000188911
0.0001005
0.000296741
-0.000199483
-0.000200024
0.00224138
-8.13065e-05
-0.000143916
0.00181105
-5.2774e-05
0.00147119
2.90029e-06
-0.00014001
0.00247062
-0.000127666
-0.0002345
0.00206399
-0.000143559
-8.20696e-05
0.00181128
-9.14398e-05
-9.20168e-05
0.00156049
1.14404e-05
0.00133035
-8.55296e-05
0.00175296
-7.64418e-05
0.00159744
-5.21894e-05
0.00147108
1.18408e-05
0.00132999
0.00120264
0.00590695
1.42755e-05
1.44085e-05
-0.00593339
0.000171775
0.000780335
-4.90074e-05
-0.000854118
-6.54682e-05
-0.00108215
-0.000725391
0.00231703
0.000385259
0.000461948
0.000962059
0.000906726
-0.000481169
-0.000113844
0.00197896
-0.000203859
0.00142207
0.000171777
0.000780215
-4.9436e-05
-0.0008539
-6.55117e-05
-0.00146153
-0.00145963
0.00224114
0.000510966
0.000335421
0.000813021
0.000475913
0.000512556
0.000336468
0.000813874
0.000476564
-0.00114517
-0.000831924
-0.000831998
-0.000785668
-0.000837443
-0.000706677
0.00212605
-0.00037094
-0.000233515
0.00171742
-0.000170305
0.00133379
-0.000725678
-0.00108211
0.00231739
0.000385234
0.000461444
0.000962107
0.000906726
-0.000706979
-0.000836548
0.00212574
-0.000473472
-0.00047298
0.00177418
-0.000192262
-0.000224951
0.00152128
-0.000128352
0.00123293
-0.000114695
-0.000480881
0.00197845
-0.000234369
-0.000369832
0.00171695
-0.000225795
-0.000191586
0.00152132
-0.000121066
-0.000120175
0.00135099
-2.35804e-05
0.00115373
-0.000204162
0.001422
-0.000170762
0.00133308
-0.000129129
0.00123275
-2.45748e-05
0.00115341
0.00104224
-0.00245616
-0.00245644
-0.0167453
0.00566318
0.00543907
0.00543901
0.00513636
-0.00541528
-0.0035073
-0.0045461
0.00304392
0.00243979
0.0025705
0.00195249
0.00176575
0.000464666
0.000599374
0.000575788
-0.00264
-0.00126757
0.000792177
-0.00137802
-0.000452377
0.00115633
-0.000289699
0.000946613
-0.00350602
-0.00541525
-0.00454489
0.00304402
0.00244007
0.00257056
0.0019526
0.00176508
0.000598973
0.000464163
0.000575435
-0.00278066
-0.0027814
0.000789881
-0.00176528
-0.00135049
0.00119359
-0.000986632
-0.000640977
0.00112737
-0.00032383
0.000973148
-0.0012667
-0.00264001
0.000792278
-0.00134983
-0.0017659
0.00119337
-0.000994391
-0.000994974
0.00106323
-0.000602713
-0.00057592
0.00106454
-0.00028714
0.000910099
-0.000451826
-0.00137857
0.00115617
-0.000640456
-0.000987371
0.00112705
-0.000575406
-0.000603319
0.00106461
-0.000404031
-0.000404633
0.00100832
-0.000173954
0.000905102
-0.000289105
0.00094649
-0.000323228
0.000972529
-0.000286521
0.00090995
-0.000173292
0.000904774
0.000814127
-0.0050626
-0.00506285
-0.028549
0.0118805
0.00977196
0.00977182
0.00729757
-0.00337586
-0.00238918
-0.00386785
-0.00181991
-0.000938991
0.000158369
-0.00100537
-0.000314561
0.000653863
-0.000268527
0.000622867
-0.00238902
-0.00337554
-0.00386747
-0.00207011
-0.00206995
0.000151748
-0.00136912
-0.00103626
0.000589865
-0.000773628
-0.0004734
0.000690717
-0.000278722
0.000689044
-0.000938941
-0.00181959
0.000158331
-0.00103632
-0.0013689
0.000589701
-0.000812869
-0.000812738
0.000616249
-0.000474599
-0.000465489
0.00071836
-0.000249612
0.000653945
-0.00031465
-0.00100524
0.00065376
-0.000473724
-0.000773245
0.000690467
-0.000465869
-0.000474362
0.000718382
-0.000325516
-0.000325084
0.000727565
-0.000136982
0.000690276
-0.000268478
0.000622659
-0.000278841
0.000688635
-0.000249811
0.00065382
-0.000137327
0.000690046
0.000624268
-0.00454251
-0.00454294
-0.0194471
-0.00314348
-0.00222091
-0.00304931
-0.00195508
-0.000906076
-0.000138575
-0.00117034
-0.000395198
0.000255303
-0.000243682
0.000384931
-0.00222027
-0.00314392
-0.00304919
-0.00203075
-0.00203139
-0.000227301
-0.00144499
-0.00104712
0.000145154
-0.00091934
-0.000558435
0.0003283
-0.000294067
0.000464501
-0.000905527
-0.00195557
-0.000138601
-0.00104661
-0.00144561
0.000145004
-0.000880838
-0.000881337
0.000284697
-0.000601683
-0.000551869
0.000432639
-0.00028587
0.000452766
-0.000394763
-0.00117087
0.00025519
-0.000557969
-0.000919995
0.000328056
-0.000551384
-0.000602226
0.000432687
-0.000427309
-0.000427863
0.000479484
-0.000206408
0.000509018
-0.000243197
0.000384776
-0.000293565
0.000464137
-0.000285358
0.000452678
-0.000205868
0.000508809
0.000472805
-0.00352722
-0.00352735
-0.0123344
-0.00243638
-0.00178625
-0.00237224
-0.00159071
-0.000714888
-0.000282419
-0.000999358
-0.000320606
-2.86398e-05
-0.000231011
0.000184766
-0.00178618
-0.00243645
-0.00237216
-0.00167868
-0.00167872
-0.000442338
-0.00123456
-0.00092388
-8.99676e-05
-0.000799856
-0.000474134
4.71202e-05
-0.000280094
0.000264353
-0.000714719
-0.00159081
-0.000282445
-0.000923819
-0.00123461
-8.99984e-05
-0.000792262
-0.000792345
2.16043e-05
-0.000532526
-0.000488302
0.000187071
-0.000278248
0.00027367
-0.000320483
-0.000999496
-2.87338e-05
-0.000474149
-0.000799895
4.70035e-05
-0.000488307
-0.000532569
0.00018707
-0.000383081
-0.000383053
0.00026901
-0.000197688
0.000335151