/*--------------------------------*- C++ -*----------------------------------*\
| =========                 |                                                 |
| \\      /  F ield         | OpenFOAM: The Open Source CFD Toolbox           |
|  \\    /   O peration     | Version:  5.x                                   |
|   \\  /    A nd           | Web:      www.OpenFOAM.org                      |
|    \\/     M anipulation  |                                                 |
\*---------------------------------------------------------------------------*/
FoamFile
{
    version     2.0;
    format      ascii;
    class       volScalarField;
    location    "0.099";
    object      phiIB;
}
// * * * * * * * * * * * * * * * * * * * * * * * * * * * * * * * * * * * * * //

dimensions      [0 2 -1 0 0 0 0];

internalField   nonuniform List<scalar> 
1553
(
-0.000439224
-0.000439255
-0.000439192
-0.000439227
-0.000439248
-0.000439254
-0.000439294
-0.000439226
-0.000439264
-0.000439275
-0.000439196
-0.00043923
-0.000439149
-0.000439181
-0.000439171
-0.000439229
-0.000439267
-0.00043918
-0.000439212
-0.000439192
-0.000439257
-0.000439285
-0.000439176
-0.000439199
-0.000439146
-0.000866427
-0.000866384
-0.000866348
-0.000866328
-0.000866287
-0.000866386
-0.000866342
-0.000866301
-0.000866278
-0.000866233
-0.000866352
-0.000866304
-0.000866256
-0.00086623
-0.000866177
-0.000866336
-0.000866283
-0.000866231
-0.000866201
-0.000866144
-0.000866298
-0.000866243
-0.000866184
-0.000866149
-0.000866088
-0.00206467
-0.0020646
-0.0020645
-0.00206448
-0.00206449
-0.0020646
-0.00206453
-0.00206442
-0.00206439
-0.00206439
-0.0020645
-0.00206442
-0.00206428
-0.00206424
-0.00206421
-0.0020645
-0.0020644
-0.00206425
-0.0020642
-0.00206415
-0.00206452
-0.00206441
-0.00206422
-0.00206416
-0.00206407
-0.00264597
-0.00264586
-0.00264578
-0.00264576
-0.00264578
-0.00264587
-0.00264575
-0.00264565
-0.00264562
-0.00264563
-0.00264579
-0.00264566
-0.00264553
-0.00264548
-0.00264547
-0.00264578
-0.00264564
-0.00264549
-0.00264542
-0.00264539
-0.00264582
-0.00264566
-0.00264549
-0.00264541
-0.00264533
-0.00378179
-0.00378165
-0.00378154
-0.00378156
-0.00378167
-0.00378166
-0.00378151
-0.00378136
-0.00378137
-0.00378146
-0.00378155
-0.00378137
-0.00378117
-0.00378116
-0.00378121
-0.00378158
-0.00378139
-0.00378117
-0.00378113
-0.00378114
-0.00378171
-0.00378149
-0.00378123
-0.00378116
-0.00378112
-0.00443013
-0.00442996
-0.00442994
-0.00443001
-0.00443024
-0.00442997
-0.00442977
-0.00442973
-0.00442979
-0.00443
-0.00442996
-0.00442976
-0.00442958
-0.00442959
-0.00442975
-0.00443004
-0.00442982
-0.0044296
-0.0044296
-0.00442974
-0.00443029
-0.00443004
-0.00442977
-0.00442976
-0.00442983
-0.00550296
-0.00550276
-0.00550276
-0.0055029
-0.00550331
-0.00550277
-0.00550252
-0.00550249
-0.00550261
-0.005503
-0.00550278
-0.00550251
-0.0055024
-0.00550246
-0.00550273
-0.00550294
-0.00550264
-0.00550247
-0.00550251
-0.00550276
-0.00550336
-0.00550304
-0.00550275
-0.00550278
-0.00550295
-0.00620394
-0.00620373
-0.00620385
-0.00620412
-0.00620484
-0.00620374
-0.00620344
-0.00620354
-0.00620378
-0.00620444
-0.00620388
-0.00620356
-0.00620357
-0.00620377
-0.00620436
-0.00620417
-0.00620381
-0.00620378
-0.00620394
-0.00620446
-0.00620491
-0.0062045
-0.00620439
-0.00620448
-0.00620487
-0.00722152
-0.00722135
-0.00722155
-0.007222
-0.00722306
-0.00722138
-0.00722105
-0.00722122
-0.0072216
-0.00722259
-0.0072216
-0.00722124
-0.00722129
-0.00722163
-0.00722251
-0.00722206
-0.00722164
-0.00722164
-0.00722193
-0.00722273
-0.00722314
-0.00722265
-0.00722255
-0.00722275
-0.00722338
-0.0079613
-0.00796123
-0.00796172
-0.00796247
-0.00796429
-0.00796124
-0.00796113
-0.00796151
-0.00796211
-0.00796376
-0.00796179
-0.00796153
-0.0079618
-0.00796236
-0.00796385
-0.00796257
-0.00796213
-0.00796236
-0.00796288
-0.00796428
-0.0079644
-0.00796383
-0.0079639
-0.00796431
-0.00796546
-0.00892933
-0.00892933
-0.00893001
-0.00893109
-0.00893361
-0.00892934
-0.00892931
-0.00892989
-0.00893082
-0.0089331
-0.00893007
-0.00892991
-0.00893032
-0.00893118
-0.00893327
-0.00893118
-0.00893085
-0.00893119
-0.00893196
-0.00893392
-0.00893373
-0.00893318
-0.00893332
-0.00893396
-0.00893561
-0.00969188
-0.00969189
-0.00969313
-0.0096947
-0.00969861
-0.0096919
-0.00969189
-0.00969309
-0.00969458
-0.00969834
-0.00969319
-0.00969314
-0.00969404
-0.00969538
-0.00969879
-0.00969478
-0.00969466
-0.0096954
-0.00969656
-0.00969974
-0.00969877
-0.00969846
-0.00969886
-0.0096998
-0.00970246
-0.0106111
-0.0106113
-0.0106128
-0.0106147
-0.0106198
-0.0106113
-0.0106115
-0.0106129
-0.0106147
-0.0106195
-0.0106128
-0.0106129
-0.010614
-0.0106156
-0.01062
-0.0106148
-0.0106148
-0.0106156
-0.010617
-0.0106212
-0.0106199
-0.0106196
-0.0106201
-0.0106212
-0.0106247
-0.0113775
-0.011377
-0.0113785
-0.0113802
-0.0113871
-0.0113771
-0.0113767
-0.0113783
-0.0113798
-0.0113865
-0.0113786
-0.0113783
-0.0113795
-0.011381
-0.0113872
-0.0113803
-0.0113799
-0.011381
-0.0113823
-0.0113882
-0.0113873
-0.0113867
-0.0113873
-0.0113882
-0.0113931
-0.0122532
-0.0122452
-0.0122412
-0.0122398
-0.0122456
-0.0122453
-0.0122405
-0.0122381
-0.0122375
-0.0122433
-0.0122414
-0.0122382
-0.0122378
-0.0122375
-0.0122434
-0.01224
-0.0122376
-0.0122375
-0.0122375
-0.0122433
-0.0122458
-0.0122435
-0.0122435
-0.0122434
-0.0122486
-0.0130151
-0.0129996
-0.0129756
-0.0129605
-0.0129647
-0.0129997
-0.0129824
-0.0129621
-0.0129537
-0.0129592
-0.0129758
-0.0129622
-0.0129539
-0.0129512
-0.0129579
-0.0129608
-0.0129539
-0.0129512
-0.012949
-0.0129561
-0.0129651
-0.0129594
-0.0129579
-0.0129562
-0.0129627
-0.0136969
-0.0136901
-0.0136815
-0.0136724
-0.0136765
-0.0136902
-0.0136822
-0.0136724
-0.0136622
-0.0136681
-0.0136818
-0.0136725
-0.0136606
-0.0136576
-0.013666
-0.0136727
-0.0136624
-0.0136576
-0.0136564
-0.0136653
-0.0136768
-0.0136683
-0.0136661
-0.0136654
-0.0136766
-0.0141705
-0.0141721
-0.0141779
-0.0141829
-0.0141983
-0.0141721
-0.0141732
-0.0141779
-0.0141806
-0.0141957
-0.0141781
-0.014178
-0.0141814
-0.0141806
-0.0141991
-0.0141832
-0.0141808
-0.0141806
-0.014183
-0.0142083
-0.0141987
-0.0141961
-0.0141994
-0.0142085
-0.0142413
-0.0144957
-0.0145156
-0.0145348
-0.014567
-0.014608
-0.0145157
-0.0145289
-0.0145448
-0.0145724
-0.0146118
-0.0145351
-0.0145449
-0.0145592
-0.0145813
-0.0146274
-0.0145675
-0.0145727
-0.0145815
-0.0146046
-0.0146509
-0.0146086
-0.0146123
-0.0146278
-0.0146511
-0.014688
-0.0146412
-0.0146716
-0.0147153
-0.0147761
-0.0148692
-0.0146718
-0.0146942
-0.0147337
-0.0147871
-0.0148742
-0.0147158
-0.0147341
-0.0147692
-0.0148162
-0.0148935
-0.0147767
-0.0147876
-0.0148164
-0.0148563
-0.014915
-0.0148701
-0.0148751
-0.0148941
-0.0149153
-0.0149607
-0.0145197
-0.0146807
-0.0147497
-0.0148696
-0.014998
-0.0146808
-0.0147666
-0.0148073
-0.0148971
-0.0150018
-0.0147501
-0.0148075
-0.0148471
-0.0149204
-0.015008
-0.0148701
-0.0148975
-0.0149206
-0.0149674
-0.0150282
-0.0149988
-0.0150025
-0.0150085
-0.0150284
-0.0150774
-0.0152382
-0.0149117
-0.014893
-0.0149449
-0.0150987
-0.0149116
-0.0148742
-0.0149018
-0.014949
-0.0150861
-0.0148933
-0.0149022
-0.0149307
-0.0149727
-0.0150899
-0.0149454
-0.0149495
-0.0149729
-0.0150016
-0.0150927
-0.0150995
-0.0150871
-0.0150906
-0.0150932
-0.01516
-0.0128925
-0.0142483
-0.0145137
-0.0147955
-0.0149764
-0.0142481
-0.014604
-0.0147001
-0.0148602
-0.0149871
-0.014514
-0.0147005
-0.0147689
-0.0148736
-0.0149902
-0.0147959
-0.0148605
-0.0148738
-0.0149421
-0.0150157
-0.014977
-0.0149878
-0.0149908
-0.015016
-0.0150781
-0.016864
-0.014864
-0.014915
-0.0149381
-0.015136
-0.0148631
-0.0149924
-0.0150034
-0.0149285
-0.0151133
-0.0149149
-0.0150037
-0.0149597
-0.0149555
-0.0151179
-0.0149383
-0.0149289
-0.0149555
-0.0149788
-0.0151023
-0.0151367
-0.0151144
-0.0151186
-0.015103
-0.0151921
-0.0133975
-0.0143505
-0.0144998
-0.0145823
-0.0148521
-0.0143501
-0.0137911
-0.0144618
-0.0146018
-0.0148297
-0.0145002
-0.0144624
-0.0145561
-0.0146638
-0.014845
-0.0145825
-0.0146021
-0.0146637
-0.0147719
-0.0148721
-0.0148528
-0.0148307
-0.0148455
-0.0148725
-0.0149494
-0.0106315
-0.0151317
-0.0150586
-0.0148534
-0.015117
-0.0151306
-0.0149312
-0.0151768
-0.0148291
-0.0150514
-0.0150577
-0.0151757
-0.0149238
-0.0148654
-0.015039
-0.0148537
-0.0148293
-0.0148654
-0.0148558
-0.014981
-0.0151173
-0.0150521
-0.0150395
-0.0149817
-0.0150797
-0.0137419
-0.0144749
-0.0144596
-0.0144017
-0.0146509
-0.0144767
-0.0141157
-0.014296
-0.014446
-0.014544
-0.0144594
-0.0142968
-0.0144228
-0.0144336
-0.014554
-0.0144017
-0.0144463
-0.0144333
-0.0145062
-0.0145579
-0.0146516
-0.0145448
-0.0145543
-0.0145584
-0.0146069
-0.0125915
-0.0139649
-0.0142779
-0.0144167
-0.0147802
-0.013965
-0.0140536
-0.0143656
-0.0144297
-0.0146317
-0.014278
-0.0143655
-0.0145472
-0.0144994
-0.0146914
-0.0144167
-0.01443
-0.0144993
-0.0145323
-0.0146262
-0.014781
-0.0146325
-0.0146919
-0.0146267
-0.0147317
-0.0111396
-0.0125988
-0.0138773
-0.0139993
-0.0139714
-0.0125986
-0.0135634
-0.0138221
-0.0139986
-0.0139356
-0.0138775
-0.0138226
-0.0138796
-0.0139469
-0.013944
-0.0139994
-0.0139987
-0.0139467
-0.0140054
-0.0139758
-0.0139719
-0.0139361
-0.0139442
-0.0139761
-0.0140243
-0.0152529
-0.0148522
-0.0146086
-0.0142274
-0.0142987
-0.014852
-0.0141603
-0.0143701
-0.0141986
-0.0142165
-0.0146089
-0.0143704
-0.0143048
-0.0142014
-0.0141989
-0.0142274
-0.0141986
-0.0142012
-0.0141589
-0.0141495
-0.0142992
-0.0142167
-0.0141988
-0.0141497
-0.0141779
-0.0136803
-0.013374
-0.0130927
-0.0133356
-0.0131985
-0.0133743
-0.0129408
-0.0132801
-0.0132413
-0.0132451
-0.0130928
-0.0132802
-0.0131912
-0.0132809
-0.0132353
-0.0133357
-0.0132413
-0.0132808
-0.0132928
-0.0132642
-0.0131986
-0.0132451
-0.0132352
-0.0132642
-0.0132509
-0.0134648
-0.0138451
-0.013402
-0.0135078
-0.0133721
-0.013845
-0.0137439
-0.0135485
-0.0134936
-0.0134029
-0.0134022
-0.0135486
-0.0134077
-0.0134364
-0.0133712
-0.0135078
-0.0134937
-0.0134363
-0.0134153
-0.0133666
-0.0133722
-0.0134032
-0.0133713
-0.0133668
-0.0133477
-0.0119295
-0.0122331
-0.0121284
-0.0122258
-0.0121475
-0.0122331
-0.0122225
-0.0122239
-0.0122183
-0.0121655
-0.0121284
-0.0122239
-0.0121747
-0.0121925
-0.0121494
-0.0122258
-0.0122184
-0.0121925
-0.0121838
-0.0121465
-0.0121476
-0.0121657
-0.0121496
-0.0121466
-0.0121326
-0.0117419
-0.0118747
-0.0116772
-0.011741
-0.0116922
-0.0118747
-0.0118254
-0.0117175
-0.0117521
-0.0117221
-0.0116773
-0.0117176
-0.0116796
-0.0117352
-0.0117153
-0.011741
-0.0117521
-0.0117352
-0.0117506
-0.0117302
-0.0116923
-0.0117222
-0.0117154
-0.0117303
-0.0117243
-0.00974925
-0.00982012
-0.00976082
-0.00979125
-0.00977951
-0.00982014
-0.00981441
-0.00978066
-0.00980128
-0.00980346
-0.00976086
-0.00978072
-0.00977052
-0.00981437
-0.00982312
-0.00979126
-0.00980131
-0.00981435
-0.00984896
-0.00985488
-0.00977954
-0.00980353
-0.00982315
-0.00985494
-0.00986567
-0.0091947
-0.00908998
-0.00889736
-0.00886885
-0.00884265
-0.00909001
-0.00899342
-0.00888156
-0.00886546
-0.0088449
-0.00889745
-0.00888164
-0.00883823
-0.00884551
-0.0088362
-0.00886894
-0.00886555
-0.00884552
-0.0088482
-0.00884065
-0.00884279
-0.00884507
-0.00883627
-0.00884074
-0.00884007
-0.00655085
-0.00650395
-0.00643558
-0.0063924
-0.00636432
-0.00650398
-0.00646434
-0.00640781
-0.00636768
-0.00635036
-0.00643569
-0.00640789
-0.00636724
-0.00633369
-0.00632359
-0.00639256
-0.00636781
-0.00633372
-0.00631613
-0.00631001
-0.00636456
-0.00635059
-0.00632371
-0.0063101
-0.00630532
-0.00549996
-0.00542052
-0.00529667
-0.00523472
-0.00520481
-0.00542058
-0.00534839
-0.00526361
-0.00522164
-0.00519288
-0.00529674
-0.00526363
-0.00521681
-0.00518994
-0.00517073
-0.00523481
-0.00522169
-0.00518998
-0.00517231
-0.00515713
-0.0052049
-0.00519294
-0.00517077
-0.00515714
-0.00514873
-0.00212667
-0.00217142
-0.00219885
-0.00218655
-0.00218977
-0.00217141
-0.00219098
-0.00221122
-0.00218431
-0.00217873
-0.00219888
-0.00221128
-0.00219267
-0.00216782
-0.00215961
-0.00218656
-0.00218434
-0.00216781
-0.00215078
-0.00214162
-0.00218982
-0.0021788
-0.00215966
-0.00214164
-0.00213904
-0.00146573
-0.00135976
-0.00122104
-0.00118362
-0.00115744
-0.00135986
-0.00129252
-0.00120984
-0.00117662
-0.00115366
-0.00122105
-0.00120979
-0.0011776
-0.00116104
-0.00114491
-0.00118365
-0.0011766
-0.00116107
-0.00115304
-0.00114067
-0.00115741
-0.0011536
-0.0011449
-0.00114064
-0.00113423
-0.0138151
-0.0138152
-0.0131733
-0.0126602
-0.0127209
-0.0127209
-0.0126756
-0.0166812
-0.0166808
-0.0148383
-0.0153105
-0.0137675
-0.0137675
-0.0128918
-0.0118834
-0.0118838
-0.013917
-0.0147233
-0.0165366
-0.0165364
-0.0145687
-0.0129371
-0.0129369
-0.0132375
-0.0105464
-0.0124321
-0.0124312
-0.0140168
-0.0146067
-0.014605
-0.0141814
-0.0136578
-0.0131889
-0.0131874
-0.0137255
-0.0131656
-0.0131648
-0.0124723
-0.0133363
-0.0134974
-0.0134341
-0.0134339
-0.0142546
-0.0146577
-0.0138731
-0.0140496
-0.0139894
-0.0138064
-0.0140841
-0.0146572
-0.0142523
-0.0138704
-0.0140489
-0.0138058
-0.0139875
-0.0140846
-0.0143508
-0.0126267
-0.0139932
-0.0138794
-0.0137663
-0.0136676
-0.0137786
-0.0143498
-0.0126261
-0.0139931
-0.0138796
-0.0137653
-0.013667
-0.0137782
-0.0142976
-0.0142974
-0.0133789
-0.014335
-0.0150655
-0.0146931
-0.014693
-0.0142124
-0.0148378
-0.0142907
-0.0149957
-0.013649
-0.0144119
-0.0134967
-0.0148384
-0.0142121
-0.0142901
-0.0149961
-0.0144121
-0.0136489
-0.0134963
-0.0153659
-0.0133652
-0.0147244
-0.0150034
-0.0148413
-0.014487
-0.0152321
-0.0153661
-0.0133653
-0.0147247
-0.0150036
-0.0148413
-0.014487
-0.0152322
-0.0118476
-0.0118471
-0.0136332
-0.014293
-0.0154392
-0.0154363
-0.0146182
-0.0135087
-0.0139414
-0.0139401
-0.0137095
-0.0140382
-0.0136814
-0.0136802
-0.0140414
-0.0140413
-0.0152297
-0.015052
-0.0138536
-0.014469
-0.0144689
-0.0143242
-0.0147215
-0.0144972
-0.0142169
-0.0146109
-0.0139057
-0.0145126
-0.0143236
-0.0147203
-0.0144974
-0.0142153
-0.0146112
-0.0139042
-0.0145098
-0.0163743
-0.0146629
-0.0146628
-0.0127613
-0.0154149
-0.0145242
-0.0145232
-0.0151786
-0.0153969
-0.015397
-0.0154864
-0.0155793
-0.0154103
-0.0154104
-0.0154831
-0.0156885
-0.0162919
-0.0155151
-0.0157327
-0.0150342
-0.0158335
-0.0154834
-0.0156887
-0.0162916
-0.0155149
-0.015733
-0.0150342
-0.0158337
-0.0146062
-0.0146043
-0.0148717
-0.0152968
-0.014251
-0.0147728
-0.014772
-0.0149818
-0.0142545
-0.014787
-0.014772
-0.0145849
-0.0149746
-0.0147256
-0.0142519
-0.01498
-0.0147859
-0.0147639
-0.0149737
-0.0145824
-0.0147265
-0.0145902
-0.0149026
-0.0148294
-0.0137415
-0.0144361
-0.0143486
-0.0140243
-0.0145942
-0.014895
-0.0148274
-0.0137394
-0.0144394
-0.0143476
-0.014021
-0.0158685
-0.0152153
-0.015215
-0.0142559
-0.0164916
-0.0148877
-0.0148874
-0.015188
-0.0154266
-0.0152908
-0.0161879
-0.0168475
-0.0161896
-0.0157841
-0.0151818
-0.0154251
-0.015289
-0.016188
-0.0168485
-0.0161884
-0.0157829
-0.014999
-0.0149981
-0.0161974
-0.0172769
-0.0148323
-0.0154007
-0.0154012
-0.014928
-0.0149281
-0.0151779
-0.0143184
-0.0137859
-0.0139749
-0.013975
-0.0132812
-0.0130898
-0.0138616
-0.0145841
-0.0141701
-0.0142648
-0.0141195
-0.0130894
-0.0132805
-0.0138619
-0.014584
-0.0142651
-0.0141694
-0.0141194
-0.014792
-0.0151479
-0.0149379
-0.0149365
-0.0148052
-0.0141689
-0.0143596
-0.014792
-0.015148
-0.0149381
-0.0149364
-0.0148047
-0.0141687
-0.0143604
-0.0153636
-0.0159061
-0.0155846
-0.0151084
-0.0136787
-0.0139174
-0.0143226
-0.0153639
-0.0159059
-0.0155851
-0.0151089
-0.0136785
-0.0139173
-0.014323
-0.0140338
-0.0140358
-0.0143181
-0.00619609
-0.00998413
-0.00997506
-0.0131328
-0.0147669
-0.0115675
-0.0115665
-0.0131904
-0.0122879
-0.0139468
-0.0139459
-0.015022
-0.015022
-0.016396
-0.0143752
-0.0143219
-0.014663
-0.014663
-0.0165091
-0.0140454
-0.0128459
-0.0146815
-0.0137002
-0.0143179
-0.0154511
-0.0165068
-0.0140427
-0.0128445
-0.0146785
-0.0136902
-0.0143185
-0.0154482
-0.0147568
-0.0145308
-0.0144077
-0.0149282
-0.0151185
-0.0145547
-0.0150456
-0.0147525
-0.0145344
-0.0144053
-0.0149314
-0.0151243
-0.0145493
-0.015048
-0.016151
-0.0144175
-0.0144192
-0.0141746
-0.0129471
-0.0153106
-0.0153108
-0.0125518
-0.0110788
-0.0110787
-0.0124825
-0.0113988
-0.0125221
-0.0125221
-0.0124651
-0.00977505
-0.01285
-0.0111549
-0.00996438
-0.012253
-0.012625
-0.0124651
-0.00977486
-0.0128498
-0.011155
-0.00996262
-0.0122531
-0.0126251
-0.0145565
-0.0144382
-0.0143143
-0.0143742
-0.0143366
-0.0137794
-0.0136574
-0.0145567
-0.0144382
-0.0143142
-0.014374
-0.0143365
-0.0137794
-0.013657
-0.0109986
-0.0128246
-0.0128248
-0.0137594
-0.0103892
-0.0134749
-0.0134749
-0.00697883
-0.00697592
-0.00859292
-0.00611426
-0.00293673
-0.00614115
-0.0061369
-0.0145085
-0.0142698
-0.0144105
-0.0114064
-0.0137432
-0.0138606
-0.0144117
-0.0142688
-0.0145077
-0.0144103
-0.0113978
-0.0138582
-0.0137433
-0.0144125
-0.01454
-0.0154412
-0.0155634
-0.0144155
-0.0157849
-0.0152412
-0.0148511
-0.0145381
-0.0154309
-0.0155617
-0.0144136
-0.0157849
-0.0152376
-0.0148482
-0.00947013
-0.0109191
-0.010047
-0.006733
-0.00852267
-0.00948314
-0.00504982
-0.00946661
-0.0109095
-0.0100355
-0.00673047
-0.00851933
-0.00949311
-0.00504257
-0.0137579
-0.013758
-0.0142296
-0.0137258
-0.0139899
-0.01399
-0.013878
-0.0145436
-0.0139521
-0.0141212
-0.0140979
-0.0138918
-0.0140188
-0.0141343
-0.0145439
-0.0139522
-0.014121
-0.0140979
-0.0138918
-0.0140187
-0.0141343
-0.0125333
-0.0125345
-0.0110177
-0.0101194
-0.0132317
-0.0119322
-0.0119341
-0.0109272
-0.0109266
-0.0114728
-0.0126621
-0.0114225
-0.0118563
-0.0118557
-0.0135631
-0.0138395
-0.0137634
-0.0130088
-0.0145559
-0.0133566
-0.0145808
-0.0138391
-0.0135626
-0.0137631
-0.0130075
-0.0133558
-0.0145546
-0.014581
-0.0125171
-0.0132753
-0.0130829
-0.0135608
-0.0137127
-0.0134904
-0.0132133
-0.0125165
-0.0132749
-0.0130824
-0.0135605
-0.0137124
-0.0134899
-0.0132126
-0.0103541
-0.0130744
-0.0109042
-0.012405
-0.013222
-0.0136802
-0.0118191
-0.0103536
-0.0130737
-0.0109033
-0.0124053
-0.0132207
-0.0136794
-0.0118182
-0.0129818
-0.0129817
-0.0112526
-0.0122169
-0.0141091
-0.0133477
-0.013347
-0.0155804
-0.0155804
-0.0140861
-0.00865464
-0.0113468
-0.0113501
-0.012769
-0.00700779
-0.0131422
-0.013142
-0.00535213
-0.0118527
-0.00580239
-0.00579993
-0.00810144
-0.015514
-0.0119841
-0.0125109
-0.0128584
-0.0113483
-0.00785835
-0.0081067
-0.0155153
-0.0119873
-0.0125068
-0.012861
-0.0113563
-0.00784834
-0.0109651
-0.0172634
-0.0155162
-0.0114865
-0.0109742
-0.014679
-0.0164595
-0.0109626
-0.017266
-0.0155143
-0.0114864
-0.0109832
-0.0146807
-0.0164658
)
;

boundaryField
{
    inlet
    {
        type            fixedValue;
        value           uniform 0;
    }
    wall
    {
        type            zeroGradient;
    }
    outlet
    {
        type            fixedValue;
        value           uniform 0;
    }
    procBoundary3to1
    {
        type            processor;
        value           nonuniform List<scalar> 
329
(
-0.000439345
-0.00043938
-0.000439334
-0.00043937
-0.000439414
-0.000866478
-0.000866442
-0.000866412
-0.000866398
-0.000866363
-0.00206487
-0.00206482
-0.00206473
-0.00206474
-0.00206478
-0.00264616
-0.00264607
-0.00264601
-0.00264601
-0.00264606
-0.00378209
-0.00378196
-0.00378191
-0.00378194
-0.0037821
-0.00443045
-0.00443031
-0.00443033
-0.00443042
-0.0044307
-0.00550339
-0.00550323
-0.00550328
-0.00550346
-0.00550393
-0.00620437
-0.00620426
-0.00620445
-0.00620476
-0.00620556
-0.00722208
-0.00722202
-0.00722231
-0.0072228
-0.00722397
-0.00796199
-0.00796196
-0.00796257
-0.00796338
-0.0079653
-0.00893018
-0.00893021
-0.00893106
-0.00893222
-0.00893489
-0.0096928
-0.00969288
-0.00969432
-0.00969602
-0.00970017
-0.0106124
-0.0106126
-0.0106143
-0.0106164
-0.0106218
-0.0113791
-0.0113787
-0.0113806
-0.0113824
-0.0113897
-0.0122536
-0.0122467
-0.012244
-0.012243
-0.0122493
-0.0130159
-0.0130003
-0.0129771
-0.0129641
-0.0129694
-0.0136999
-0.0136936
-0.0136861
-0.0136775
-0.0136825
-0.0141781
-0.0141803
-0.0141871
-0.0141923
-0.014208
-0.0145037
-0.0145243
-0.014545
-0.0145774
-0.0146194
-0.0146508
-0.0146824
-0.0147271
-0.014788
-0.0148819
-0.0145312
-0.0146954
-0.0147663
-0.014886
-0.0150182
-0.0152559
-0.0149302
-0.0149106
-0.014963
-0.0151227
-0.0129039
-0.0142836
-0.0145402
-0.0148217
-0.0150105
-0.0168848
-0.0148909
-0.0149412
-0.0149659
-0.0151722
-0.0134039
-0.0142992
-0.0145724
-0.0146377
-0.0149014
-0.0106344
-0.01511
-0.0151363
-0.0148741
-0.015152
-0.013741
-0.0144454
-0.0145035
-0.0144393
-0.0146891
-0.0125397
-0.0139464
-0.014292
-0.0144353
-0.0148078
-0.0110799
-0.0126
-0.0138821
-0.0140174
-0.0140002
-0.0152546
-0.0148557
-0.0146195
-0.0142527
-0.0143222
-0.0136991
-0.0133984
-0.013114
-0.01336
-0.0132265
-0.0134791
-0.0138634
-0.0134236
-0.0135213
-0.0133924
-0.0119324
-0.0122447
-0.0121373
-0.0122338
-0.0121609
-0.0117482
-0.0118795
-0.0116847
-0.0117437
-0.0116963
-0.00975143
-0.00982225
-0.0097651
-0.00979263
-0.00978159
-0.00919677
-0.00909542
-0.00890153
-0.00886936
-0.00884221
-0.0065543
-0.00651036
-0.00644113
-0.00639319
-0.00636577
-0.00550355
-0.00543421
-0.00530329
-0.00523334
-0.00520432
-0.00212677
-0.00217765
-0.00220182
-0.00219067
-0.00219344
-0.00146105
-0.00134797
-0.00121647
-0.00118612
-0.00116031
-0.0126686
-0.0127321
-0.0138337
-0.015312
-0.0137819
-0.0166754
-0.0147225
-0.0165665
-0.0119459
-0.0104649
-0.0124451
-0.0128837
-0.0136739
-0.0131913
-0.0145765
-0.0131736
-0.0134515
-0.0135054
-0.0140298
-0.0139954
-0.0142503
-0.0137544
-0.0137681
-0.0143523
-0.014302
-0.0147019
-0.015068
-0.0149982
-0.0136608
-0.0142264
-0.0148566
-0.0152487
-0.0153738
-0.0142813
-0.0153967
-0.0118108
-0.0137207
-0.013686
-0.0139299
-0.01469
-0.0144932
-0.014198
-0.0154882
-0.015419
-0.0154025
-0.0157004
-0.0158456
-0.0155224
-0.0145821
-0.0147493
-0.0142391
-0.0147399
-0.014552
-0.0149373
-0.0148867
-0.0140212
-0.0144158
-0.0167836
-0.0157437
-0.0151458
-0.0149284
-0.0139723
-0.0137798
-0.0145908
-0.0141646
-0.0132727
-0.0151263
-0.0143409
-0.0149344
-0.0136833
-0.0143215
-0.015367
-0.00620813
-0.00994346
-0.0138718
-0.0131836
-0.0139323
-0.0115704
-0.0140471
-0.0154246
-0.0146077
-0.0144632
-0.0149686
-0.0148602
-0.0124628
-0.0125159
-0.011055
-0.0097893
-0.0126375
-0.0111232
-0.014431
-0.0136571
-0.0143757
-0.0069989
-0.00619872
-0.00295306
-0.0113564
-0.0137505
-0.0145231
-0.0154193
-0.0148355
-0.0157555
-0.00874845
-0.0050828
-0.00951355
-0.0108918
-0.0117873
-0.0112744
-0.0129933
-0.0145535
-0.0135551
-0.0132952
-0.0131982
-0.0135682
-0.0131568
-0.0117721
-0.0103465
-0.00862705
-0.0113299
-0.0156238
-0.00536434
-0.0058351
-0.0131619
-0.0155261
-0.00796182
-0.012713
-0.0172936
-0.0165228
-0.0116914
)
;
    }
    procBoundary3to2
    {
        type            processor;
        value           nonuniform List<scalar> 
329
(
-0.000439348
-0.000439382
-0.000439342
-0.000439377
-0.000439427
-0.000866481
-0.000866447
-0.00086642
-0.000866408
-0.000866377
-0.00206488
-0.00206483
-0.00206475
-0.00206476
-0.00206481
-0.00264616
-0.00264608
-0.00264603
-0.00264603
-0.00264609
-0.0037821
-0.00378198
-0.00378194
-0.00378198
-0.00378215
-0.00443046
-0.00443033
-0.00443036
-0.00443046
-0.00443076
-0.0055034
-0.00550326
-0.00550333
-0.00550351
-0.00550401
-0.00620438
-0.0062043
-0.00620451
-0.00620483
-0.00620566
-0.0072221
-0.00722206
-0.00722238
-0.00722288
-0.00722408
-0.00796203
-0.00796201
-0.00796267
-0.0079635
-0.00796545
-0.00893022
-0.00893026
-0.00893115
-0.00893234
-0.00893504
-0.00969285
-0.00969295
-0.00969444
-0.00969617
-0.00970039
-0.0106124
-0.0106127
-0.0106144
-0.0106165
-0.010622
-0.0113792
-0.0113788
-0.0113808
-0.0113827
-0.01139
-0.0122536
-0.0122469
-0.0122442
-0.0122432
-0.0122496
-0.013016
-0.0130005
-0.0129774
-0.0129646
-0.01297
-0.0137001
-0.0136939
-0.0136865
-0.0136779
-0.0136831
-0.0141786
-0.0141807
-0.0141877
-0.014193
-0.0142088
-0.0145041
-0.0145249
-0.0145457
-0.0145782
-0.0146203
-0.0146514
-0.0146832
-0.0147282
-0.0147892
-0.0148834
-0.0145318
-0.0146962
-0.0147675
-0.0148872
-0.0150197
-0.0152568
-0.0149311
-0.0149118
-0.0149645
-0.0151247
-0.0129048
-0.0142846
-0.0145417
-0.0148229
-0.0150122
-0.0168844
-0.0148911
-0.0149418
-0.0149677
-0.0151744
-0.0134044
-0.0143017
-0.014576
-0.0146395
-0.014904
-0.0106344
-0.0151131
-0.015131
-0.014877
-0.0151528
-0.0137406
-0.0144525
-0.0145091
-0.0144404
-0.014692
-0.0125388
-0.0139441
-0.0142913
-0.0144363
-0.0148093
-0.0110797
-0.0126002
-0.0138834
-0.0140181
-0.0140013
-0.0152548
-0.0148557
-0.0146201
-0.0142533
-0.0143231
-0.0136994
-0.0133986
-0.0131147
-0.0133605
-0.0132272
-0.0134794
-0.0138638
-0.0134242
-0.0135218
-0.0133931
-0.0119325
-0.0122448
-0.0121376
-0.0122341
-0.0121614
-0.0117483
-0.0118796
-0.0116849
-0.0117438
-0.0116966
-0.00975148
-0.0098223
-0.00976517
-0.00979268
-0.00978168
-0.00919678
-0.00909548
-0.00890168
-0.00886952
-0.00884246
-0.0065543
-0.00651042
-0.00644129
-0.00639342
-0.0063661
-0.00550353
-0.00543425
-0.00530335
-0.00523346
-0.00520444
-0.0021268
-0.00217767
-0.00220191
-0.00219076
-0.0021936
-0.00146097
-0.00134792
-0.0012164
-0.00118609
-0.00116024
-0.013834
-0.0127324
-0.0126688
-0.0166755
-0.0137822
-0.0153123
-0.0119465
-0.0165669
-0.0147226
-0.0128815
-0.0124434
-0.0104643
-0.0145668
-0.0131888
-0.0136738
-0.0135049
-0.0134511
-0.0131726
-0.0142469
-0.0139946
-0.0140293
-0.0143514
-0.0137684
-0.0137527
-0.0150681
-0.0147021
-0.0143022
-0.0142263
-0.0136611
-0.0149988
-0.0153742
-0.0152492
-0.0148568
-0.0118144
-0.015375
-0.0142804
-0.0139283
-0.0136835
-0.0137201
-0.0141919
-0.0144888
-0.0146887
-0.0154028
-0.0154193
-0.0154884
-0.0155227
-0.0158462
-0.0157009
-0.0142388
-0.0147488
-0.0145787
-0.0149335
-0.0145558
-0.014713
-0.0144184
-0.0140191
-0.0148795
-0.0151333
-0.0157445
-0.0167828
-0.0137799
-0.0139725
-0.0149286
-0.013272
-0.0141647
-0.0145912
-0.014935
-0.0143414
-0.0151265
-0.0153674
-0.0143219
-0.0136835
-0.0138742
-0.00994085
-0.00620816
-0.0115709
-0.0139314
-0.0131833
-0.0145998
-0.0154221
-0.0140511
-0.0148797
-0.0149533
-0.0144643
-0.0110545
-0.0125159
-0.0124628
-0.0111234
-0.0126378
-0.00978901
-0.0143759
-0.013657
-0.014432
-0.00295435
-0.00619981
-0.00699823
-0.0145221
-0.0137535
-0.0113546
-0.0157504
-0.0148347
-0.0154037
-0.00951364
-0.005086
-0.00875648
-0.011274
-0.0117864
-0.0108905
-0.0135524
-0.0145516
-0.0129928
-0.0135683
-0.0131976
-0.013295
-0.0103454
-0.0117706
-0.0131546
-0.0156238
-0.0113314
-0.00862639
-0.0131631
-0.00583567
-0.00536429
-0.012716
-0.00796124
-0.0155285
-0.0117036
-0.0165351
-0.0172972
)
;
    }
}


// ************************************************************************* //
