/*--------------------------------*- C++ -*----------------------------------*\
| =========                 |                                                 |
| \\      /  F ield         | OpenFOAM: The Open Source CFD Toolbox           |
|  \\    /   O peration     | Version:  5.x                                   |
|   \\  /    A nd           | Web:      www.OpenFOAM.org                      |
|    \\/     M anipulation  |                                                 |
\*---------------------------------------------------------------------------*/
FoamFile
{
    version     2.0;
    format      ascii;
    class       volVectorField;
    location    "0.099";
    object      U;
}
// * * * * * * * * * * * * * * * * * * * * * * * * * * * * * * * * * * * * * //

dimensions      [0 1 -1 0 0 0 0];

internalField   nonuniform List<vector> 
1553
(
(-6.53974e-05 -6.34648e-05 0.0648801)
(-2.30935e-05 -6.61391e-05 0.0648852)
(-1.23221e-05 -7.36403e-05 0.0648854)
(2.12786e-05 -7.54972e-05 0.064899)
(2.58585e-05 -8.32747e-05 0.0649402)
(-6.80752e-05 -2.11562e-05 0.0648851)
(-2.5824e-05 -2.3885e-05 0.0648917)
(-1.49075e-05 -3.17939e-05 0.0648915)
(1.84253e-05 -3.37356e-05 0.0649059)
(2.33327e-05 -4.20769e-05 0.0649456)
(-7.55759e-05 -1.06695e-05 0.0648858)
(-3.37311e-05 -1.32557e-05 0.064892)
(-2.21728e-05 -2.05068e-05 0.0648895)
(1.0994e-05 -2.24207e-05 0.0649034)
(1.73555e-05 -3.01314e-05 0.0649398)
(-7.74361e-05 2.29068e-05 0.0648992)
(-3.56612e-05 2.00552e-05 0.0649062)
(-2.40725e-05 1.26267e-05 0.0649033)
(8.79916e-06 1.04293e-05 0.0649174)
(1.54722e-05 2.40624e-06 0.064952)
(-8.52113e-05 2.69874e-05 0.064941)
(-4.40097e-05 2.44658e-05 0.0649465)
(-3.17973e-05 1.84772e-05 0.0649403)
(7.73544e-07 1.65912e-05 0.0649526)
(9.17434e-06 1.02934e-05 0.064982)
(-4.00279e-05 -3.81537e-05 -0.0413022)
(-3.38296e-05 -4.05339e-05 -0.0413049)
(-2.85857e-05 -4.33333e-05 -0.0413037)
(-3.20642e-05 -4.49491e-05 -0.0413068)
(-1.96846e-05 -4.71031e-05 -0.0413123)
(-4.24142e-05 -3.20145e-05 -0.0413048)
(-3.61094e-05 -3.43041e-05 -0.0413079)
(-3.04973e-05 -3.70822e-05 -0.0413069)
(-3.36016e-05 -3.86161e-05 -0.0413102)
(-2.04911e-05 -4.07241e-05 -0.0413157)
(-4.52135e-05 -2.7016e-05 -0.0413035)
(-3.88972e-05 -2.89219e-05 -0.0413069)
(-3.28977e-05 -3.13362e-05 -0.0413059)
(-3.57069e-05 -3.2546e-05 -0.0413094)
(-2.18503e-05 -3.43131e-05 -0.0413146)
(-4.68255e-05 -3.06094e-05 -0.0413066)
(-4.04295e-05 -3.21363e-05 -0.0413101)
(-3.41214e-05 -3.42655e-05 -0.0413093)
(-3.65792e-05 -3.51476e-05 -0.0413129)
(-2.23088e-05 -3.63868e-05 -0.041318)
(-4.89902e-05 -1.87991e-05 -0.0413121)
(-4.25526e-05 -1.96108e-05 -0.0413155)
(-3.59083e-05 -2.09801e-05 -0.0413146)
(-3.78281e-05 -2.14483e-05 -0.041318)
(-2.31334e-05 -2.22729e-05 -0.0413226)
(-6.75612e-05 -6.54622e-05 0.0518106)
(-2.46414e-05 -6.89194e-05 0.0518123)
(-1.40395e-05 -7.68643e-05 0.051824)
(1.32122e-05 -7.91471e-05 0.05183)
(2.09025e-05 -8.68431e-05 0.0518645)
(-7.10299e-05 -2.25222e-05 0.0518125)
(-2.80549e-05 -2.59722e-05 0.0518144)
(-1.71339e-05 -3.4199e-05 0.0518252)
(1.01532e-05 -3.65892e-05 0.0518313)
(1.83724e-05 -4.47685e-05 0.0518647)
(-7.89623e-05 -1.22781e-05 0.0518247)
(-3.63182e-05 -1.53301e-05 0.0518257)
(-2.46565e-05 -2.28572e-05 0.0518339)
(2.64093e-06 -2.50997e-05 0.0518392)
(1.25523e-05 -3.25209e-05 0.0518696)
(-8.12494e-05 1.48995e-05 0.0518307)
(-3.86339e-05 1.18901e-05 0.0518318)
(-2.69035e-05 4.35915e-06 0.0518393)
(4.87864e-07 2.17213e-06 0.0518446)
(1.07932e-05 -5.33547e-06 0.0518738)
(-8.89439e-05 2.20889e-05 0.0518657)
(-4.68568e-05 1.95295e-05 0.0518657)
(-3.43728e-05 1.36952e-05 0.0518702)
(-7.05369e-06 1.19021e-05 0.0518742)
(4.88183e-06 5.99069e-06 0.0519003)
(-5.38158e-05 -5.13748e-05 -0.0286104)
(-2.05591e-05 -5.41225e-05 -0.0286121)
(-1.10693e-05 -6.03006e-05 -0.0285992)
(8.17157e-06 -6.22528e-05 -0.0285977)
(1.65207e-05 -6.80274e-05 -0.0285742)
(-5.65692e-05 -1.81246e-05 -0.0286119)
(-2.3471e-05 -2.10878e-05 -0.0286139)
(-1.3798e-05 -2.73888e-05 -0.0286018)
(5.56076e-06 -2.95539e-05 -0.0286006)
(1.45186e-05 -3.57621e-05 -0.0285778)
(-6.27796e-05 -8.95979e-06 -0.0285987)
(-2.98234e-05 -1.16974e-05 -0.0286015)
(-1.95354e-05 -1.74333e-05 -0.0285917)
(-2.0346e-07 -1.94027e-05 -0.0285912)
(1.01644e-05 -2.52806e-05 -0.0285709)
(-6.47136e-05 1.01617e-05 -0.028597)
(-3.19445e-05 7.59682e-06 -0.0286001)
(-2.15033e-05 1.79572e-06 -0.0285911)
(-2.28824e-06 -3.21455e-07 -0.0285908)
(8.50162e-06 -5.81876e-06 -0.0285709)
(-7.04947e-05 1.78802e-05 -0.0285732)
(-3.81875e-05 1.58818e-05 -0.028577)
(-2.7452e-05 1.14888e-05 -0.0285705)
(-7.81794e-06 9.79348e-06 -0.0285705)
(4.52145e-06 5.81332e-06 -0.0285536)
(-7.69759e-05 -7.43658e-05 0.0406612)
(-1.32445e-05 -7.90722e-05 0.040662)
(6.03385e-07 -8.95408e-05 0.0406886)
(3.86591e-05 -9.28966e-05 0.0406958)
(4.6177e-05 -0.000103084 0.04075)
(-8.17227e-05 -1.06343e-05 0.0406623)
(-1.78032e-05 -1.51884e-05 0.0406629)
(-3.63918e-06 -2.65804e-05 0.0406878)
(3.45747e-05 -3.00008e-05 0.0406946)
(4.29069e-05 -4.14113e-05 0.0407474)
(-9.21238e-05 2.88811e-06 0.0406896)
(-2.91906e-05 -1.35073e-06 0.0406883)
(-1.4209e-05 -1.19395e-05 0.04071)
(2.38252e-05 -1.51044e-05 0.0407155)
(3.45057e-05 -2.54253e-05 0.0407638)
(-9.55169e-05 4.08145e-05 0.040697)
(-3.26308e-05 3.67386e-05 0.0406955)
(-1.73928e-05 2.60009e-05 0.0407157)
(2.1086e-05 2.32362e-05 0.0407207)
(3.23398e-05 1.22803e-05 0.0407677)
(-0.000105711 4.76494e-05 0.0407519)
(-4.40012e-05 4.43887e-05 0.040749)
(-2.77085e-05 3.6018e-05 0.0407646)
(1.01047e-05 3.38271e-05 0.0407683)
(2.32877e-05 2.47749e-05 0.04081)
(-7.1975e-05 -6.85487e-05 -0.0189969)
(6.54806e-06 -7.2625e-05 -0.0189968)
(2.24558e-05 -8.39518e-05 -0.0189615)
(6.92328e-05 -8.70879e-05 -0.0189532)
(7.33754e-05 -9.76091e-05 -0.0188872)
(-7.60305e-05 9.99107e-06 -0.0189966)
(1.77954e-06 5.03608e-06 -0.0189965)
(1.76597e-05 -6.20144e-06 -0.0189632)
(6.47742e-05 -1.00671e-05 -0.0189552)
(6.98677e-05 -2.22078e-05 -0.0188915)
(-8.75196e-05 2.54638e-05 -0.0189606)
(-9.64445e-06 2.06247e-05 -0.0189625)
(7.35266e-06 1.02617e-05 -0.0189345)
(5.32226e-05 6.38688e-06 -0.018928)
(6.09387e-05 -5.24312e-06 -0.0188692)
(-9.0536e-05 7.20535e-05 -0.0189522)
(-1.34226e-05 6.78225e-05 -0.0189544)
(3.42195e-06 5.60736e-05 -0.0189277)
(4.92655e-05 5.21392e-05 -0.0189218)
(5.79509e-05 4.01196e-05 -0.0188653)
(-0.000101049 7.53534e-05 -0.0188855)
(-2.56206e-05 7.19309e-05 -0.01889)
(-8.32675e-06 6.28584e-05 -0.0188684)
(3.72686e-05 5.98939e-05 -0.0188647)
(4.86016e-05 5.05445e-05 -0.018814)
(-9.43282e-05 -9.08681e-05 0.0319261)
(2.2498e-05 -9.69987e-05 0.03193)
(4.45282e-05 -0.000114115 0.0319916)
(0.000113579 -0.000118623 0.0320082)
(0.000116454 -0.000135237 0.0321183)
(-0.000100534 2.60034e-05 0.0319306)
(1.5909e-05 1.93872e-05 0.0319337)
(3.80392e-05 6.44659e-07 0.031993)
(0.000106911 -4.50475e-06 0.0320094)
(0.000110858 -2.31503e-05 0.0321174)
(-0.000117627 4.76717e-05 0.0319931)
(-2.86078e-06 4.10949e-05 0.0319943)
(2.06364e-05 2.38247e-05 0.0320449)
(8.97781e-05 1.86426e-05 0.0320588)
(9.73285e-05 1.01213e-06 0.0321576)
(-0.000122212 0.000116538 0.03201)
(-7.93817e-06 0.000109902 0.032011)
(1.5587e-05 9.27173e-05 0.032059)
(8.40923e-05 8.7106e-05 0.0320727)
(9.2757e-05 6.79138e-05 0.0321689)
(-0.000138752 0.000118557 0.0321213)
(-2.66753e-05 0.000113053 0.0321198)
(-2.15355e-06 9.934e-05 0.032159)
(6.49746e-05 9.48423e-05 0.0321701)
(7.7614e-05 7.96994e-05 0.032256)
(-9.28924e-05 -8.77758e-05 -0.0118608)
(7.1648e-05 -9.39485e-05 -0.0118552)
(0.000100218 -0.00011331 -0.011771)
(0.000195375 -0.000118034 -0.011748)
(0.000188795 -0.000136268 -0.0116)
(-9.88366e-05 7.66141e-05 -0.0118551)
(6.3886e-05 6.89859e-05 -0.0118494)
(9.29468e-05 4.67071e-05 -0.0117686)
(0.00018852 4.01888e-05 -0.0117463)
(0.000183012 1.67655e-05 -0.0116006)
(-0.000118287 0.000104486 -0.0117697)
(4.1741e-05 9.7442e-05 -0.0117676)
(7.14211e-05 7.58216e-05 -0.0116977)
(0.000165425 6.92199e-05 -0.0116784)
(0.000164769 4.59808e-05 -0.0115463)
(-0.00012296 0.000199621 -0.0117465)
(3.52218e-05 0.000192776 -0.011745)
(6.47247e-05 0.000169676 -0.0116783)
(0.00015867 0.000162901 -0.0116598)
(0.000159166 0.000138194 -0.0115306)
(-0.000141295 0.000191882 -0.0115975)
(1.18046e-05 0.000186016 -0.0115984)
(4.15545e-05 0.000167861 -0.0115452)
(0.000133943 0.000162239 -0.0115296)
(0.000139385 0.000142458 -0.0114148)
(-0.000117286 -0.000112736 0.0251012)
(0.000112831 -0.000120702 0.0251176)
(0.000152374 -0.00014954 0.0252585)
(0.000285715 -0.000156473 0.0253034)
(0.00027336 -0.000183676 0.0255384)
(-0.000125609 0.000117623 0.0251183)
(0.000102809 0.000107493 0.0251327)
(0.000141726 7.43506e-05 0.0252691)
(0.000276026 6.54523e-05 0.0253125)
(0.000265365 3.0824e-05 0.0255424)
(-0.000154321 0.000156853 0.0252607)
(6.95585e-05 0.000146103 0.025271)
(0.000110333 0.000114673 0.0253921)
(0.000242175 0.000105631 0.0254298)
(0.000237755 7.14554e-05 0.0256426)
(-0.000161354 0.000289855 0.025306)
(6.06285e-05 0.000280189 0.0253151)
(0.000101254 0.000246237 0.0254302)
(0.000232794 0.000236905 0.0254657)
(0.000230193 0.000200077 0.0256713)
(-0.000188505 0.000276448 0.025543)
(2.59535e-05 0.000268471 0.0255464)
(6.70638e-05 0.000240796 0.0256447)
(0.000196015 0.000233283 0.0256731)
(0.000199798 0.000202888 0.0258575)
(-0.000107879 -0.000100547 -0.00693705)
(0.000228251 -0.000112341 -0.0069107)
(0.000285237 -0.000144379 -0.00672335)
(0.000474524 -0.000153048 -0.00665936)
(0.000435023 -0.000185171 -0.00634304)
(-0.000119708 0.000235469 -0.00690996)
(0.000214044 0.000221746 -0.00688854)
(0.000272006 0.000179804 -0.0067061)
(0.000461013 0.000166074 -0.00664517)
(0.000423972 0.000120481 -0.00633339)
(-0.000151618 0.000291382 -0.00672169)
(0.000172586 0.000279084 -0.00670473)
(0.000229565 0.00023628 -0.00654315)
(0.000415181 0.000221859 -0.00648898)
(0.000388179 0.000174385 -0.00620274)
(-0.000160151 0.000481102 -0.00665745)
(0.000158941 0.000467401 -0.0066433)
(0.00021478 0.000421557 -0.00648873)
(0.000399096 0.000405496 -0.00643833)
(0.000375163 0.000352887 -0.00616055)
(-0.000192617 0.000440147 -0.00633975)
(0.000113061 0.000428452 -0.00633039)
(0.000167682 0.000393014 -0.00620116)
(0.000346511 0.000380021 -0.00615918)
(0.00033404 0.000338898 -0.00591058)
(-0.00013242 -0.00012593 0.0195277)
(0.000327348 -0.000142419 0.0195911)
(0.000404649 -0.000189112 0.0199053)
(0.00066779 -0.000201766 0.0200332)
(0.000607795 -0.000248304 0.0205372)
(-0.000149067 0.000333798 0.0195921)
(0.000307454 0.000314249 0.0196515)
(0.000386002 0.000255256 0.0199529)
(0.000650458 0.000236511 0.0200727)
(0.000594994 0.000171708 0.0205603)
(-0.000195606 0.000410317 0.0199091)
(0.000248805 0.000392247 0.0199556)
(0.000326913 0.000332877 0.0202262)
(0.000584211 0.000313268 0.0203318)
(0.000540906 0.000244986 0.0207833)
(-0.000208272 0.000673573 0.020038)
(0.000230012 0.000656258 0.0200759)
(0.000307024 0.000589852 0.0203324)
(0.00056253 0.000568266 0.0204293)
(0.000524465 0.000492928 0.0208604)
(-0.000254926 0.000612277 0.020544)
(0.000165117 0.000599264 0.020567)
(0.000238958 0.000545296 0.0207867)
(0.000487288 0.000528951 0.0208634)
(0.000462972 0.000467458 0.0212472)
(-8.97135e-05 -7.88726e-05 -0.00416532)
(0.000604769 -9.89217e-05 -0.00406373)
(0.000726087 -0.000157167 -0.00366104)
(0.00110533 -0.000175665 -0.00348169)
(0.000962887 -0.000236819 -0.00281151)
(-0.000109924 0.000615858 -0.0040633)
(0.00057385 0.000585239 -0.00397625)
(0.000692079 0.000499824 -0.00358854)
(0.00106734 0.000463825 -0.00341982)
(0.00093484 0.000365916 -0.00276907)
(-0.000168155 0.000736075 -0.00365891)
(0.000488735 0.000702325 -0.00358682)
(0.000604677 0.00061477 -0.00323434)
(0.000971371 0.000577379 -0.00308385)
(0.000862098 0.000473677 -0.00248114)
(-0.00018679 0.00111483 -0.00347904)
(0.000452541 0.00107778 -0.00341775)
(0.000567133 0.000981109 -0.00308354)
(0.000926184 0.000936205 -0.00294603)
(0.000828048 0.000817112 -0.00236929)
(-0.00024776 0.000970019 -0.00280761)
(0.000355067 0.000942962 -0.00276486)
(0.000463166 0.000869668 -0.00247916)
(0.000807374 0.000835903 -0.0023674)
(0.000739346 0.000747201 -0.00184992)
(-9.5411e-05 -8.68489e-05 0.0142573)
(0.000832992 -0.000119466 0.0144661)
(0.00098822 -0.000202712 0.0151677)
(0.00152033 -0.000228548 0.0155345)
(0.0013151 -0.000316966 0.0166048)
(-0.000128235 0.000841584 0.0144674)
(0.000783508 0.000792454 0.0146654)
(0.000943889 0.000683126 0.015336)
(0.00147284 0.000635432 0.0156719)
(0.00128204 0.000502995 0.0167011)
(-0.000211317 0.000996119 0.0151734)
(0.000674534 0.000952208 0.0153408)
(0.000831211 0.000839214 0.0159262)
(0.00134012 0.000788306 0.0162205)
(0.00117781 0.000645827 0.0171629)
(-0.000237323 0.00152788 0.0155409)
(0.000626591 0.00148113 0.0156775)
(0.000779987 0.00134775 0.0162212)
(0.00127935 0.00128729 0.0164838)
(0.00113424 0.0011248 0.0173669)
(-0.00032555 0.00132086 0.0166157)
(0.000494477 0.00128848 0.0167117)
(0.000637473 0.00118389 0.0171681)
(0.00111717 0.00114064 0.0173717)
(0.00100908 0.00101548 0.0181432)
(5.85664e-05 7.46063e-05 -0.00393282)
(0.00151341 3.51482e-05 -0.00358516)
(0.00179246 -7.98703e-05 -0.00274472)
(0.00254101 -0.000130156 -0.00224613)
(0.00208401 -0.00025603 -0.000834776)
(1.85909e-05 0.00153024 -0.00358505)
(0.00144082 0.00145838 -0.00329998)
(0.0016966 0.00125688 -0.00250323)
(0.00243112 0.00114852 -0.00202728)
(0.00201338 0.000922789 -0.000679208)
(-9.63457e-05 0.00180753 -0.00274258)
(0.00124005 0.00171244 -0.00250103)
(0.00148262 0.00149823 -0.00174925)
(0.00220678 0.00138761 -0.00133475)
(0.00185119 0.00113804 -8.49434e-05)
(-0.000146766 0.00255563 -0.00224322)
(0.0011315 0.00244729 -0.00202444)
(0.00137177 0.00222175 -0.00133453)
(0.00207074 0.00208629 -0.000960988)
(0.00175594 0.00179888 0.000205606)
(-0.000272657 0.00209565 -0.000829839)
(0.000906312 0.00202655 -0.000674245)
(0.00112181 0.00186337 -8.26219e-05)
(0.00178391 0.00176873 0.000207898)
(0.00155445 0.00156723 0.00124954)
(0.00014902 0.000159815 0.00745045)
(0.00202371 7.36568e-05 0.00822555)
(0.00232994 -8.85646e-05 0.00981751)
(0.00343581 -0.00014457 0.0109062)
(0.00280351 -0.000336813 0.0131679)
(6.26872e-05 0.00203444 0.00822605)
(0.00186769 0.00187896 0.00891263)
(0.00221906 0.00168064 0.0104016)
(0.00330213 0.00154863 0.0113372)
(0.00270485 0.00125432 0.0134781)
(-9.92594e-05 0.00234064 0.0098253)
(0.00166991 0.00223023 0.0104101)
(0.00199969 0.00201013 0.0116426)
(0.00300928 0.0018566 0.0124684)
(0.00249727 0.00153217 0.0144099)
(-0.000155882 0.00344617 0.0109144)
(0.0015371 0.00331319 0.0113461)
(0.00184543 0.00301923 0.012469)
(0.00282385 0.00283432 0.0131769)
(0.00236683 0.00245984 0.014934)
(-0.000347853 0.00281133 0.0131838)
(0.00124318 0.00271346 0.0134956)
(0.00152114 0.00250548 0.014418)
(0.00244989 0.00237557 0.0149422)
(0.00210705 0.00211579 0.0164429)
(0.000729479 0.000752748 -0.00844316)
(0.00387672 0.000618555 -0.00723649)
(0.00446864 0.000352663 -0.00512784)
(0.00588916 0.000162669 -0.00349041)
(0.00445516 -0.000127672 -0.000510171)
(0.000594201 0.00390133 -0.00723552)
(0.00361307 0.00363967 -0.00617139)
(0.00411712 0.00307921 -0.00427359)
(0.00550567 0.00270841 -0.00277946)
(0.00425887 0.00216289 -2.41558e-05)
(0.00032841 0.00449142 -0.00512499)
(0.00305459 0.00414189 -0.00427162)
(0.00353748 0.0035622 -0.00250069)
(0.00497249 0.0032243 -0.00132196)
(0.00389061 0.00259217 0.00121463)
(0.000138673 0.00591191 -0.00348717)
(0.00268376 0.00553079 -0.00277726)
(0.00319952 0.00499548 -0.00132155)
(0.004535 0.00455928 -0.000312158)
(0.00360511 0.00383569 0.00196218)
(-0.000152617 0.00447465 -0.000504459)
(0.00213851 0.00428074 -1.89852e-05)
(0.0025666 0.00391038 0.00121737)
(0.00381269 0.00362618 0.00196477)
(0.00314163 0.00316269 0.00399391)
(0.00123981 0.00125259 -0.00426325)
(0.00534486 0.00102027 -0.00150629)
(0.00608207 0.000563875 0.00188116)
(0.00806428 0.000362056 0.00512688)
(0.00594644 -0.000137041 0.00975595)
(0.0010066 0.00535845 -0.00150354)
(0.00483541 0.00484964 0.000646186)
(0.00561609 0.00431216 0.00357941)
(0.00756126 0.00372015 0.00639055)
(0.00561457 0.0029814 0.0105654)
(0.000550529 0.00609506 0.00189296)
(0.00429856 0.00562946 0.00359156)
(0.00495303 0.00496586 0.00629896)
(0.00673319 0.00432692 0.00867413)
(0.00517586 0.00351918 0.0125108)
(0.000347649 0.00807752 0.00513973)
(0.00370579 0.00757554 0.00640371)
(0.00431356 0.00674589 0.00867384)
(0.00611346 0.00612692 0.0105347)
(0.00476994 0.00523918 0.013821)
(-0.000150906 0.00595679 0.00977934)
(0.00296728 0.00562622 0.0105927)
(0.00350555 0.00518646 0.0125222)
(0.00522648 0.00478131 0.0138351)
(0.00424664 0.00425801 0.0166144)
(0.0034045 0.00343679 -0.0228629)
(0.0100217 0.0026917 -0.0179996)
(0.0110942 0.0019051 -0.0128961)
(0.0137593 0.0012573 -0.00775783)
(0.00931489 0.000435536 -0.00169559)
(0.00265821 0.0100581 -0.0179982)
(0.00869155 0.00873303 -0.0142024)
(0.00985137 0.00749034 -0.00998796)
(0.0124876 0.00625104 -0.00576759)
(0.00864933 0.00491566 -0.000410832)
(0.00187092 0.0111271 -0.0128925)
(0.00745392 0.00988928 -0.00998584)
(0.00861206 0.00864862 -0.00636498)
(0.0111831 0.00736254 -0.00283209)
(0.00792815 0.0058473 0.00196641)
(0.00122299 0.0137936 -0.00775407)
(0.00621326 0.0125277 -0.00576559)
(0.00732461 0.0112175 -0.00283198)
(0.00968425 0.00972234 -0.00022063)
(0.00707421 0.0079473 0.00372707)
(0.000398528 0.00934515 -0.00168984)
(0.00487932 0.00868555 -0.000406484)
(0.00580862 0.00795986 0.00196855)
(0.00791288 0.00710963 0.00372873)
(0.00608357 0.00611898 0.00731551)
(0.00595599 0.00597103 -0.034073)
(0.015311 0.00469828 -0.02251)
(0.0163257 0.00319768 -0.0133979)
(0.0192822 0.00211373 -0.00313559)
(0.0123361 0.000736698 0.00646277)
(0.00468229 0.0153282 -0.0225135)
(0.0128463 0.0128641 -0.0143853)
(0.0140541 0.0108468 -0.00739643)
(0.0171564 0.00865166 0.000730973)
(0.0112728 0.00664341 0.0087282)
(0.0031818 0.016341 -0.0133841)
(0.0108296 0.0140694 -0.00737467)
(0.0121129 0.012128 -0.00118365)
(0.0150769 0.00987871 0.00515903)
(0.0102458 0.00765298 0.0125625)
(0.00209713 0.0192977 -0.00312326)
(0.00863364 0.017173 0.000748895)
(0.00986334 0.0150917 0.0051546)
(0.0126779 0.0126931 0.00964635)
(0.00894766 0.0105884 0.0155578)
(0.000719751 0.0123485 0.00649328)
(0.00662567 0.0112868 0.00877144)
(0.00763665 0.0102585 0.0125796)
(0.0105736 0.00896074 0.0155804)
(0.00803449 0.00804757 0.0210581)
(0.0147374 0.0147814 -0.0689896)
(0.0306966 0.010606 -0.0469178)
(0.0304738 0.00756529 -0.0328877)
(0.0336275 0.00479515 -0.0164753)
(0.0193848 0.00225692 -0.00401775)
(0.0105627 0.0307467 -0.0469198)
(0.0238099 0.0238697 -0.0318963)
(0.0249719 0.019707 -0.0226697)
(0.0286143 0.0145411 -0.0102771)
(0.0170633 0.011017 -0.000490587)
(0.00751665 0.0305225 -0.0328851)
(0.0196568 0.0250277 -0.0226661)
(0.0211408 0.0211948 -0.0144305)
(0.0249323 0.0162686 -0.00505314)
(0.0157216 0.0126793 0.00405156)
(0.00474743 0.0336786 -0.0164739)
(0.0144865 0.0286759 -0.0102753)
(0.0162128 0.0249839 -0.00505291)
(0.0200969 0.0201531 0.00129876)
(0.0133183 0.0164567 0.00812028)
(0.00220085 0.0194335 -0.00401318)
(0.0109673 0.0171254 -0.000486407)
(0.01262 0.0157753 0.00405288)
(0.0164052 0.0133768 0.00812162)
(0.011871 0.0119295 0.0140147)
(0.0278884 0.0279047 -0.122735)
(0.0514059 0.0196115 -0.072783)
(0.0467855 0.012949 -0.0448682)
(0.048167 0.00796587 -0.0142949)
(0.0254567 0.00355645 0.00641792)
(0.0195939 0.0514258 -0.0727911)
(0.0370891 0.0371086 -0.0429337)
(0.0356797 0.029301 -0.0253071)
(0.0393477 0.0200727 -0.00367782)
(0.0216332 0.0147083 0.0116511)
(0.0129308 0.0468042 -0.044851)
(0.0292812 0.0356968 -0.0252696)
(0.0297292 0.029748 -0.010982)
(0.033569 0.0214525 0.0046269)
(0.0198744 0.0162533 0.0183602)
(0.00794862 0.0481845 -0.0142836)
(0.0200536 0.0393649 -0.00365406)
(0.0214355 0.0335852 0.00461703)
(0.0258526 0.0258694 0.0147528)
(0.016202 0.0205539 0.0239717)
(0.00353786 0.0254723 0.00645807)
(0.0146873 0.0216498 0.0117205)
(0.0162341 0.0198881 0.0183827)
(0.0205378 0.0162164 0.0240076)
(0.0143189 0.0143334 0.0322446)
(0.0647424 0.0648045 -0.259211)
(0.10853 0.0402921 -0.130543)
(0.0890032 0.0266465 -0.0806571)
(0.0849151 0.0150561 -0.0283365)
(0.0411533 0.00694745 -0.00315337)
(0.0402449 0.108598 -0.130552)
(0.0712445 0.0713335 -0.0643716)
(0.0642476 0.0535718 -0.04392)
(0.0655784 0.0334554 -0.0104091)
(0.0332547 0.0229647 0.00518015)
(0.0265788 0.0890713 -0.080653)
(0.0535045 0.0643271 -0.0439107)
(0.051043 0.0511245 -0.0256604)
(0.0542934 0.0347034 -0.00248488)
(0.0302455 0.0250048 0.011964)
(0.0149988 0.0849892 -0.0283416)
(0.0333796 0.065672 -0.0104103)
(0.0346239 0.0543676 -0.00248706)
(0.039473 0.0395555 0.0107111)
(0.0231492 0.0303686 0.0192307)
(0.00686711 0.0412317 -0.00315174)
(0.0228974 0.0333637 0.00518133)
(0.0249122 0.0303324 0.011963)
(0.0302945 0.0232444 0.0192292)
(0.0206538 0.020749 0.0269548)
(0.159824 0.159843 -0.404503)
(0.229337 0.086279 -0.19919)
(0.149085 0.0488993 -0.0940444)
(0.125592 0.0254663 -0.0161127)
(0.0521205 0.0106968 0.0223068)
(0.0862482 0.229361 -0.199211)
(0.123497 0.123518 -0.0850227)
(0.0896932 0.0842004 -0.0379533)
(0.0884057 0.0458919 0.00802187)
(0.0383466 0.0297881 0.0310531)
(0.0488629 0.149107 -0.0940301)
(0.0841761 0.0897093 -0.0378862)
(0.0711697 0.0711957 -0.00763297)
(0.0711694 0.0425624 0.0205739)
(0.0352969 0.0302584 0.0403451)
(0.0254504 0.125607 -0.0161158)
(0.0458755 0.0884146 0.0080448)
(0.0425465 0.0711845 0.0205503)
(0.0475236 0.0475365 0.0366066)
(0.0254105 0.0355145 0.0472311)
(0.0106717 0.0521424 0.0223405)
(0.0297643 0.0383651 0.0311575)
(0.0302366 0.0353114 0.0403695)
(0.0354996 0.025423 0.0472828)
(0.0226683 0.022681 0.0566149)
(0.256116 0.256223 -1.16981)
(0.517306 0.159415 -0.339956)
(0.272289 0.0823553 -0.136269)
(0.201109 0.0390638 -0.0132109)
(0.0819678 0.0147062 0.0201925)
(0.1594 0.517337 -0.339935)
(0.232323 0.232455 -0.0779212)
(0.157436 0.139678 -0.0415614)
(0.134567 0.0700897 0.0208474)
(0.0579341 0.0410179 0.0326115)
(0.0822686 0.272376 -0.136235)
(0.139597 0.157537 -0.0415296)
(0.109603 0.109728 -0.00914688)
(0.102316 0.0633623 0.0260112)
(0.0514454 0.041207 0.038655)
(0.0390209 0.201204 -0.0132212)
(0.0699939 0.134698 0.0208403)
(0.06326 0.102415 0.0260076)
(0.066194 0.0663047 0.042047)
(0.0347084 0.0466851 0.0455518)
(0.0145888 0.0820844 0.0201842)
(0.0409414 0.0581271 0.0326026)
(0.0410619 0.0515815 0.0386477)
(0.0465865 0.0348564 0.0455417)
(0.0308354 0.0309833 0.0502882)
(0.786741 0.786867 -3.54001)
(1.30578 0.32043 -0.748725)
(0.420609 0.144356 0.00217834)
(0.28095 0.0597752 0.0671738)
(0.0882626 0.0211822 0.0922301)
(0.320088 1.30553 -0.748459)
(0.420154 0.420141 -0.0472298)
(0.187065 0.210574 0.0533504)
(0.162176 0.0846918 0.0864869)
(0.0517552 0.0481279 0.0926987)
(0.144172 0.42066 0.00218632)
(0.210515 0.187074 0.0534609)
(0.138698 0.138752 0.0780252)
(0.118705 0.0636582 0.0880686)
(0.0493155 0.0431404 0.097163)
(0.0597865 0.280921 0.067136)
(0.0846823 0.162144 0.0864851)
(0.0636493 0.118712 0.0880282)
(0.0668809 0.0668798 0.0947507)
(0.0297628 0.0470932 0.0953731)
(0.0211339 0.088284 0.0922316)
(0.0481048 0.0517686 0.09281)
(0.043118 0.0493244 0.0971769)
(0.0470857 0.0297643 0.0954237)
(0.0282455 0.0282475 0.0982174)
(0.0169762 0.0166649 -8.53599)
(3.06229 0.282952 -0.190253)
(0.432406 0.133401 0.284981)
(0.281412 0.0601807 0.154877)
(0.110627 0.0135636 0.130126)
(0.279211 3.06327 -0.191952)
(0.407062 0.407003 0.382597)
(0.208872 0.209722 0.20824)
(0.172264 0.0902238 0.137212)
(0.0661535 0.0458656 0.113999)
(0.133467 0.43259 0.284977)
(0.20965 0.20902 0.208253)
(0.143142 0.143339 0.161279)
(0.121306 0.0716693 0.121381)
(0.0622197 0.0438592 0.102417)
(0.0602487 0.281505 0.154894)
(0.0901276 0.172396 0.137223)
(0.0715699 0.12142 0.121389)
(0.0734691 0.07359 0.103146)
(0.0362245 0.0477036 0.0905599)
(0.0134079 0.110786 0.13008)
(0.0458 0.0664622 0.113957)
(0.0436539 0.0624125 0.102394)
(0.047591 0.0364238 0.0905338)
(0.0344791 0.0346783 0.0822566)
(0.00243703 0.00210983 -8.68813)
(0.100066 -0.0827979 -2.98245)
(0.232775 0.065535 0.454704)
(0.115546 0.0435261 0.239847)
(0.0662208 0.00358279 0.216169)
(-0.0854053 0.100798 -2.98012)
(0.0943545 0.0943344 0.411706)
(0.0556012 0.0779472 0.319239)
(0.0692865 0.0512421 0.217793)
(0.0299212 0.0203054 0.186581)
(0.0651399 0.232748 0.454625)
(0.0779026 0.0554955 0.319289)
(0.0534278 0.0534924 0.265073)
(0.060208 0.0299861 0.196134)
(0.0314214 0.0197096 0.171918)
(0.0435347 0.11547 0.239831)
(0.0512246 0.0692012 0.217824)
(0.0299669 0.0601921 0.196122)
(0.0361582 0.0361392 0.168595)
(0.0176095 0.0269618 0.151535)
(0.00353868 0.0661754 0.21612)
(0.0203086 0.0298778 0.186573)
(0.0197059 0.031399 0.171901)
(0.0269773 0.0175847 0.151534)
(0.020396 0.0203712 0.139755)
(0.105106 0.105155 -9.56187)
(-0.210916 -0.159823 -0.918371)
(0.209783 -0.0145701 0.268965)
(0.0338722 0.0382694 0.204849)
(0.0884578 -0.0159561 0.140881)
(-0.159309 -0.210677 -0.918519)
(0.0380432 0.0379439 0.224098)
(0.030282 0.00539629 0.221589)
(0.0425719 0.0474668 0.16892)
(0.0348667 0.00161085 0.123386)
(-0.0149104 0.209886 0.268817)
(0.00540595 0.030461 0.221471)
(0.0230679 0.023328 0.188483)
(0.0284174 0.0224469 0.143747)
(0.0381426 0.00882035 0.113727)
(0.0381565 0.0340045 0.204861)
(0.0473653 0.0426334 0.168896)
(0.0223144 0.0285134 0.143765)
(0.028914 0.0290212 0.119963)
(0.0189759 0.0155353 0.0972271)
(-0.0161385 0.0885768 0.140798)
(0.0015734 0.0351355 0.123299)
(0.00861866 0.0383277 0.113693)
(0.0154408 0.019173 0.0971947)
(0.0226546 0.0228519 0.0841855)
(0.00146482 0.00162027 -9.68733)
(0.466641 0.178016 -1.13249)
(-0.0170945 -0.0065704 0.31697)
(-0.0269636 0.00788297 0.277689)
(0.00240991 -0.0135193 0.195709)
(0.177842 0.466977 -1.13219)
(0.108752 0.108657 0.208147)
(-0.0747539 -0.0218267 0.295175)
(-0.024879 -0.00797198 0.233946)
(-0.0168519 -0.00684465 0.185617)
(-0.00641447 -0.0173212 0.316976)
(-0.0217331 -0.0748468 0.294946)
(-0.0208422 -0.0208748 0.243391)
(-0.0139389 -0.0187409 0.208661)
(0.000441043 -0.00647034 0.172468)
(0.00786515 -0.0269868 0.277725)
(-0.00799187 -0.0249404 0.23392)
(-0.0187356 -0.0139886 0.208713)
(-0.0102425 -0.0102753 0.183487)
(-0.00606595 -0.00248525 0.160056)
(-0.0134517 0.00226036 0.19565)
(-0.0067907 -0.0169597 0.185445)
(-0.006418 0.000365295 0.17243)
(-0.00243617 -0.0061242 0.159986)
(0.00683235 0.00677346 0.145699)
(0.00432638 0.0044944 -9.71079)
(-0.296574 0.0183853 -1.22617)
(-0.114676 -0.0652693 0.263861)
(-0.113252 -0.00526417 0.168615)
(0.00365219 -0.0250065 0.101025)
(0.0176618 -0.296662 -1.2259)
(-0.191388 -0.191104 0.296311)
(-0.108956 -0.0939673 0.204616)
(-0.0658912 -0.0207215 0.129155)
(-0.0162893 -0.021849 0.0858589)
(-0.0653313 -0.114674 0.263899)
(-0.0939855 -0.108853 0.204592)
(-0.0625054 -0.0624417 0.150488)
(-0.0429408 -0.028309 0.106702)
(-2.66727e-05 -0.0168169 0.0741199)
(-0.0053864 -0.113203 0.16854)
(-0.0208046 -0.0657701 0.129119)
(-0.0284147 -0.0428853 0.106692)
(-0.0198416 -0.0197524 0.0831676)
(-0.00598019 -0.0113126 0.0615058)
(-0.0250761 0.00366458 0.101031)
(-0.0218605 -0.0161748 0.0858439)
(-0.0169167 6.12503e-05 0.0741186)
(-0.0113685 -0.00585731 0.0615013)
(0.00731498 0.00743813 0.0491007)
(-0.513487 -0.513639 -7.9894)
(-0.72403 -0.34475 -0.479484)
(-0.334635 -0.0905715 0.171397)
(-0.207258 -0.0300465 0.192109)
(-0.0712262 -0.0266405 0.150114)
(-0.344535 -0.724038 -0.479286)
(-0.367379 -0.367441 0.1619)
(-0.204933 -0.152624 0.198884)
(-0.137938 -0.0677262 0.180647)
(-0.0638088 -0.0329291 0.150998)
(-0.0904782 -0.334599 0.1714)
(-0.152567 -0.204984 0.198831)
(-0.114023 -0.114076 0.172276)
(-0.0880508 -0.0635374 0.16597)
(-0.0349691 -0.0303328 0.14321)
(-0.0299996 -0.207294 0.192074)
(-0.0676809 -0.137991 0.180592)
(-0.0634951 -0.0880993 0.165987)
(-0.0544626 -0.0545104 0.156126)
(-0.0295328 -0.0270589 0.140528)
(-0.0265819 -0.0712868 0.150077)
(-0.0328874 -0.0638913 0.150876)
(-0.0302728 -0.0350339 0.143178)
(-0.0270094 -0.0295959 0.140464)
(-0.0067808 -0.00684382 0.130119)
(-0.627058 -0.627108 -3.52258)
(-0.428796 -0.248872 -0.525801)
(-0.215402 -0.0642161 -0.0646655)
(-0.153044 -0.0170055 -0.0161732)
(-0.0479537 -0.0227962 -0.0130822)
(-0.248836 -0.428779 -0.525749)
(-0.262531 -0.262501 -0.0460967)
(-0.178586 -0.111347 -0.018501)
(-0.113472 -0.0479609 -0.00816007)
(-0.0521714 -0.0291184 -0.00770983)
(-0.0642245 -0.215343 -0.0646561)
(-0.111351 -0.178565 -0.0184915)
(-0.0951676 -0.0951384 -0.0144841)
(-0.072679 -0.0536719 -0.00598499)
(-0.027215 -0.0276766 -0.0109476)
(-0.0170285 -0.153021 -0.0161697)
(-0.0479927 -0.113419 -0.00816119)
(-0.0537241 -0.0726551 -0.00598844)
(-0.0459179 -0.0458737 -0.00566392)
(-0.0244322 -0.0247355 -0.0086467)
(-0.0228236 -0.0479439 -0.0130731)
(-0.0291247 -0.0521275 -0.00769635)
(-0.0277171 -0.0271783 -0.0109426)
(-0.0247599 -0.0243747 -0.00864112)
(-0.00481717 -0.00475951 -0.0143642)
(-0.527342 -0.527399 -2.42995)
(-0.382018 -0.209896 -0.338213)
(-0.223277 -0.0594536 0.0826043)
(-0.166064 -0.0218338 0.118145)
(-0.074313 -0.0196269 0.112098)
(-0.209836 -0.382034 -0.338195)
(-0.241575 -0.241632 0.0627855)
(-0.174737 -0.113473 0.110063)
(-0.126343 -0.0573075 0.118391)
(-0.0677283 -0.0304799 0.117624)
(-0.0593975 -0.223325 0.0825876)
(-0.113427 -0.174792 0.110023)
(-0.10074 -0.100786 0.112547)
(-0.0840463 -0.0607237 0.120637)
(-0.0429529 -0.0309412 0.114273)
(-0.0217936 -0.166103 0.118125)
(-0.0572688 -0.126396 0.118349)
(-0.0606798 -0.084091 0.120646)
(-0.0568041 -0.0568507 0.12141)
(-0.0345174 -0.0301475 0.117811)
(-0.019578 -0.0743694 0.112056)
(-0.0304415 -0.0677954 0.11754)
(-0.0308889 -0.0430087 0.114248)
(-0.0301025 -0.0345744 0.117766)
(-0.0137523 -0.0138092 0.111757)
(-0.412253 -0.412268 -1.7436)
(-0.319522 -0.177999 -0.403806)
(-0.177741 -0.0462986 -0.140827)
(-0.136941 -0.0168006 -0.107789)
(-0.0603504 -0.0163332 -0.0836615)
(-0.177995 -0.319521 -0.403795)
(-0.203743 -0.203739 -0.147532)
(-0.142803 -0.0932512 -0.113503)
(-0.107093 -0.0457054 -0.0984541)
(-0.0571589 -0.0270585 -0.0777674)
(-0.0462893 -0.177751 -0.140816)
(-0.0932426 -0.142798 -0.11349)
(-0.0856654 -0.0856651 -0.0983398)
(-0.0713324 -0.0508795 -0.0856585)
(-0.0367726 -0.0276578 -0.0756334)
(-0.0167999 -0.136944 -0.107784)
(-0.0457095 -0.107082 -0.0984456)
(-0.05089 -0.0713333 -0.0856612)