/*--------------------------------*- C++ -*----------------------------------*\
| =========                 |                                                 |
| \\      /  F ield         | OpenFOAM: The Open Source CFD Toolbox           |
|  \\    /   O peration     | Version:  5.x                                   |
|   \\  /    A nd           | Web:      www.OpenFOAM.org                      |
|    \\/     M anipulation  |                                                 |
\*---------------------------------------------------------------------------*/
FoamFile
{
    version     2.0;
    format      ascii;
    class       volVectorField;
    location    "0.078";
    object      U;
}
// * * * * * * * * * * * * * * * * * * * * * * * * * * * * * * * * * * * * * //

dimensions      [0 1 -1 0 0 0 0];

internalField   nonuniform List<vector> 
1546
(
(-4.24039e-05 -5.74694e-06 0.033202)
(-4.60948e-05 -7.04524e-06 0.0331674)
(-3.1034e-05 -7.57157e-06 0.0331652)
(-2.99559e-05 -8.54756e-06 0.0331551)
(-1.11091e-05 -9.11404e-06 0.0331575)
(-4.2804e-05 1.19834e-05 0.0332008)
(-4.66707e-05 1.12075e-05 0.033166)
(-3.15506e-05 1.08222e-05 0.0331639)
(-3.04948e-05 1.00956e-05 0.0331538)
(-1.16119e-05 9.60681e-06 0.0331564)
(-4.31866e-05 1.44205e-05 0.0332065)
(-4.72556e-05 1.38618e-05 0.0331718)
(-3.21458e-05 1.35785e-05 0.0331696)
(-3.11713e-05 1.30058e-05 0.0331595)
(-1.2367e-05 1.26097e-05 0.0331621)
(-4.33647e-05 2.84939e-05 0.0332089)
(-4.75123e-05 2.81583e-05 0.0331741)
(-3.24067e-05 2.79209e-05 0.0331721)
(-3.14637e-05 2.74674e-05 0.033162)
(-1.2676e-05 2.7088e-05 0.0331646)
(-4.35168e-05 2.85197e-05 0.0332342)
(-4.78284e-05 2.83674e-05 0.0331996)
(-3.28368e-05 2.82093e-05 0.0331975)
(-3.20043e-05 2.79389e-05 0.0331874)
(-1.3384e-05 2.76682e-05 0.0331899)
(-4.20115e-06 -7.23574e-06 -0.0173223)
(-7.11557e-06 -6.75337e-06 -0.0173176)
(-1.07933e-05 -6.76024e-06 -0.0173181)
(-1.23958e-05 -6.78788e-06 -0.0173178)
(-9.26911e-06 -7.03549e-06 -0.0173189)
(-4.11837e-06 -2.53939e-06 -0.0173223)
(-7.07365e-06 -2.40758e-06 -0.0173175)
(-1.09145e-05 -2.52281e-06 -0.017318)
(-1.26124e-05 -2.69357e-06 -0.0173177)
(-9.58017e-06 -2.9888e-06 -0.0173189)
(-4.05538e-06 -1.28654e-06 -0.0173222)
(-7.0983e-06 -1.26434e-06 -0.0173175)
(-1.10793e-05 -1.40364e-06 -0.017318)
(-1.28618e-05 -1.58066e-06 -0.0173177)
(-9.94843e-06 -1.85005e-06 -0.017319)
(-4.08614e-06 -2.50287e-06 -0.0173223)
(-7.19027e-06 -2.55726e-06 -0.0173176)
(-1.12308e-05 -2.69664e-06 -0.0173181)
(-1.30588e-05 -2.88209e-06 -0.0173179)
(-1.01865e-05 -3.12068e-06 -0.0173191)
(-4.10326e-06 -9.08714e-07 -0.0173255)
(-7.29187e-06 -9.2581e-07 -0.0173208)
(-1.14042e-05 -1.00523e-06 -0.0173213)
(-1.32858e-05 -1.09632e-06 -0.0173211)
(-1.05038e-05 -1.23054e-06 -0.0173224)
(-3.83888e-05 -5.855e-06 0.0251658)
(-4.27162e-05 -6.97636e-06 0.02514)
(-3.18904e-05 -7.46174e-06 0.0251373)
(-3.14449e-05 -8.51168e-06 0.0251225)
(-1.25685e-05 -9.14811e-06 0.0251214)
(-3.87645e-05 1.24435e-05 0.0251663)
(-4.32626e-05 1.17154e-05 0.0251402)
(-3.24405e-05 1.13182e-05 0.0251375)
(-3.20568e-05 1.05103e-05 0.0251225)
(-1.3169e-05 9.93159e-06 0.0251214)
(-3.91218e-05 1.47917e-05 0.0251769)
(-4.38412e-05 1.42482e-05 0.0251507)
(-3.30956e-05 1.3929e-05 0.025148)
(-3.28315e-05 1.3282e-05 0.0251329)
(-1.40569e-05 1.27964e-05 0.0251316)
(-3.93085e-05 2.58047e-05 0.0251788)
(-4.41249e-05 2.54688e-05 0.0251526)
(-3.34067e-05 2.52013e-05 0.0251498)
(-3.31895e-05 2.47024e-05 0.0251346)
(-1.44447e-05 2.42633e-05 0.0251333)
(-3.94507e-05 2.58737e-05 0.025199)
(-4.44444e-05 2.57314e-05 0.025173)
(-3.38621e-05 2.55614e-05 0.0251702)
(-3.37695e-05 2.52781e-05 0.025155)
(-1.52365e-05 2.4981e-05 0.0251536)
(-3.09802e-05 -7.81834e-06 -0.00988927)
(-3.55916e-05 -7.97712e-06 -0.00990471)
(-2.82512e-05 -8.20582e-06 -0.00990746)
(-2.8309e-05 -8.64203e-06 -0.00991856)
(-1.26452e-05 -9.08012e-06 -0.00992077)
(-3.10989e-05 8.4961e-06 -0.009889)
(-3.58128e-05 8.34374e-06 -0.00990449)
(-2.85645e-05 8.09639e-06 -0.00990726)
(-2.87015e-05 7.67028e-06 -0.00991846)
(-1.31162e-05 7.20476e-06 -0.00992075)
(-3.11161e-05 1.12029e-05 -0.00988044)
(-3.59906e-05 1.10847e-05 -0.00989586)
(-2.89247e-05 1.08636e-05 -0.00989868)
(-2.92006e-05 1.05017e-05 -0.00990994)
(-1.38368e-05 1.00862e-05 -0.00991234)
(-3.1201e-05 1.97303e-05 -0.00987899)
(-3.61515e-05 1.96948e-05 -0.00989442)
(-2.91475e-05 1.94944e-05 -0.00989726)
(-2.9479e-05 1.92016e-05 -0.00990857)
(-1.41825e-05 1.88158e-05 -0.00991101)
(-3.11329e-05 2.02847e-05 -0.00986575)
(-3.62263e-05 2.03528e-05 -0.0098811)
(-2.94181e-05 2.02273e-05 -0.00988395)
(-2.98794e-05 2.00924e-05 -0.00989523)
(-1.48624e-05 1.98342e-05 -0.00989777)
(-5.46673e-05 -6.44708e-06 0.0191186)
(-6.09934e-05 -7.70827e-06 0.0190833)
(-4.57929e-05 -8.28498e-06 0.0190783)
(-4.48044e-05 -9.61749e-06 0.0190549)
(-1.63557e-05 -1.04463e-05 0.0190515)
(-5.5093e-05 2.13116e-05 0.0191198)
(-6.16184e-05 2.06032e-05 0.0190843)
(-4.64715e-05 2.01395e-05 0.0190792)
(-4.55855e-05 1.91711e-05 0.0190555)
(-1.71717e-05 1.84044e-05 0.019052)
(-5.53707e-05 2.48281e-05 0.0191381)
(-6.2165e-05 2.43518e-05 0.0191025)
(-4.72249e-05 2.39762e-05 0.0190974)
(-4.65394e-05 2.32246e-05 0.0190735)
(-1.84297e-05 2.25727e-05 0.0190698)
(-5.55587e-05 4.04541e-05 0.0191413)
(-6.24698e-05 4.03033e-05 0.0191057)
(-4.75986e-05 4.00066e-05 0.0191005)
(-4.6989e-05 3.9492e-05 0.0190766)
(-1.89726e-05 3.8911e-05 0.0190728)
(-5.54986e-05 3.97814e-05 0.0191708)
(-6.26123e-05 3.98415e-05 0.0191356)
(-4.80366e-05 3.96619e-05 0.0191304)
(-4.76353e-05 3.94155e-05 0.0191065)
(-2.01114e-05 3.90227e-05 0.0191026)
(-6.77297e-05 -7.67282e-06 -0.00484637)
(-7.58154e-05 -8.6085e-06 -0.00488698)
(-5.65977e-05 -9.14105e-06 -0.00489339)
(-5.50342e-05 -1.03091e-05 -0.0049209)
(-1.90173e-05 -1.11503e-05 -0.00492542)
(-6.80713e-05 2.79407e-05 -0.00484506)
(-7.63449e-05 2.75359e-05 -0.00488579)
(-5.72331e-05 2.71123e-05 -0.00489227)
(-5.57973e-05 2.62784e-05 -0.00491997)
(-1.98782e-05 2.54745e-05 -0.00492463)
(-6.81079e-05 3.26785e-05 -0.00482318)
(-7.66429e-05 3.24904e-05 -0.00486361)
(-5.78552e-05 3.21511e-05 -0.00487012)
(-5.66719e-05 3.1531e-05 -0.00489782)
(-2.12248e-05 3.08399e-05 -0.00490269)
(-6.82275e-05 5.25868e-05 -0.0048192)
(-7.68713e-05 5.27632e-05 -0.00485957)
(-5.81925e-05 5.25077e-05 -0.00486609)
(-5.71086e-05 5.21365e-05 -0.00489382)
(-2.18177e-05 5.15117e-05 -0.00489878)
(-6.78844e-05 5.12852e-05 -0.00478445)
(-7.67219e-05 5.16283e-05 -0.00482424)
(-5.84826e-05 5.14808e-05 -0.0048307)
(-5.76685e-05 5.13663e-05 -0.00485817)
(-2.3056e-05 5.0942e-05 -0.00486326)
(-9.72609e-05 -6.44707e-06 0.014856)
(-0.000108152 -8.21243e-06 0.0147923)
(-7.9776e-05 -9.04361e-06 0.014782)
(-7.68906e-05 -1.10309e-05 0.0147392)
(-2.40095e-05 -1.22838e-05 0.0147323)
(-9.77932e-05 4.4541e-05 0.0148588)
(-0.000108955 4.40301e-05 0.0147949)
(-8.07181e-05 4.34675e-05 0.0147846)
(-7.80116e-05 4.23054e-05 0.0147415)
(-2.52636e-05 4.11853e-05 0.0147344)
(-9.77389e-05 5.07292e-05 0.0148939)
(-0.000109224 5.06335e-05 0.0148302)
(-8.15007e-05 5.02144e-05 0.0148198)
(-7.91728e-05 4.94268e-05 0.0147766)
(-2.72576e-05 4.84847e-05 0.0147693)
(-9.78447e-05 7.9159e-05 0.0149008)
(-0.000109469 7.97873e-05 0.0148373)
(-8.19248e-05 7.95452e-05 0.0148269)
(-7.97413e-05 7.92649e-05 0.0147837)
(-2.80965e-05 7.84574e-05 0.0147763)
(-9.70383e-05 7.62046e-05 0.0149558)
(-0.000108838 7.70109e-05 0.0148933)
(-8.20241e-05 7.6908e-05 0.0148831)
(-8.02615e-05 7.69563e-05 0.0148402)
(-2.9869e-05 7.64212e-05 0.0148326)
(-0.000134286 -6.18396e-06 -0.00134623)
(-0.000149797 -8.06465e-06 -0.00143095)
(-0.000109589 -8.99922e-06 -0.0014449)
(-0.00010464 -1.12341e-05 -0.00150159)
(-3.0293e-05 -1.271e-05 -0.00151076)
(-0.000134797 6.57295e-05 -0.00134233)
(-0.000150586 6.54158e-05 -0.00142708)
(-0.000110586 6.48973e-05 -0.0014411)
(-0.000105875 6.36547e-05 -0.00149803)
(-3.17857e-05 6.23848e-05 -0.00150743)
(-0.000134532 7.45671e-05 -0.00129614)
(-0.000150627 7.47961e-05 -0.00137971)
(-0.00011135 7.44743e-05 -0.00139358)
(-0.000107153 7.37107e-05 -0.00145008)
(-3.41544e-05 7.26661e-05 -0.00145973)
(-0.000134484 0.000114641 -0.00128668)
(-0.000150677 0.000115837 -0.00136982)
(-0.000111672 0.000115767 -0.0013836)
(-0.000107684 0.000115664 -0.00143996)
(-3.51342e-05 0.000114799 -0.00144969)
(-0.000133209 0.000109014 -0.00121391)
(-0.000149501 0.000110289 -0.00129498)
(-0.000111524 0.000110316 -0.00130831)
(-0.000108122 0.000110518 -0.00136356)
(-3.72386e-05 0.000109942 -0.00137333)
(-0.000186011 -4.09656e-06 0.0118472)
(-0.000207025 -6.70724e-06 0.0117226)
(-0.000150505 -7.95535e-06 0.0116999)
(-0.000142833 -1.10917e-05 0.0116169)
(-3.82708e-05 -1.3094e-05 0.0116023)
(-0.000186561 9.46936e-05 0.0118544)
(-0.000207924 9.53412e-05 0.01173)
(-0.000151759 9.48628e-05 0.0117074)
(-0.000144431 9.38894e-05 0.0116243)
(-4.02937e-05 9.22893e-05 0.0116096)
(-0.000185249 0.00010643 0.011924)
(-0.000206853 0.000107972 0.0118008)
(-0.000151957 0.00010779 0.0117787)
(-0.000145406 0.000107574 0.0116957)
(-4.35417e-05 0.000106308 0.0116809)
(-0.000184877 0.00016138 0.0119398)
(-0.000206561 0.000164696 0.0118176)
(-0.000152157 0.000164994 0.0117958)
(-0.000145913 0.000165979 0.0117133)
(-4.48397e-05 0.000165049 0.0116985)
(-0.00018172 0.000152457 0.0120483)
(-0.000203239 0.000155614 0.0119289)
(-0.000150677 0.000155992 0.0119081)
(-0.000145354 0.000157236 0.0118268)
(-4.76337e-05 0.000156665 0.0118122)
(-0.000264502 -5.67256e-07 0.00101864)
(-0.000297056 -3.46654e-06 0.000847823)
(-0.000215193 -4.84324e-06 0.000816205)
(-0.000202153 -8.50332e-06 0.000702462)
(-5.15014e-05 -1.08528e-05 0.000682669)
(-0.000264779 0.000142459 0.00102906)
(-0.000297577 0.000143529 0.000858861)
(-0.000216238 0.000143558 0.000827481)
(-0.000203639 0.000142359 0.000713739)
(-5.3884e-05 0.000140831 0.000693726)
(-0.000263234 0.000159897 0.00112214)
(-0.000295952 0.000162296 0.000955873)
(-0.000216363 0.000162805 0.000925456)
(-0.000204881 0.00016267 0.000813937)
(-5.76847e-05 0.000161556 0.000793952)
(-0.000262139 0.000239135 0.00114429)
(-0.000294664 0.000243928 0.000979865)
(-0.000215864 0.000245209 0.000950117)
(-0.000204888 0.000246736 0.000839535)
(-5.91239e-05 0.000246122 0.000819788)
(-0.00025809 0.000222802 0.00128989)
(-0.000289879 0.000226851 0.00113174)
(-0.00021356 0.000227937 0.00110387)
(-0.000203971 0.000229394 0.000997058)
(-6.22778e-05 0.000229048 0.000977933)
(-0.000364885 4.86253e-06 0.00970945)
(-0.000409775 1.38015e-06 0.00946009)
(-0.000295982 -2.14669e-07 0.00940644)
(-0.000276476 -4.99113e-06 0.00924189)
(-6.58188e-05 -8.09873e-06 0.00920819)
(-0.000364779 0.000198275 0.00972787)
(-0.000409822 0.000203483 0.00948058)
(-0.000296995 0.000204207 0.00942772)
(-0.000278291 0.00020546 0.00926426)
(-6.89671e-05 0.000203669 0.0092311)
(-0.000359324 0.000221731 0.00986661)
(-0.000403836 0.000229077 0.00962303)
(-0.000294004 0.00023053 0.00957279)
(-0.000277014 0.000233476 0.0094101)
(-7.41035e-05 0.000232477 0.00937801)
(-0.000357002 0.000329163 0.00990356)
(-0.000401014 0.000340839 0.00966424)
(-0.000292596 0.000343702 0.00961566)
(-0.000276344 0.000349403 0.00945553)
(-7.58039e-05 0.000349336 0.00942411)
(-0.000347042 0.000305024 0.0101189)
(-0.000389297 0.000314983 0.00988712)
(-0.000285449 0.000317345 0.00984287)
(-0.000271387 0.000322559 0.00968635)
(-7.9861e-05 0.000322654 0.00965704)
(-0.000525236 1.62795e-05 0.00251666)
(-0.000600108 1.33539e-05 0.00217173)
(-0.000433258 1.19517e-05 0.00209484)
(-0.000400277 7.06802e-06 0.00186405)
(-9.53661e-05 4.05475e-06 0.00181676)
(-0.00052336 0.000299521 0.00254372)
(-0.000597771 0.000306365 0.00220223)
(-0.000432422 0.000309805 0.00212747)
(-0.000400134 0.000310459 0.00189841)
(-9.84663e-05 0.00031054 0.00185126)
(-0.000517817 0.000335506 0.00272808)
(-0.000589812 0.000345845 0.00239852)
(-0.000429165 0.000350623 0.00232762)
(-0.000399543 0.000353812 0.00210762)
(-0.000103489 0.000354439 0.00206233)
(-0.000512326 0.000491741 0.00278058)
(-0.000582638 0.000508085 0.00245784)
(-0.000424455 0.000515332 0.00239036)
(-0.000396317 0.000523028 0.00217422)
(-0.000105067 0.000525195 0.00213118)
(-0.000500498 0.000448516 0.00306764)
(-0.000566221 0.000460344 0.0027622)
(-0.000414237 0.000465907 0.00270168)
(-0.000389691 0.000471254 0.00249689)
(-0.000108341 0.000473103 0.00245737)
(-0.000726028 3.13138e-05 0.00811293)
(-0.000832137 2.86478e-05 0.00760789)
(-0.000603814 2.8303e-05 0.00747168)
(-0.000554698 2.23411e-05 0.00714322)
(-0.00012466 1.80067e-05 0.00705667)
(-0.000722325 0.000409815 0.00815991)
(-0.000826605 0.000430391 0.00766436)
(-0.000600967 0.000437123 0.00753211)
(-0.000554647 0.000449164 0.00720964)
(-0.000128967 0.000449376 0.00712831)
(-0.0007044 0.000458672 0.00843404)
(-0.00080481 0.000484826 0.00794898)
(-0.000585042 0.000493551 0.00782775)
(-0.000542445 0.000509426 0.00750541)
(-0.000136064 0.000512545 0.00742995)
(-0.000694906 0.000668853 0.00852189)
(-0.000791702 0.000704987 0.00805268)
(-0.000576366 0.000718265 0.00793825)
(-0.000535652 0.000739186 0.0076267)
(-0.000136461 0.0007449 0.00755432)
(-0.000666573 0.000605874 0.00894559)
(-0.000755397 0.000634207 0.00849683)
(-0.000550868 0.000643872 0.00839867)
(-0.000515829 0.000660965 0.00809723)
(-0.000140808 0.000664741 0.00803482)
(-0.00105355 6.23175e-05 0.00331531)
(-0.00124156 6.53197e-05 0.00261181)
(-0.000897732 6.64607e-05 0.00241361)
(-0.00081513 6.33557e-05 0.00192938)
(-0.000198059 6.36234e-05 0.00180092)
(-0.00104184 0.000620506 0.00338514)
(-0.00122577 0.000647311 0.00269679)
(-0.000886945 0.00066572 0.00250941)
(-0.000803779 0.000672501 0.00203795)
(-0.00019789 0.000683665 0.00191057)
(-0.00102506 0.000697383 0.00374619)
(-0.00119631 0.000733986 0.00309156)
(-0.000872546 0.000756581 0.00291653)
(-0.000797185 0.000770683 0.00248087)
(-0.000200776 0.000780259 0.00236692)
(-0.00100322 0.00100386 0.00387153)
(-0.00116653 0.00105618 0.00324135)
(-0.000850248 0.00108646 0.00308061)
(-0.000780098 0.00111506 0.00265752)
(-0.000200518 0.00113028 0.00255553)
(-0.000970023 0.000892603 0.00443137)
(-0.00111371 0.000925795 0.00384521)
(-0.000813718 0.00094813 0.0037095)
(-0.000753399 0.000964348 0.00331802)
(-0.00019771 0.000976501 0.00323116)
(-0.00146255 0.000102997 0.00673555)
(-0.00173483 0.000110761 0.00570453)
(-0.00128645 0.000120105 0.00533249)
(-0.0011676 0.000121767 0.00468743)
(-0.000269969 0.000116964 0.00445541)
(-0.0014431 0.000840851 0.0068577)
(-0.00170331 0.000910315 0.00586249)
(-0.00126 0.000940235 0.00550902)
(-0.00115371 0.00100085 0.0048777)
(-0.000274979 0.00101557 0.00466872)
(-0.00139001 0.000945133 0.00739276)
(-0.00163539 0.00102957 0.00642525)
(-0.00119592 0.00106493 0.00611613)
(-0.00109227 0.00112918 0.00546782)
(-0.000276994 0.00115771 0.00527197)
(-0.00135498 0.00135439 0.00760495)
(-0.00158343 0.00145945 0.00669239)
(-0.00116038 0.00151215 0.00641006)
(-0.00106092 0.0015773 0.00580616)
(-0.000266155 0.00161013 0.00562446)
(-0.0012802 0.00119275 0.00842494)
(-0.00147764 0.00126753 0.00756644)
(-0.00107816 0.0013033 0.00734059)
(-0.000994342 0.00135343 0.00676269)
(-0.000263475 0.00137294 0.00661992)
(-0.0021329 0.000185402 0.0034394)
(-0.00264522 0.000218658 0.00198395)
(-0.00191446 0.000235722 0.00145455)
(-0.00169191 0.000238788 0.000404913)
(-0.000455968 0.000258625 -3.66692e-06)
(-0.00208411 0.00127754 0.00361792)
(-0.00257504 0.00136781 0.00222745)
(-0.00187137 0.00144913 0.00173495)
(-0.00164377 0.0014526 0.000765645)
(-0.000434898 0.00149994 0.000385988)
(-0.00203765 0.00144448 0.00432169)
(-0.00247351 0.00156357 0.00301844)
(-0.00182962 0.00165729 0.0025544)
(-0.00164111 0.00169878 0.00169449)
(-0.000430079 0.00173562 0.00139289)
(-0.00195896 0.00203709 0.00462503)
(-0.00236207 0.00219803 0.00340999)
(-0.00173615 0.00231149 0.00300465)
(-0.00156548 0.00241051 0.0021728)
(-0.000418516 0.00247883 0.00191024)
(-0.0018689 0.00175239 0.00569775)
(-0.00219912 0.00184244 0.00458819)
(-0.0016173 0.00192317 0.00427356)
(-0.00147388 0.00196735 0.00352358)
(-0.000383673 0.00201971 0.00332368)
(-0.00298647 0.000289315 0.00521752)
(-0.00372136 0.000352701 0.00308559)
(-0.00286536 0.000397286 0.00197558)
(-0.002626 0.000466769 0.00047195)
(-0.000710265 0.000490766 -0.000312543)
(-0.00289977 0.00172333 0.00554523)
(-0.00358798 0.00194498 0.00354098)
(-0.0027217 0.00204021 0.00254599)
(-0.0025028 0.00229055 0.00113263)
(-0.000685284 0.0024123 0.000438607)
(-0.00275565 0.0019522 0.00658224)
(-0.00340434 0.00221223 0.00466007)
(-0.00251993 0.00233469 0.00384651)
(-0.0022539 0.00253624 0.00248095)
(-0.000627646 0.00268185 0.00188289)
(-0.00262876 0.00273126 0.00711044)
(-0.00320523 0.00303063 0.00536627)
(-0.0023977 0.00323297 0.00463916)
(-0.00215551 0.00340806 0.00345914)
(-0.000572798 0.00354257 0.00297796)
(-0.00244286 0.00231796 0.00867293)
(-0.00290263 0.00250386 0.00705112)
(-0.00214274 0.00263403 0.00650744)
(-0.00194443 0.00276972 0.00539712)
(-0.000525564 0.00285414 0.00504681)
(-0.00436563 0.000518315 0.00268012)
(-0.00588902 0.000666447 -0.000236244)
(-0.00452783 0.000797588 -0.00201517)
(-0.00398043 0.00087933 -0.00410436)
(-0.00127518 0.000987047 -0.00550768)
(-0.00418453 0.00264208 0.00317557)
(-0.00557592 0.0029421 0.000501841)
(-0.00427933 0.00332 -0.00107163)
(-0.00375138 0.00346183 -0.00295837)
(-0.00117179 0.00369575 -0.00413591)
(-0.00405084 0.00300947 0.00459563)
(-0.0052108 0.00338832 0.00205039)
(-0.00400821 0.00374994 0.000723879)
(-0.00360468 0.00402492 -0.00112776)
(-0.00108593 0.00427474 -0.00209357)
(-0.00378762 0.00412973 0.00535617)
(-0.00483493 0.00459064 0.00310629)
(-0.00364274 0.00497395 0.0020404)
(-0.00322648 0.00532833 0.000424743)
(-0.000967054 0.00564462 -0.000336912)
(-0.00356769 0.00339094 0.00732862)
(-0.00436657 0.00361086 0.00530528)
(-0.00327105 0.0038816 0.00453016)
(-0.00293431 0.00400051 0.00304321)
(-0.000813375 0.00418833 0.00253317)
(-0.00604036 0.00080444 0.00352276)
(-0.00842052 0.0010969 -0.00083053)
(-0.00673356 0.00134909 -0.00398414)
(-0.00611906 0.00160209 -0.00742538)
(-0.00214634 0.0018561 -0.0101948)
(-0.00570347 0.00363881 0.00435555)
(-0.00783858 0.00423197 0.000431955)
(-0.00618194 0.00477988 -0.00224713)
(-0.00556758 0.00526762 -0.00522816)
(-0.00188907 0.00582694 -0.00747105)
(-0.00542264 0.00413214 0.00632036)
(-0.00727881 0.00481634 0.00269377)
(-0.00569793 0.00544658 0.000372014)
(-0.005072 0.00591939 -0.0023352)
(-0.00165749 0.00648093 -0.00411582)
(-0.00498853 0.00546566 0.00751349)
(-0.00652319 0.0062877 0.00441537)
(-0.00507889 0.00704195 0.00267909)
(-0.00453321 0.00758241 0.000321799)
(-0.00139432 0.00817315 -0.000975323)
(-0.00456352 0.00438688 0.010425)
(-0.00570252 0.00481188 0.00742422)
(-0.00440415 0.00524462 0.00621863)
(-0.00394142 0.00551723 0.00416217)
(-0.00114757 0.00586096 0.00329547)
(-0.00892043 0.00136445 0.00100564)
(-0.0134007 0.00192379 -0.00488513)
(-0.0111226 0.00252873 -0.0104679)
(-0.0101914 0.00304881 -0.0158354)
(-0.00409763 0.00367826 -0.0216586)
(-0.00829531 0.00543984 0.0023713)
(-0.012183 0.00646646 -0.00268032)
(-0.00993919 0.00767654 -0.00723561)
(-0.00897551 0.0085522 -0.0114674)
(-0.00347431 0.00977505 -0.0158431)
(-0.0078534 0.0061669 0.0051006)
(-0.0111631 0.00737089 0.000220392)
(-0.00903672 0.00867573 -0.00334827)
(-0.00809292 0.00957465 -0.00732883)
(-0.00294731 0.0107704 -0.0105479)
(-0.00704038 0.00823809 0.00693141)
(-0.00967269 0.00932441 0.00289422)
(-0.00773544 0.0108245 0.000218495)
(-0.00688096 0.0118301 -0.00277198)
(-0.0023467 0.0130607 -0.00497592)
(-0.00671419 0.00644675 0.0107173)
(-0.00857669 0.00677294 0.00684075)
(-0.00653255 0.00759563 0.00502615)
(-0.00585763 0.00802654 0.0021742)
(-0.00177769 0.00865891 0.000843251)
(-0.0122103 0.00220002 0.00204227)
(-0.0199012 0.00330353 -0.00699991)
(-0.0176845 0.0045948 -0.0165851)
(-0.0173107 0.00594356 -0.0253174)
(-0.00804303 0.00767197 -0.0357173)
(-0.0110082 0.00773387 0.00411612)
(-0.0174519 0.00933763 -0.00338731)
(-0.0149689 0.0118999 -0.0109558)
(-0.0141753 0.0137743 -0.0176362)
(-0.00630853 0.0169386 -0.0254099)
(-0.0105402 0.00869078 0.00784021)
(-0.0157337 0.0103901 0.000820604)
(-0.0132466 0.0129002 -0.00509221)
(-0.012272 0.0146147 -0.0110725)
(-0.00502374 0.0173488 -0.016757)
(-0.00923355 0.0110863 0.0105509)
(-0.0132406 0.0129125 0.0049399)
(-0.0107442 0.0154223 0.000798448)
(-0.00972778 0.0170918 -0.00353606)
(-0.00372161 0.0195713 -0.00720222)
(-0.00863197 0.00836329 0.0154437)
(-0.0113976 0.00896484 0.0104366)
(-0.00906918 0.0102885 0.00770547)
(-0.00812444 0.0107151 0.0038549)
(-0.00271319 0.0119582 0.00174489)
(-0.0183955 0.00346156 -0.000831484)
(-0.0320366 0.00552974 -0.0135274)
(-0.0294436 0.00815633 -0.03191)
(-0.0293234 0.0106931 -0.0477225)
(-0.0145828 0.0139544 -0.0773648)
(-0.0161769 0.011238 0.00279166)
(-0.0272617 0.0142858 -0.00678509)
(-0.0241889 0.0191685 -0.0200736)
(-0.0234283 0.0227957 -0.029924)
(-0.0113328 0.0287352 -0.0476874)
(-0.0152245 0.0126006 0.00765495)
(-0.024103 0.0156964 -0.00148758)
(-0.0209292 0.0204293 -0.0112735)
(-0.0197569 0.0236757 -0.0202178)
(-0.00875627 0.0289817 -0.0319684)
(-0.0129481 0.0158489 0.0114997)
(-0.0194308 0.018946 0.00510352)
(-0.0162096 0.0236295 -0.00146064)
(-0.0148805 0.0267642 -0.00689736)
(-0.0061288 0.0315711 -0.01359)
(-0.0119846 0.0116006 0.0174396)
(-0.0163223 0.0125641 0.0113823)
(-0.0131131 0.0148517 0.00759309)
(-0.0118184 0.0157933 0.00251659)
(-0.00404522 0.0180366 -0.000991138)
(-0.0255258 0.00587081 0.00411406)
(-0.0509854 0.0100543 -0.0146293)
(-0.0518944 0.0164739 -0.0423672)
(-0.0627505 0.0237436 -0.0699242)
(-0.0378668 0.0375043 -0.111827)
(-0.0211024 0.0162201 0.00880589)
(-0.0403232 0.0213739 -0.00482007)
(-0.0381124 0.0325313 -0.0243072)
(-0.0417792 0.0412691 -0.0403835)
(-0.0241257 0.0623197 -0.0701843)
(-0.0201556 0.0173947 0.014769)
(-0.034671 0.022277 0.00252112)
(-0.0319761 0.0315125 -0.011338)
(-0.032962 0.037646 -0.0244317)
(-0.0170524 0.051461 -0.0425482)
(-0.0160048 0.0208771 0.0195028)
(-0.0262068 0.025788 0.0112754)
(-0.0227434 0.0342976 0.00249878)
(-0.0218536 0.039832 -0.00499667)
(-0.0105794 0.0505541 -0.0148959)
(-0.0150182 0.0146302 0.0265943)
(-0.0212504 0.0156167 0.0193545)
(-0.0179306 0.0198139 0.0146203)
(-0.0167086 0.0206443 0.00848774)
(-0.00659571 0.0251764 0.00378956)
(-0.0381071 0.00819132 0.00243945)
(-0.0785173 0.0153317 -0.0231701)
(-0.0847926 0.0262553 -0.0778136)
(-0.0986724 0.0402924 -0.13271)
(-0.0572062 0.0560253 -0.299186)
(-0.0305664 0.0218911 0.0100392)
(-0.0603766 0.0314302 -0.0050271)
(-0.0597775 0.0501774 -0.0382785)
(-0.0692537 0.0682375 -0.060326)
(-0.0414095 0.0979043 -0.132602)
(-0.028154 0.0232944 0.0169911)
(-0.0502197 0.0317949 0.00304252)
(-0.0478904 0.0472439 -0.0194666)
(-0.0509473 0.0590877 -0.038514)
(-0.0271484 0.0843244 -0.0777887)
(-0.0216754 0.0276853 0.023359)
(-0.0364393 0.0357837 0.0154707)
(-0.0324847 0.0495973 0.00312396)
(-0.0322692 0.0596851 -0.00514175)
(-0.0161714 0.0779086 -0.023135)
(-0.0196643 0.0191287 0.0308018)
(-0.0283075 0.0211399 0.0231772)
(-0.0239767 0.0276514 0.0169416)
(-0.0226475 0.0300378 0.00962489)
(-0.00899216 0.037686 0.00234558)
(-0.0524809 0.0135375 0.0209085)
(-0.131162 0.0282415 -0.0125239)
(-0.161504 0.0562474 -0.0885252)
(-0.284203 0.097001 -0.200478)
(-0.207936 0.208321 -0.387359)
(-0.0371387 0.0307609 0.0286052)
(-0.0886098 0.0475522 0.0105352)
(-0.0934335 0.090769 -0.0308949)
(-0.135834 0.135195 -0.0689044)
(-0.097114 0.283798 -0.20138)
(-0.0349524 0.0307027 0.0364355)
(-0.0711223 0.0427824 0.020448)
(-0.0735502 0.0729329 -0.00393838)
(-0.0911759 0.0928528 -0.0310624)
(-0.0570507 0.160998 -0.0884427)
(-0.0244652 0.0346891 0.0414181)
(-0.0464324 0.0459131 0.0334717)
(-0.0433632 0.0706988 0.0204648)
(-0.048078 0.0879398 0.0103926)
(-0.028802 0.13061 -0.01278)
(-0.023154 0.0225819 0.0486473)
(-0.0351124 0.0238926 0.0412538)
(-0.0314707 0.0344789 0.0363361)
(-0.0312943 0.0363774 0.0282237)
(-0.0146113 0.0520031 0.0207931)
(-0.0735815 0.0159538 0.0352478)
(-0.187792 0.0385061 0.00600015)
(-0.273409 0.0847795 -0.0868437)
(-0.563718 0.180059 -0.31649)
(-0.223094 0.218148 -1.08298)
(-0.0499429 0.0374054 0.0427302)
(-0.119857 0.0643433 0.0318906)
(-0.139278 0.134466 -0.0133808)
(-0.240206 0.238143 -0.0571078)
(-0.182618 0.562678 -0.316458)
(-0.0452424 0.0361066 0.0476028)
(-0.090596 0.0547792 0.0376004)
(-0.0994971 0.0986995 0.0138518)
(-0.135163 0.138439 -0.0137208)
(-0.0862785 0.273592 -0.0865423)
(-0.0302928 0.0399042 0.051067)
(-0.0573936 0.0565901 0.0483911)
(-0.0556114 0.0898729 0.037742)
(-0.0654561 0.11895 0.0318508)
(-0.0395794 0.186988 0.0061541)
(-0.027669 0.026965 0.054439)
(-0.0406264 0.029589 0.0508754)
(-0.0370061 0.0446191 0.0476024)
(-0.0381789 0.049169 0.0422377)
(-0.0170717 0.0732948 0.0352879)
(-0.0840508 0.0211303 0.0922177)
(-0.251647 0.0545891 0.0863773)
(-0.39832 0.13261 0.0730776)
(-0.934641 0.207824 -0.207893)
(-1.83407 0.482619 -1.66906)
(-0.049243 0.0430792 0.0866751)
(-0.144484 0.0788181 0.0901556)
(-0.179749 0.190284 0.0812955)
(-0.389196 0.387753 0.0513253)
(-0.552282 0.97748 -0.380649)
(-0.0460149 0.0390519 0.0882995)
(-0.104781 0.059285 0.0865057)
(-0.124895 0.124078 0.0916209)
(-0.190398 0.179157 0.0806259)
(-0.134398 0.398412 0.0740295)
(-0.0277315 0.0415189 0.0829851)
(-0.0596998 0.05913 0.0860999)
(-0.0599057 0.104359 0.0866897)
(-0.0793306 0.143663 0.0903017)
(-0.0548346 0.250843 0.0867617)
(-0.0272708 0.0265038 0.0831657)
(-0.0419418 0.0269648 0.0828421)
(-0.0401188 0.0453988 0.0883018)
(-0.0435727 0.0480231 0.0862394)
(-0.0227494 0.0834682 0.0924719)
(-0.0818195 0.0105269 0.137057)
(-0.195933 0.0429363 0.174356)
(-0.293644 0.0943562 0.338079)
(-1.02565 0.171721 0.558665)
(-0.266664 0.0703247 -7.26167)
(-0.0476204 0.0334346 0.116494)
(-0.123496 0.063796 0.145804)
(-0.140501 0.144567 0.230077)
(-0.43694 0.308062 0.429235)
(-0.831884 1.17642 0.771554)
(-0.0480413 0.0324271 0.104792)
(-0.0870975 0.0506795 0.126549)
(-0.104017 0.102722 0.176996)
(-0.144204 0.139506 0.229625)
(-0.0978499 0.292391 0.337082)
(-0.0276357 0.0347564 0.0908362)
(-0.053626 0.0528646 0.104391)
(-0.0513658 0.0863776 0.126693)
(-0.0647078 0.122796 0.145971)
(-0.0429857 0.194379 0.174469)
(-0.0283778 0.0275277 0.0816151)
(-0.0354765 0.0267858 0.0907818)
(-0.0336215 0.0472301 0.104869)
(-0.0339578 0.0462556 0.116274)
(-0.0122368 0.0813882 0.137191)
(-0.0481017 0.00062744 0.175253)
(-0.044152 0.0268147 0.202446)
(-0.110069 0.0219739 0.370409)
(-0.218991 -0.023694 0.311879)
(0.469672 -0.316704 -7.32355)
(-0.0204612 0.0106829 0.151767)
(-0.0328724 0.0316477 0.177944)
(-0.0142759 0.0225093 0.265471)
(0.0225245 -0.0228236 0.322279)
(0.198225 -0.249001 0.299848)
(-0.0245862 0.0133204 0.139276)
(-0.0330913 0.0182739 0.161862)
(-0.0236347 0.0224135 0.219931)
(-0.0235301 0.0122989 0.265779)
(-0.0243133 0.108819 0.370387)
(-0.0141472 0.018294 0.121484)
(-0.0240035 0.0235225 0.136827)
(-0.0187199 0.0327423 0.161878)
(-0.0321832 0.0323375 0.177927)
(-0.0273965 0.0444164 0.20279)
(-0.0180706 0.0172436 0.110106)
(-0.0186396 0.0133206 0.121642)
(-0.0145535 0.0239009 0.139446)
(-0.0111172 0.0188449 0.152271)
(-0.00231084 0.0475376 0.175601)
(-0.053819 -0.0128681 0.115799)
(0.00449785 0.018838 0.167766)
(-0.102318 -0.0222231 0.184884)
(0.27677 -0.0318861 -0.289065)
(0.21493 -0.154987 -5.21608)
(-0.0203697 -0.00251156 0.10669)
(-0.0122202 0.0241785 0.139524)
(-0.0118302 -0.0138982 0.165711)
(0.00818412 -0.00874001 0.140035)
(0.145652 -0.248451 -0.550768)
(-0.0246762 0.00216818 0.0988498)
(-0.00650568 0.00960058 0.123207)
(-0.00244146 0.00151443 0.149632)
(0.0141672 0.0117372 0.166336)
(0.0204739 0.102229 0.187171)
(-0.0115929 0.00565905 0.088114)
(-0.0133244 0.0127355 0.105677)
(-0.0103036 0.00595729 0.122998)
(-0.0247835 0.0117467 0.139456)
(-0.0190754 -0.00563861 0.167061)
(-0.0163615 0.0156718 0.0764765)
(-0.0062071 0.0109027 0.0884467)
(-0.00301605 0.0240298 0.0991183)
(0.00217224 0.0195368 0.107547)
(0.0117633 0.0534426 0.116549)
(0.00653553 -0.00819592 0.147281)
(0.0311089 -0.00131322 0.217543)
(0.0419015 -0.0119934 0.255807)
(-0.16444 0.0814258 -0.174462)
(-1.69989 0.459759 -5.05252)
(0.0143531 -0.00597401 0.141263)
(0.0230313 -0.0119385 0.183834)
(0.0480757 -0.0206292 0.233384)
(-0.112998 -0.0206332 0.283296)
(-0.290815 0.234547 -0.24619)
(0.00145074 -0.00508647 0.128135)
(0.0171363 -0.0154555 0.161395)
(0.0165569 -0.0173524 0.187304)
(0.0218967 -0.0480187 0.234364)
(0.0105058 -0.0391944 0.255953)
(0.00447891 -0.00396895 0.119905)
(0.0107504 -0.0111099 0.140778)
(0.0149379 -0.01721 0.1613)
(0.0108838 -0.0232799 0.184282)
(0.00117264 -0.0323349 0.218023)
(-0.00530681 0.00481515 0.1059)
(0.00389239 -0.0049712 0.120242)
(0.0043734 -0.00165013 0.128421)
(0.00602773 -0.0150308 0.142179)
(0.00705726 -0.00558589 0.147728)
(0.0214983 -0.0186654 0.0894753)
(0.125065 -0.0158667 0.139229)
(0.164983 -0.0646071 0.235797)
(0.190767 -0.0146762 0.295017)
(0.378238 -0.136411 -7.50381)
(0.0252548 -0.02178 0.0775907)
(0.0790275 -0.03231 0.11212)
(0.11455 -0.095974 0.17598)
(0.208264 -0.207857 0.269514)
(0.177907 -0.416595 0.493023)
(0.0110096 -0.0193241 0.0670737)
(0.0525835 -0.0335001 0.0932173)
(0.0702971 -0.0703741 0.127869)
(0.0963282 -0.115236 0.177576)
(0.0656811 -0.164595 0.234402)
(0.010843 -0.0166517 0.0572171)
(0.0280437 -0.0283904 0.0744608)
(0.0332455 -0.0528444 0.0929296)
(0.0322691 -0.0795619 0.112477)
(0.0157315 -0.125884 0.139412)
(-0.00089861 0.000545793 0.0471393)
(0.0163875 -0.0111962 0.0577359)
(0.0190569 -0.0112842 0.0673261)
(0.021597 -0.0256269 0.0789331)
(0.0184403 -0.0219298 0.0897571)
(0.0616346 -0.0195887 0.106073)
(0.183867 -0.0279645 0.129472)
(0.293461 -0.0813758 0.126396)
(0.641763 -0.312449 -0.269388)
(1.44725 -0.757776 -4.38833)
(0.052768 -0.0282531 0.106228)
(0.120643 -0.0577604 0.1241)
(0.175334 -0.134488 0.133713)
(0.317312 -0.320229 0.118787)
(0.309238 -0.641449 -0.269017)
(0.0301808 -0.0253396 0.0990369)
(0.0778405 -0.0531167 0.115284)
(0.100262 -0.0997516 0.11999)
(0.134565 -0.175448 0.134298)
(0.0810842 -0.291402 0.126732)
(0.0235008 -0.0238111 0.0978705)
(0.0464872 -0.0466126 0.108965)
(0.0529614 -0.0776686 0.115131)
(0.0571836 -0.121167 0.124193)
(0.0275497 -0.183737 0.129043)
(0.00631681 -0.00628521 0.0881999)
(0.0239888 -0.0234696 0.0981663)