/*--------------------------------*- C++ -*----------------------------------*\
| =========                 |                                                 |
| \\      /  F ield         | OpenFOAM: The Open Source CFD Toolbox           |
|  \\    /   O peration     | Version:  5.x                                   |
|   \\  /    A nd           | Web:      www.OpenFOAM.org                      |
|    \\/     M anipulation  |                                                 |
\*---------------------------------------------------------------------------*/
FoamFile
{
    version     2.0;
    format      ascii;
    class       volVectorField;
    location    "0.009";
    object      U;
}
// * * * * * * * * * * * * * * * * * * * * * * * * * * * * * * * * * * * * * //

dimensions      [0 1 -1 0 0 0 0];

internalField   nonuniform List<vector> 
1574
(
(1.1592e-08 -1.4569e-07 -0.000302479)
(9.60578e-08 -1.4641e-07 -0.000302485)
(1.11282e-07 -1.41458e-07 -0.000302454)
(1.60904e-07 -1.40365e-07 -0.000302473)
(1.17177e-07 -1.36345e-07 -0.0003024)
(1.65767e-08 -1.88265e-07 -0.000302579)
(1.00174e-07 -1.91379e-07 -0.000302582)
(1.17235e-07 -1.86716e-07 -0.000302546)
(1.65955e-07 -1.86237e-07 -0.000302563)
(1.21195e-07 -1.81617e-07 -0.000302487)
(1.18581e-08 -1.35423e-07 -0.000302558)
(9.75858e-08 -1.37597e-07 -0.000302561)
(1.1641e-07 -1.34277e-07 -0.000302525)
(1.65992e-07 -1.34176e-07 -0.000302543)
(1.21837e-07 -1.30644e-07 -0.000302466)
(1.72503e-08 -1.17459e-07 -0.00030261)
(1.0132e-07 -1.1888e-07 -0.00030261)
(1.20655e-07 -1.15154e-07 -0.000302571)
(1.69583e-07 -1.14754e-07 -0.000302589)
(1.24762e-07 -1.11042e-07 -0.000302509)
(1.49063e-08 -3.21529e-08 -0.000302606)
(9.9891e-08 -3.33162e-08 -0.000302607)
(1.20536e-07 -3.11024e-08 -0.000302567)
(1.70099e-07 -3.10523e-08 -0.000302586)
(1.25586e-07 -2.86255e-08 -0.000302505)
(-7.63034e-09 -1.27026e-07 0.000240701)
(8.65562e-08 -1.23942e-07 0.000240712)
(1.20535e-07 -1.2126e-07 0.000240761)
(1.65377e-07 -1.20474e-07 0.000240786)
(1.13845e-07 -1.19067e-07 0.000240862)
(4.29865e-09 -1.87324e-07 0.000240633)
(9.22191e-08 -1.83129e-07 0.000240644)
(1.2394e-07 -1.79515e-07 0.000240692)
(1.67532e-07 -1.78176e-07 0.000240717)
(1.1525e-07 -1.76507e-07 0.000240792)
(8.43196e-09 -1.47357e-07 0.000240605)
(9.43447e-08 -1.4439e-07 0.000240618)
(1.25476e-07 -1.41536e-07 0.000240665)
(1.68374e-07 -1.40262e-07 0.000240691)
(1.15531e-07 -1.38999e-07 0.000240766)
(1.50039e-08 -1.20682e-07 0.000240562)
(9.8041e-08 -1.17795e-07 0.000240575)
(1.28066e-07 -1.15143e-07 0.000240621)
(1.70066e-07 -1.14044e-07 0.000240647)
(1.16532e-07 -1.12734e-07 0.000240721)
(1.81695e-08 -3.94126e-08 0.000240548)
(9.98838e-08 -3.72825e-08 0.000240561)
(1.29228e-07 -3.54945e-08 0.000240608)
(1.70778e-07 -3.46855e-08 0.000240634)
(1.16858e-07 -3.39473e-08 0.000240708)
(2.63168e-08 -2.15117e-07 -0.000235266)
(1.55426e-07 -2.15136e-07 -0.00023524)
(1.86051e-07 -2.11492e-07 -0.00023515)
(2.62763e-07 -2.10351e-07 -0.000235108)
(1.93624e-07 -2.07093e-07 -0.000234963)
(3.01944e-08 -2.85528e-07 -0.00023542)
(1.58962e-07 -2.86946e-07 -0.000235395)
(1.90764e-07 -2.83272e-07 -0.000235303)
(2.67105e-07 -2.82584e-07 -0.00023526)
(1.96879e-07 -2.78528e-07 -0.000235113)
(2.75709e-08 -2.07252e-07 -0.000235461)
(1.57665e-07 -2.08464e-07 -0.000235436)
(1.90401e-07 -2.05776e-07 -0.000235344)
(2.67498e-07 -2.05606e-07 -0.000235302)
(1.97716e-07 -2.02288e-07 -0.000235153)
(3.11258e-08 -1.75227e-07 -0.000235557)
(1.60438e-07 -1.76083e-07 -0.000235532)
(1.93622e-07 -1.73287e-07 -0.000235439)
(2.7059e-07 -1.72934e-07 -0.000235396)
(2.00228e-07 -1.69743e-07 -0.000235246)
(2.96853e-08 -4.52134e-08 -0.000235579)
(1.59605e-07 -4.59551e-08 -0.000235555)
(1.93548e-07 -4.42688e-08 -0.000235462)
(2.71038e-07 -4.4229e-08 -0.000235419)
(2.0094e-07 -4.24031e-08 -0.000235269)
(1.86417e-08 -2.82365e-07 0.000161552)
(2.02136e-07 -2.79352e-07 0.000161588)
(2.52651e-07 -2.75053e-07 0.000161727)
(3.52651e-07 -2.73435e-07 0.000161799)
(2.60327e-07 -2.6981e-07 0.000162017)
(2.90523e-08 -3.82477e-07 0.000161333)
(2.09354e-07 -3.78866e-07 0.00016137)
(2.58496e-07 -3.73524e-07 0.00016151)
(3.5784e-07 -3.71665e-07 0.000161582)
(2.63951e-07 -3.67021e-07 0.000161802)
(3.16601e-08 -2.83933e-07 0.000161259)
(2.11075e-07 -2.81393e-07 0.000161297)
(2.59842e-07 -2.77303e-07 0.000161438)
(3.59146e-07 -2.7601e-07 0.00016151)
(2.65008e-07 -2.724e-07 0.000161731)
(3.855e-08 -2.3904e-07 0.00016112)
(2.15984e-07 -2.36545e-07 0.000161159)
(2.6388e-07 -2.32692e-07 0.0001613)
(3.6274e-07 -2.31418e-07 0.000161373)
(2.67593e-07 -2.28056e-07 0.000161594)
(4.07614e-08 -6.27471e-08 0.00016108)
(2.17424e-07 -6.12199e-08 0.00016112)
(2.64967e-07 -5.88683e-08 0.000161261)
(3.63779e-07 -5.82272e-08 0.000161334)
(2.68403e-07 -5.65806e-08 0.000161556)
(6.44538e-08 -4.35602e-07 -0.000157654)
(3.30717e-07 -4.34576e-07 -0.000157591)
(3.96503e-07 -4.30046e-07 -0.000157374)
(5.5206e-07 -4.28331e-07 -0.000157263)
(4.12682e-07 -4.22856e-07 -0.000156922)
(6.85903e-08 -5.78645e-07 -0.000158002)
(3.36193e-07 -5.78191e-07 -0.000157939)
(4.02677e-07 -5.73034e-07 -0.000157719)
(5.59183e-07 -5.71401e-07 -0.000157607)
(4.18155e-07 -5.64536e-07 -0.000157262)
(6.76668e-08 -4.19901e-07 -0.000158113)
(3.36316e-07 -4.19906e-07 -0.00015805)
(4.03285e-07 -4.16091e-07 -0.00015783)
(5.60552e-07 -4.15191e-07 -0.000157718)
(4.196e-07 -4.10026e-07 -0.000157372)
(7.0866e-08 -3.5379e-07 -0.000158332)
(3.40003e-07 -3.53639e-07 -0.00015827)
(4.07392e-07 -3.50106e-07 -0.000158048)
(5.65246e-07 -3.49162e-07 -0.000157935)
(4.23365e-07 -3.44452e-07 -0.000157586)
(7.03044e-08 -8.39484e-08 -0.000158392)
(3.39999e-07 -8.42991e-08 -0.00015833)
(4.07761e-07 -8.25697e-08 -0.000158108)
(5.66203e-07 -8.24436e-08 -0.000157995)
(4.24351e-07 -8.0522e-08 -0.000157645)
(9.00685e-08 -6.31744e-07 9.01686e-05)
(4.82566e-07 -6.29049e-07 9.02579e-05)
(5.81285e-07 -6.22518e-07 9.05819e-05)
(8.04438e-07 -6.19791e-07 9.07478e-05)
(6.03003e-07 -6.11575e-07 9.12571e-05)
(9.70786e-08 -8.41056e-07 8.96467e-05)
(4.91702e-07 -8.37912e-07 8.97373e-05)
(5.90458e-07 -8.29896e-07 9.0066e-05)
(8.15294e-07 -8.2689e-07 9.02339e-05)
(6.11217e-07 -8.16432e-07 9.07509e-05)
(9.84707e-08 -6.14036e-07 8.94772e-05)
(4.93717e-07 -6.11999e-07 8.95685e-05)
(5.92301e-07 -6.05958e-07 8.98984e-05)
(8.17898e-07 -6.04058e-07 9.00666e-05)
(6.13539e-07 -5.96276e-07 9.05857e-05)
(1.03526e-07 -5.17886e-07 8.91468e-05)
(4.9978e-07 -5.15695e-07 8.92387e-05)
(5.98398e-07 -5.10241e-07 8.95716e-05)
(8.24974e-07 -5.08275e-07 8.9741e-05)
(6.19063e-07 -5.01351e-07 9.0265e-05)
(1.04745e-07 -1.2132e-07 8.90543e-05)
(5.01362e-07 -1.20526e-07 8.91473e-05)
(5.99721e-07 -1.18057e-07 8.94808e-05)
(8.26786e-07 -1.17542e-07 8.96506e-05)
(6.20518e-07 -1.15198e-07 9.01756e-05)
(1.56844e-07 -9.60793e-07 -9.65282e-05)
(7.44016e-07 -9.58401e-07 -9.63912e-05)
(8.86437e-07 -9.49261e-07 -9.59e-05)
(1.22723e-06 -9.45475e-07 -9.56517e-05)
(9.25169e-07 -9.32272e-07 -9.48787e-05)
(1.61413e-07 -1.27009e-06 -9.73242e-05)
(7.55444e-07 -1.2676e-06 -9.7186e-05)
(8.99247e-07 -1.25657e-06 -9.66867e-05)
(1.24408e-06 -1.25262e-06 -9.64352e-05)
(9.38373e-07 -1.23597e-06 -9.56488e-05)
(1.61359e-07 -9.19844e-07 -9.7576e-05)
(7.57526e-07 -9.18541e-07 -9.74376e-05)
(9.01411e-07 -9.10419e-07 -9.69365e-05)
(1.24782e-06 -9.08074e-07 -9.66851e-05)
(9.41937e-07 -8.95928e-07 -9.58953e-05)
(1.6473e-07 -7.76624e-07 -9.8079e-05)
(7.64869e-07 -7.74859e-07 -9.794e-05)
(9.09714e-07 -7.67677e-07 -9.74335e-05)
(1.25857e-06 -7.65149e-07 -9.71803e-05)
(9.50617e-07 -7.54467e-07 -9.63819e-05)
(1.64741e-07 -1.74608e-07 -9.82162e-05)
(7.66473e-07 -1.74671e-07 -9.80764e-05)
(9.1112e-07 -1.7225e-07 -9.75691e-05)
(1.26103e-06 -1.71999e-07 -9.73155e-05)
(9.52702e-07 -1.69093e-07 -9.65154e-05)
(2.34397e-07 -1.43293e-06 3.92e-05)
(1.11076e-06 -1.42895e-06 3.93993e-05)
(1.32079e-06 -1.41429e-06 4.01317e-05)
(1.82574e-06 -1.40834e-06 4.04978e-05)
(1.381e-06 -1.38665e-06 4.16515e-05)
(2.40671e-07 -1.88885e-06 3.80032e-05)
(1.12925e-06 -1.88427e-06 3.82058e-05)
(1.34123e-06 -1.86636e-06 3.8953e-05)
(1.85316e-06 -1.86023e-06 3.93245e-05)
(1.4027e-06 -1.83304e-06 4.05011e-05)
(2.41417e-07 -1.36881e-06 3.76291e-05)
(1.13325e-06 -1.36601e-06 3.78322e-05)
(1.34484e-06 -1.35279e-06 3.85829e-05)
(1.85905e-06 -1.34911e-06 3.89542e-05)
(1.4084e-06 -1.3294e-06 4.01364e-05)
(2.46058e-07 -1.15813e-06 3.68699e-05)
(1.14526e-06 -1.15452e-06 3.70751e-05)
(1.35813e-06 -1.14284e-06 3.78358e-05)
(1.87656e-06 -1.13875e-06 3.82106e-05)
(1.42257e-06 -1.12141e-06 3.94077e-05)
(2.46791e-07 -2.56164e-07 3.66653e-05)
(1.14855e-06 -2.55717e-07 3.68718e-05)
(1.36061e-06 -2.52275e-07 3.76345e-05)
(1.88048e-06 -2.51908e-07 3.80096e-05)
(1.42589e-06 -2.4783e-07 3.92099e-05)
(3.60049e-07 -2.16541e-06 -5.72924e-05)
(1.67578e-06 -2.15977e-06 -5.69958e-05)
(1.98493e-06 -2.13576e-06 -5.58957e-05)
(2.74702e-06 -2.12645e-06 -5.53532e-05)
(2.08641e-06 -2.09016e-06 -5.36182e-05)
(3.67036e-07 -2.84099e-06 -5.91001e-05)
(1.70518e-06 -2.83474e-06 -5.87985e-05)
(2.01795e-06 -2.80539e-06 -5.76733e-05)
(2.79226e-06 -2.79624e-06 -5.71222e-05)
(2.1227e-06 -2.75114e-06 -5.53495e-05)
(3.67259e-07 -2.05314e-06 -5.96543e-05)
(1.71137e-06 -2.04924e-06 -5.93526e-05)
(2.02342e-06 -2.02758e-06 -5.82214e-05)
(2.80128e-06 -2.02202e-06 -5.76714e-05)
(2.13188e-06 -1.98939e-06 -5.58901e-05)
(3.7244e-07 -1.74038e-06 -6.08017e-05)
(1.73074e-06 -1.73529e-06 -6.04965e-05)
(2.04517e-06 -1.71608e-06 -5.93483e-05)
(2.83044e-06 -1.70975e-06 -5.87924e-05)
(2.15561e-06 -1.68092e-06 -5.69858e-05)
(3.72737e-07 -3.77117e-07 -6.11047e-05)
(1.73566e-06 -3.76986e-07 -6.07986e-05)
(2.04896e-06 -3.7234e-07 -5.96468e-05)
(2.83644e-06 -3.7216e-07 -5.90908e-05)
(2.16094e-06 -3.66214e-07 -5.72789e-05)
(5.3654e-07 -3.25275e-06 7.99258e-06)
(2.50748e-06 -3.24369e-06 8.42983e-06)
(2.96346e-06 -3.20374e-06 1.0073e-05)
(4.10328e-06 -3.18916e-06 1.08748e-05)
(3.1275e-06 -3.1295e-06 1.34668e-05)
(5.4674e-07 -4.25074e-06 5.27614e-06)
(2.55607e-06 -4.24103e-06 5.72261e-06)
(3.01749e-06 -4.19203e-06 7.40962e-06)
(4.17688e-06 -4.17845e-06 8.22549e-06)
(3.18717e-06 -4.10494e-06 1.08785e-05)
(5.47e-07 -3.07044e-06 4.44936e-06)
(2.56619e-06 -3.064e-06 4.89706e-06)
(3.02604e-06 -3.02785e-06 6.59653e-06)
(4.19037e-06 -3.0193e-06 7.41151e-06)
(3.20165e-06 -2.96563e-06 1.00788e-05)
(5.54644e-07 -2.60851e-06 2.71282e-06)
(2.59866e-06 -2.60054e-06 3.16952e-06)
(3.06219e-06 -2.56825e-06 4.90102e-06)
(4.23911e-06 -2.55822e-06 5.72832e-06)
(3.24133e-06 -2.51022e-06 8.43953e-06)
(5.55118e-07 -5.56993e-07 2.25702e-06)
(2.60644e-06 -5.56648e-07 2.7158e-06)
(3.06836e-06 -5.49597e-07 4.45634e-06)
(4.24841e-06 -5.49618e-07 5.28477e-06)
(3.25005e-06 -5.40471e-07 8.00536e-06)
(8.01405e-07 -4.90048e-06 -3.66098e-05)
(3.75621e-06 -4.8855e-06 -3.59635e-05)
(4.42986e-06 -4.81731e-06 -3.3509e-05)
(6.14079e-06 -4.79365e-06 -3.23279e-05)
(4.69583e-06 -4.69576e-06 -2.84501e-05)
(8.16966e-07 -6.38424e-06 -4.06915e-05)
(3.83866e-06 -6.36753e-06 -4.0029e-05)
(4.52083e-06 -6.28191e-06 -3.75014e-05)
(6.26121e-06 -6.25952e-06 -3.62956e-05)
(4.79372e-06 -6.13912e-06 -3.23236e-05)
(8.18086e-07 -4.61645e-06 -4.19286e-05)
(3.85853e-06 -4.60232e-06 -4.12616e-05)
(4.53787e-06 -4.53618e-06 -3.87071e-05)
(6.28359e-06 -4.51918e-06 -3.74989e-05)
(4.81737e-06 -4.4284e-06 -3.35021e-05)
(8.31933e-07 -3.93272e-06 -4.4552e-05)
(3.91893e-06 -3.91655e-06 -4.38671e-05)
(4.60397e-06 -3.85627e-06 -4.12571e-05)
(6.36899e-06 -3.83649e-06 -4.00221e-05)
(4.88537e-06 -3.75437e-06 -3.5952e-05)
(8.33611e-07 -8.31299e-07 -4.52372e-05)
(3.93498e-06 -8.29642e-07 -4.45482e-05)
(4.61793e-06 -8.16149e-07 -4.19201e-05)
(6.38549e-06 -8.15194e-07 -4.06806e-05)
(4.90021e-06 -8.00252e-07 -3.6594e-05)
(1.18782e-06 -7.36307e-06 -9.74032e-06)
(5.60824e-06 -7.33764e-06 -8.7762e-06)
(6.59897e-06 -7.22383e-06 -5.11534e-06)
(9.16229e-06 -7.18414e-06 -3.36836e-06)
(7.03183e-06 -7.02949e-06 2.42062e-06)
(1.2134e-06 -9.56963e-06 -1.58701e-05)
(5.74621e-06 -9.53921e-06 -1.48752e-05)
(6.75094e-06 -9.39016e-06 -1.10872e-05)
(9.35467e-06 -9.34944e-06 -9.29303e-06)
(7.18648e-06 -9.157e-06 -3.36356e-06)
(1.21784e-06 -6.93096e-06 -1.77593e-05)
(5.78771e-06 -6.9021e-06 -1.67448e-05)
(6.78874e-06 -6.78355e-06 -1.28963e-05)
(9.39545e-06 -6.74587e-06 -1.10845e-05)
(7.22623e-06 -6.594e-06 -5.10759e-06)
(1.24276e-06 -5.91709e-06 -2.17857e-05)
(5.89363e-06 -5.8872e-06 -2.07174e-05)
(6.90717e-06 -5.78129e-06 -1.674e-05)
(9.54422e-06 -5.73993e-06 -1.48678e-05)
(7.33987e-06 -5.60216e-06 -8.76376e-06)
(1.24658e-06 -1.24049e-06 -2.28627e-05)
(5.92351e-06 -1.2365e-06 -2.17817e-05)
(6.93601e-06 -1.21192e-06 -1.77503e-05)
(9.57459e-06 -1.20763e-06 -1.58584e-05)
(7.36527e-06 -1.18256e-06 -9.72332e-06)
(1.77041e-06 -1.1074e-05 -2.90561e-05)
(8.38119e-06 -1.10279e-05 -2.76365e-05)
(9.83769e-06 -1.08315e-05 -2.22188e-05)
(1.36769e-05 -1.07599e-05 -1.96726e-05)
(1.05248e-05 -1.05199e-05 -1.10654e-05)
(1.81602e-06 -1.44033e-05 -3.81982e-05)
(8.62148e-06 -1.43363e-05 -3.67234e-05)
(1.0103e-05 -1.4063e-05 -3.11044e-05)
(1.3985e-05 -1.39757e-05 -2.84604e-05)
(1.07648e-05 -1.36674e-05 -1.96666e-05)
(1.83653e-06 -1.05321e-05 -4.09871e-05)
(8.72147e-06 -1.04445e-05 -3.95123e-05)
(1.01982e-05 -1.01889e-05 -3.37864e-05)
(1.40724e-05 -1.00939e-05 -3.1101e-05)
(1.08365e-05 -9.8286e-06 -2.22091e-05)
(1.9035e-06 -9.03616e-06 -4.67651e-05)
(8.96463e-06 -8.95347e-06 -4.52395e-05)
(1.04536e-05 -8.71022e-06 -3.95061e-05)
(1.43453e-05 -8.61038e-06 -3.67142e-05)
(1.10328e-05 -8.37011e-06 -2.76209e-05)
(1.91747e-06 -1.90676e-06 -4.82893e-05)
(9.04741e-06 -1.89247e-06 -4.67607e-05)
(1.05413e-05 -1.82584e-06 -4.09765e-05)
(1.44125e-05 -1.80544e-06 -3.81839e-05)
(1.10791e-05 -1.76018e-06 -2.90352e-05)
(2.61342e-06 -1.65721e-05 -2.13272e-05)
(1.24455e-05 -1.64908e-05 -1.92159e-05)
(1.45628e-05 -1.61737e-05 -1.12219e-05)
(2.03159e-05 -1.60351e-05 -7.43073e-06)
(1.56996e-05 -1.56912e-05 5.36359e-06)
(2.69337e-06 -2.15009e-05 -3.49225e-05)
(1.28401e-05 -2.14152e-05 -3.27813e-05)
(1.5014e-05 -2.09579e-05 -2.44613e-05)
(2.07926e-05 -2.0778e-05 -2.04823e-05)
(1.60435e-05 -2.03009e-05 -7.42347e-06)
(2.69757e-06 -1.54979e-05 -3.92163e-05)
(1.29885e-05 -1.54181e-05 -3.68938e-05)
(1.52e-05 -1.51853e-05 -2.85362e-05)
(2.09729e-05 -1.49996e-05 -2.44579e-05)
(1.61825e-05 -1.45484e-05 -1.12108e-05)
(2.77218e-06 -1.32193e-05 -4.83265e-05)
(1.31526e-05 -1.31356e-05 -4.59749e-05)
(1.54325e-05 -1.29714e-05 -3.68868e-05)
(2.14296e-05 -1.28229e-05 -3.27715e-05)
(1.64994e-05 -1.24283e-05 -1.91983e-05)
(2.77908e-06 -2.76281e-06 -5.07246e-05)
(1.32364e-05 -2.75566e-06 -4.83221e-05)
(1.55127e-05 -2.68152e-06 -3.92041e-05)
(2.1516e-05 -2.67697e-06 -3.4908e-05)
(1.65809e-05 -2.59729e-06 -2.13043e-05)
(3.88848e-06 -2.47713e-05 -3.08891e-05)
(1.84865e-05 -2.46943e-05 -2.7791e-05)
(2.16228e-05 -2.41685e-05 -1.61909e-05)
(3.02626e-05 -2.39072e-05 -1.06463e-05)
(2.34106e-05 -2.33984e-05 7.46978e-06)
(3.96307e-06 -3.22927e-05 -5.13344e-05)
(1.90827e-05 -3.20145e-05 -4.79141e-05)
(2.24019e-05 -3.13776e-05 -3.56645e-05)
(3.1023e-05 -3.10031e-05 -2.9748e-05)
(2.39194e-05 -3.02421e-05 -1.06358e-05)
(4.16509e-06 -2.39361e-05 -5.81466e-05)
(1.94016e-05 -2.36382e-05 -5.45834e-05)
(2.26342e-05 -2.26145e-05 -4.16778e-05)
(3.13981e-05 -2.23831e-05 -3.56605e-05)
(2.41813e-05 -2.16034e-05 -1.61757e-05)
(4.25954e-06 -2.05444e-05 -7.2041e-05)
(2.04043e-05 -2.03817e-05 -6.81881e-05)
(2.3657e-05 -1.93781e-05 -5.45726e-05)
(3.20342e-05 -1.90605e-05 -4.78997e-05)
(2.47071e-05 -1.84636e-05 -2.77663e-05)
(4.32506e-06 -4.30253e-06 -7.59983e-05)
(2.05679e-05 -4.23716e-06 -7.20366e-05)
(2.39554e-05 -4.14245e-06 -5.81304e-05)
(3.23126e-05 -3.94172e-06 -5.1315e-05)
(2.47848e-05 -3.86721e-06 -3.08588e-05)
(5.7204e-06 -3.7173e-05 -3.3537e-05)
(2.71437e-05 -3.67674e-05 -2.90133e-05)
(3.17075e-05 -3.57952e-05 -1.2337e-05)
(4.39769e-05 -3.52812e-05 -3.92693e-06)
(3.39528e-05 -3.39337e-05 2.13185e-05)
(6.12196e-06 -4.87588e-05 -6.5077e-05)
(2.851e-05 -4.8208e-05 -5.9644e-05)
(3.31801e-05 -4.64452e-05 -4.12241e-05)
(4.58217e-05 -4.57925e-05 -3.21202e-05)
(3.53002e-05 -4.39467e-05 -3.91392e-06)
(6.26896e-06 -3.62046e-05 -7.60537e-05)
(2.94573e-05 -3.56921e-05 -7.04401e-05)
(3.41229e-05 -3.40934e-05 -5.10327e-05)
(4.64754e-05 -3.31513e-05 -4.12209e-05)
(3.58152e-05 -3.16789e-05 -1.23207e-05)
(6.63201e-06 -3.1071e-05 -9.66727e-05)
(3.06211e-05 -3.05888e-05 -9.05139e-05)
(3.57209e-05 -2.94241e-05 -7.04274e-05)
(4.82363e-05 -2.84774e-05 -5.96287e-05)
(3.67862e-05 -2.71114e-05 -2.89864e-05)
(6.74792e-06 -6.71554e-06 -0.000103054)
(3.11042e-05 -6.60006e-06 -9.66697e-05)
(3.62343e-05 -6.23765e-06 -7.60377e-05)
(4.87881e-05 -6.09151e-06 -6.50575e-05)
(3.71928e-05 -5.69061e-06 -3.35066e-05)
(8.42277e-06 -5.65503e-05 -4.17526e-05)
(3.96865e-05 -5.55599e-05 -3.45908e-05)
(4.67091e-05 -5.32799e-05 -1.09348e-05)
(6.39187e-05 -5.23184e-05 1.89483e-06)
(4.88598e-05 -4.88345e-05 3.73237e-05)
(9.40683e-06 -7.48101e-05 -8.92146e-05)
(4.29355e-05 -7.3442e-05 -8.08653e-05)
(4.99257e-05 -7.00739e-05 -5.37644e-05)
(6.83339e-05 -6.82977e-05 -3.92721e-05)
(5.23436e-05 -6.38818e-05 1.91525e-06)
(9.78853e-06 -5.55319e-05 -0.000106834)
(4.44226e-05 -5.45081e-05 -9.77802e-05)
(5.18534e-05 -5.18178e-05 -6.93892e-05)
(7.01108e-05 -4.98916e-05 -5.37611e-05)
(5.33058e-05 -4.66759e-05 -1.09082e-05)
(1.04266e-05 -4.75446e-05 -0.000138227)
(4.66496e-05 -4.66113e-05 -0.000128226)
(5.45422e-05 -4.43831e-05 -9.77572e-05)
(7.34759e-05 -4.28972e-05 -8.0842e-05)
(5.55844e-05 -3.96496e-05 -3.4546e-05)
(1.07169e-05 -1.06783e-05 -0.000148744)
(4.7584e-05 -1.03887e-05 -0.000138227)
(5.55675e-05 -9.75139e-06 -0.000106809)
(7.48444e-05 -9.37039e-06 -8.91886e-05)
(5.65749e-05 -8.38982e-06 -4.17019e-05)
(1.28989e-05 -8.50021e-05 -5.48747e-05)
(5.79616e-05 -8.34002e-05 -4.34555e-05)
(6.81931e-05 -7.89638e-05 -8.80252e-06)
(9.22362e-05 -7.67748e-05 1.07128e-05)
(6.96803e-05 -6.96407e-05 6.24756e-05)
(1.44879e-05 -0.000113841 -0.000125925)
(6.39601e-05 -0.000111398 -0.000112513)
(7.47733e-05 -0.000104901 -7.24927e-05)
(0.000101502 -0.000101449 -4.99232e-05)
(7.68143e-05 -9.21795e-05 1.07317e-05)
(1.53385e-05 -8.52167e-05 -0.000154557)
(6.69019e-05 -8.3053e-05 -0.000139596)
(7.8142e-05 -7.80862e-05 -9.70661e-05)
(0.000104957 -7.47212e-05 -7.24926e-05)
(7.90071e-05 -6.81401e-05 -8.78035e-06)
(1.66472e-05 -7.29808e-05 -0.000202488)
(7.10906e-05 -7.10358e-05 -0.000185816)
(8.31051e-05 -6.68442e-05 -0.000139574)
(0.000111449 -6.39049e-05 -0.000112493)
(8.34407e-05 -5.7905e-05 -4.34161e-05)
(1.72773e-05 -1.72212e-05 -0.000220315)
(7.30385e-05 -1.65929e-05 -0.00020249)
(8.52728e-05 -1.52848e-05 -0.000154535)
(0.000113897 -1.44356e-05 -0.000125905)
(8.50469e-05 -1.28477e-05 -5.48301e-05)
(1.9863e-05 -0.000128168 -6.75934e-05)
(8.57587e-05 -0.000125168 -5.02011e-05)
(0.000100877 -0.000117483 6.1651e-07)
(0.000135198 -0.000113445 2.86929e-05)
(0.000101054 -0.00010101 0.000103199)
(2.28387e-05 -0.000174494 -0.000174048)
(9.63682e-05 -0.000169584 -0.000152378)
(0.000112516 -0.000158339 -9.35997e-05)
(0.00015156 -0.000151505 -5.87538e-05)
(0.000113489 -0.000135139 2.87365e-05)
(2.47675e-05 -0.000132095 -0.000221332)
(0.000101913 -0.000127811 -0.000196486)
(0.000118957 -0.000118899 -0.000132763)
(0.000158398 -0.000112461 -9.36029e-05)
(0.000117532 -0.000100824 6.66628e-07)
(2.71145e-05 -0.000113303 -0.000294439)
(0.000109564 -0.000109506 -0.00026617)
(0.000127865 -0.000101852 -0.000196433)
(0.000169635 -9.63101e-05 -0.000152335)
(0.000125211 -8.56993e-05 -5.01077e-05)
(2.85544e-05 -2.84956e-05 -0.0003252)
(0.000113363 -2.70563e-05 -0.000294459)
(0.000132152 -2.47111e-05 -0.000221294)
(0.000174551 -2.27837e-05 -0.000174018)
(0.000128217 -1.98105e-05 -6.75053e-05)
(3.03254e-05 -0.000192332 -9.5391e-05)
(0.000126171 -0.000186417 -6.75403e-05)
(0.000147087 -0.000173954 6.32139e-06)
(0.000194821 -0.000164949 5.04448e-05)
(0.000144805 -0.000144721 0.000157253)
(3.61927e-05 -0.000267583 -0.000256451)
(0.000144408 -0.000257686 -0.000220772)
(0.000168397 -0.000238282 -0.000133317)
(0.000223841 -0.000223747 -7.75913e-05)
(0.000165032 -0.000194714 5.04759e-05)
(4.02191e-05 -0.000205607 -0.000336617)
(0.000155471 -0.000196845 -0.000294122)
(0.000181025 -0.00018092 -0.000197365)
(0.000238389 -0.000168303 -0.000133325)
(0.000174051 -0.000146984 6.34475e-06)
(4.49506e-05 -0.000176849 -0.000450846)
(0.000169096 -0.000169009 -0.000401519)
(0.000196939 -0.000155375 -0.000294092)
(0.000257777 -0.00014432 -0.000220748)
(0.000186509 -0.000126077 -6.74902e-05)
(4.80486e-05 -4.79556e-05 -0.000506314)
(0.000176945 -4.48636e-05 -0.000450858)
(0.000205714 -4.01309e-05 -0.000336599)
(0.000267688 -3.61106e-05 -0.00025644)
(0.000192435 -3.02452e-05 -9.53513e-05)
(4.77537e-05 -0.000290586 -0.000113487)
(0.000187471 -0.000279691 -7.01614e-05)
(0.000218862 -0.000258298 3.34862e-05)
(0.000286133 -0.000242562 9.9596e-05)
(0.000208759 -0.000208683 0.000248455)
(5.8552e-05 -0.000415724 -0.000353052)
(0.000219502 -0.00039617 -0.000294347)
(0.000255696 -0.000362029 -0.000168254)
(0.000335356 -0.000335278 -8.03798e-05)
(0.000242637 -0.000286051 9.96849e-05)
(6.72947e-05 -0.00032649 -0.00048847)
(0.000241165 -0.000308558 -0.000415882)
(0.000279754 -0.000279673 -0.000272129)
(0.000362111 -0.000255618 -0.00016828)
(0.000258378 -0.00021879 3.3571e-05)
(7.64635e-05 -0.000283 -0.000663651)
(0.000266318 -0.000266242 -0.000577228)
(0.000308636 -0.000241086 -0.000415758)
(0.000396241 -0.000219425 -0.000294273)
(0.000279762 -0.000187395 -6.99783e-05)
(8.40333e-05 -8.39569e-05 -0.000762708)
(0.000283079 -7.63858e-05 -0.000663735)
(0.00032657 -6.72225e-05 -0.000488408)
(0.000415803 -5.84802e-05 -0.000353031)
(0.000290666 -4.76914e-05 -0.000113335)
(7.37178e-05 -0.000433979 -0.000167681)
(0.000273145 -0.000412551 -9.58288e-05)
(0.000316844 -0.00037745 5.41802e-05)
(0.000409794 -0.000346484 0.000158954)
(0.000294928 -0.000294755 0.000365882)
(9.49725e-05 -0.000642573 -0.000534512)
(0.000329205 -0.000603413 -0.000434428)
(0.000382364 -0.000543903 -0.000244884)
(0.000491785 -0.000491629 -0.000103513)
(0.000346656 -0.000409602 0.000158986)
(0.000112881 -0.000516207 -0.000774873)
(0.000371812 -0.000479725 -0.000642628)
(0.000428627 -0.000428423 -0.000419842)
(0.000544095 -0.000382195 -0.000244897)
(0.000377659 -0.000316647 5.41873e-05)
(0.000131456 -0.000451088 -0.00106196)
(0.000416989 -0.000416862 -0.000900172)
(0.000479894 -0.000371655 -0.000642613)
(0.000603563 -0.000329071 -0.000434413)
(0.000412752 -0.000272983 -9.58019e-05)
(0.000147092 -0.000146941 -0.00126093)
(0.000451246 -0.000131327 -0.00106196)
(0.000516418 -0.000112739 -0.000774874)
(0.000642769 -9.48493e-05 -0.000534516)
(0.000434215 -7.35918e-05 -0.00016768)
(0.000119685 -0.000660658 -0.000173613)
(0.000409332 -0.000621278 -6.22865e-05)
(0.000473644 -0.000560001 0.000140051)
(0.000597841 -0.000507306 0.000291544)
(0.000417461 -0.000417353 0.000571021)
(0.000158684 -0.00102293 -0.000708047)
(0.00050913 -0.00094298 -0.000542523)
(0.00058661 -0.00083606 -0.000279218)
(0.000739233 -0.000739137 -5.75748e-05)
(0.000507414 -0.000597751 0.000291709)
(0.000199598 -0.000853938 -0.00111151)
(0.000596196 -0.000774302 -0.000884988)
(0.000677483 -0.000677402 -0.000559774)
(0.00083615 -0.000586518 -0.000279296)
(0.000560102 -0.000473577 0.000140207)
(0.000238256 -0.000769058 -0.00155372)
(0.000685667 -0.000685579 -0.00126613)
(0.000774394 -0.000596119 -0.000884708)
(0.000943062 -0.000509045 -0.000542397)
(0.000621361 -0.000409263 -6.19291e-05)
(0.00028304 -0.000282959 -0.00190449)
(0.000769135 -0.000238164 -0.00155397)
(0.000854018 -0.000199531 -0.00111141)
(0.00102301 -0.000158606 -0.00070807)
(0.000660742 -0.000119641 -0.00017334)
(0.00018518 -0.000973355 -0.000263386)
(0.000586808 -0.000897211 -6.7048e-05)
(0.000670673 -0.00080055 0.000217326)
(0.000840772 -0.000698709 0.000457637)
(0.000576831 -0.000576492 0.000836043)
(0.000260659 -0.00158049 -0.00110153)
(0.000758034 -0.00142613 -0.000809571)
(0.000867311 -0.00124374 -0.000402997)
(0.00106272 -0.00106248 -4.47402e-05)
(0.000699048 -0.000840424 0.000457636)
(0.000339557 -0.00136188 -0.0018635)
(0.000923547 -0.00120333 -0.00141439)
(0.00103432 -0.00103391 -0.000888835)
(0.00124409 -0.000867016 -0.000402993)
(0.000800994 -0.000670284 0.000217277)
(0.000419247 -0.00124407 -0.00264747)
(0.00108601 -0.00108584 -0.00206104)
(0.00120362 -0.000923287 -0.00141446)
(0.00142636 -0.000757844 -0.000809586)
(0.000897645 -0.00058653 -6.71333e-05)
(0.000497753 -0.000497537 -0.00348724)
(0.00124433 -0.000419099 -0.00264742)
(0.00136232 -0.00033932 -0.00186356)
(0.00158085 -0.000260488 -0.00110153)
(0.000973889 -0.000184964 -0.000263502)
(0.000316201 -0.00150652 -0.000162553)
(0.000890045 -0.00137061 0.000114341)
(0.000998328 -0.00118595 0.000489148)
(0.00121657 -0.00101411 0.000819738)
(0.000799191 -0.000799084 0.00130567)
(0.000450683 -0.00262307 -0.00133144)
(0.00120766 -0.00229035 -0.000859656)
(0.00135144 -0.00194224 -0.000328908)
(0.00159988 -0.00159978 0.000187838)
(0.00101422 -0.00121653 0.000819995)
(0.000648853 -0.00239989 -0.0025481)
(0.00157086 -0.00202578 -0.0018146)
(0.00168888 -0.00168887 -0.00106643)
(0.00194228 -0.00135136 -0.000329076)
(0.001186 -0.000998345 0.000489409)
(0.000824594 -0.00239281 -0.0038028)
(0.00191868 -0.00191862 -0.00275261)
(0.00202585 -0.00157085 -0.00181405)
(0.00229042 -0.00120759 -0.000859489)
(0.00137062 -0.000890043 0.000114908)
(0.00112306 -0.00112293 -0.00516263)
(0.00239282 -0.000824492 -0.00380333)
(0.00239991 -0.000648843 -0.00254795)
(0.0026231 -0.000450624 -0.00133157)
(0.00150649 -0.00031626 -0.000162108)
(0.000462339 -0.00215376 -0.000219732)
(0.00123851 -0.00188073 0.000251996)
(0.00137607 -0.00162635 0.000765051)
(0.00165731 -0.00133646 0.0012719)
(0.00106718 -0.00106659 0.00186829)
(0.000732753 -0.00396607 -0.00207916)
(0.00176056 -0.00335511 -0.00125779)
(0.0019148 -0.00279935 -0.000405504)
(0.00221164 -0.00221131 0.000385446)
(0.00133706 -0.0016567 0.00127184)
(0.00107335 -0.00383327 -0.00453501)
(0.00240522 -0.00309628 -0.00295288)
(0.00251984 -0.00251906 -0.00169633)
(0.00279996 -0.00191434 -0.000405466)
(0.00162723 -0.00137537 0.000764917)
(0.00146986 -0.00385858 -0.00690693)
(0.00307474 -0.00307456 -0.00464739)
(0.00309675 -0.0024048 -0.00295305)
(0.00335535 -0.00176034 -0.00125783)
(0.00188156 -0.00123805 0.00025178)
(0.00185728 -0.00185732 -0.0110422)
(0.003859 -0.0014699 -0.00690702)
(0.0038341 -0.00107294 -0.0045352)
(0.00396673 -0.000732572 -0.00207917)
(0.00215488 -0.000461861 -0.000220024)
(0.000788374 -0.00338392 0.000345126)
(0.00187483 -0.00289466 0.000972093)
(0.00201823 -0.00236738 0.00157869)
(0.00231983 -0.00190877 0.00220044)
(0.0014013 -0.00140126 0.00280786)
(0.00127208 -0.00693842 -0.0020996)
(0.00288132 -0.00549528 -0.000787357)
(0.00299468 -0.00440367 0.000208587)
(0.00327725 -0.00327717 0.00123534)
(0.00190882 -0.00231993 0.00220071)
(0.00223155 -0.00722778 -0.00568216)
(0.00440953 -0.00541542 -0.00327935)
(0.00423631 -0.00423643 -0.00154478)
(0.00440358 -0.00299465 0.000208364)
(0.00236725 -0.0020184 0.00157904)
(0.00308404 -0.00889994 -0.0100506)
(0.00587253 -0.00587272 -0.00571039)
(0.00541545 -0.00440971 -0.00327852)
(0.0054953 -0.00288129 -0.000787217)
(0.0028945 -0.00187498 0.000972835)
(0.0052602 -0.00525916 -0.0158651)
(0.00889976 -0.00308393 -0.0100514)
(0.00722789 -0.00223162 -0.00568192)
(0.00693835 -0.00127206 -0.00209988)
(0.0033836 -0.000788761 0.000345708)
(0.00108967 -0.00462318 0.000765017)
(0.00247206 -0.00365786 0.00177696)
(0.00260439 -0.00301028 0.0025627)
(0.00288649 -0.0023112 0.0033149)
(0.0016809 -0.00168002 0.00398571)
(0.00204546 -0.00999327 -0.00273752)
(0.0040687 -0.00760653 -0.000741754)
(0.00393748 -0.00592283 0.000730131)
(0.00420379 -0.0042034 0.00216129)
(0.00231207 -0.00288554 0.00331488)
(0.00347668 -0.0117844 -0.00997076)
(0.00654241 -0.00801935 -0.00482293)
(0.00600756 -0.00600617 -0.00196135)
(0.00592378 -0.00393688 0.00073013)
(0.00301172 -0.00260323 0.00256255)
(0.00581157 -0.0140398 -0.0180855)
(0.00984641 -0.00984622 -0.00947874)
(0.00801995 -0.00654175 -0.00482288)
(0.00760669 -0.00406853 -0.00074179)
(0.0036593 -0.00247136 0.00177674)
(0.00767479 -0.0076785 -0.0412558)
(0.0140404 -0.00581282 -0.0180869)
(0.0117857 -0.00347596 -0.00997131)
(0.00999426 -0.00204548 -0.00273762)
(0.00462517 -0.00108865 0.00076462)
(0.00180113 -0.0069233 0.00308664)
(0.00367252 -0.00543884 0.00413627)
(0.00355619 -0.0042185 0.00469904)
(0.00374287 -0.00307381 0.00531812)
(0.00207892 -0.00207888 0.00568746)
(0.00326805 -0.0176742 -0.00107131)
(0.00634894 -0.0120953 0.00181131)
(0.0058978 -0.00892782 0.0031812)
(0.00586207 -0.00586201 0.00451249)
(0.00307384 -0.00374312 0.00531817)
(0.00738197 -0.0225745 -0.0106263)
(0.0124187 -0.0141527 -0.00309797)
(0.00978959 -0.00978965 0.00031933)
(0.00892757 -0.00589781 0.0031811)
(0.00421822 -0.00355657 0.00469928)
(0.0116984 -0.0402629 -0.0298554)
(0.0191369 -0.0191384 -0.00907588)
(0.0141527 -0.0124194 -0.00309698)
(0.012095 -0.00634901 0.00181136)
(0.00543849 -0.00367292 0.00413674)
(0.0285448 -0.028535 -0.0572441)
(0.0402621 -0.0116989 -0.0298589)
(0.0225759 -0.00738186 -0.0106256)
(0.0176743 -0.00326809 -0.00107168)
(0.00692268 -0.00180216 0.00308712)
(0.00214005 -0.00882498 0.00615115)
(0.00408438 -0.00600811 0.0070482)
(0.00378623 -0.00454445 0.00738745)
(0.00387493 -0.00312555 0.00767748)
(0.00205463 -0.0020537 0.00766029)
(0.00492931 -0.0237031 0.00291947)
(0.00832074 -0.0148405 0.00474201)
(0.00663859 -0.0103024 0.00644467)
(0.00634071 -0.00634036 0.00725437)
(0.00312648 -0.00387373 0.00767766)
(0.0110137 -0.0403737 -0.00900991)
(0.0174893 -0.0189006 -0.000259002)
(0.0122866 -0.0122843 0.00397381)
(0.0103036 -0.00663794 0.00644463)
(0.00454624 -0.00378464 0.00738749)
(0.0270543 -0.0851244 -0.0412284)
(0.0370066 -0.0370091 -0.0141542)
(0.0189012 -0.0174879 -0.000258986)
(0.0148401 -0.00832084 0.00474188)
(0.00600998 -0.00408345 0.00704829)
(0.0351355 -0.0393206 -0.147703)
(0.0851204 -0.0270608 -0.0412285)
(0.040378 -0.0110098 -0.00901208)
(0.0237038 -0.00492997 0.00291991)
(0.00882783 -0.0021379 0.00615087)
(0.00269866 -0.0101988 0.0131898)
(0.00490889 -0.00777019 0.0122658)
(0.00418555 -0.00517316 0.0114458)