FoamFile
{version 2.0; format ascii;class Cloud<passiveParticle>; location 0;object  positions;}
1
(
( 0.0499968 0.012347 0.0499968 ) 0 
)
