FoamFile
{version 2.0; format ascii;class Cloud<passiveParticle>; location 0;object  positions;}
2
(
( 0.499999 0.499999 3.39129 ) 0 
( 0.499999 0.499999 3.05317 ) 0 
)
