/*--------------------------------*- C++ -*----------------------------------*\
| =========                 |                                                 |
| \\      /  F ield         | OpenFOAM: The Open Source CFD Toolbox           |
|  \\    /   O peration     | Version:  5.x                                   |
|   \\  /    A nd           | Web:      www.OpenFOAM.org                      |
|    \\/     M anipulation  |                                                 |
\*---------------------------------------------------------------------------*/
FoamFile
{
    version     2.0;
    format      ascii;
    class       volScalarField;
    location    "0.057";
    object      interFace;
}
// * * * * * * * * * * * * * * * * * * * * * * * * * * * * * * * * * * * * * //

dimensions      [0 0 0 0 0 0 0];

internalField   nonuniform List<scalar> 
1567
(
0
0
0
0
0
0
0
0
0
0
0
0
0
0
0
0
0
0
0
0
0
0
0
0
0
0
0
0
0
0
0
0
0
0
0
0
0
0
0
0
0
0
0
0
0
0
0
0
0
0
0
0
0
0
0
0
0
0
0
0
0
0
0
0
0
0
0
0
0
0
0
0
0
0
0
0
0
0
0
0
0
0
0
0
0
0
0
0
0
0
0
0
0
0
0
0
0
0
0
0
0
0
0
0
0
0
0
0
0
0
0
0
0
0
0
0
0
0
0
0
0
0
0
0
0
0
0
0
0
0
0
0
0
0
0
0
0
0
0
0
0
0
0
0
0
0
0
0
0
0
0
0
0
0
0
0
0
0
0
0
0
0
0
0
0
0
0
0
0
0
0
0
0
0
0
0
0
0
0
0
0
0
0
0
0
0
0
0
0
0
0
0
0
0
0
0
0
0
0
0
0
0
0
0
0
0
0
0
0
0
0
0
0
0
0
0
0
0
0
0
0
0
0
0
0
0
0
0
0
0
0
0
0
0
0
0
0
0
0
0
0
0
0
0
0
0
0
0
0
0
0
0
0
0
0
0
0
0
0
0
0
0
0
0
0
0
0
0
0
0
0
0
0
0
0
0
0
0
0
0
0
0
0
0
0
0
0
0
0
0
0
0
0
0
0
0
0
0
0
0
0
0
0
0
0
0
0
0
0
0
0
0
0
0
0
0
0
0
0
0
0
0
0
0
0
0
0
0
0
0
0
0
0
0
0
0
0
0
0
0
0
0
0
0
0
0
0
0
0
0
0
0
0
0
0
0
0
0
0
0
0
0
0
0
0
0
0
0
0
0
0
0
0
0
0
0
0
0
0
0
0
0
0
0
0
0
0
0
0
0
0
0
0
0
0
0
0
0
0
0
0
0
0
0
0
0
0
0
0
0
0
0
0
0
0
0
0
0
0
0
0
0
0
0
0
0
0
0
0
0
0
0
0
0
0
0
0
0
0
0
0
0
0
0
0
0
0
0
0
0
0
0
0
0
0
0
0
0
0
0
0
0
0
0
0
0
0
0
0
0
0
0
0
0
0
0
0
0
0
0
0
0
0
0
0
0
0
0
0
0
0
0
0
0
0
0
0
0
0
0
0
0
0
0
0
0
0
0
0
0
0
0
0
0
0
0
0
0
0
0
0
0
0
0
0
0
0
0
0
0
0
0
0
0
0
0
0
0
0
0
0
0
0
0
0
0
0
0
0
0
0
0
0
0
0
0
0
0
0
0
0
0
0
0
0
0
0
0
0
0
0
0
0
0
0
0
0
0
0
0
0
0
0
0
0
0
0
0
0
0
0
0
0
0
0
0
0
0
0
0
0
0
0
0
0
0
0
0
0
0
0
0
0
0
0
0
0
0
0
0
0
0
0
0
0
0
0
0
0
0
0
0
0
0
0
0
0
0
0
0
0
0
0
0
0
0
0
0
0
0
0
0
0
0
0
0
0
0
0
0
0
0
0
0
0
0
0
0
0
0
0
0
0
0
0
0
0
0
0
0
0
0
0
0
0
0
0
0
0
0
0
0
0
0
0
0
0
0
0
0
0
0
0
0
0.508274
0
0
0
0
0.924368
0
0
0
0
0
0
0
0
0
0
0
0
0
0
0
0
0
0
0
0.294671
0
0
0
0
0.743031
0
0
0
0
0
0
0
0
0
0
0
0
0
0
0
0
0
0
0
0.855573
0
0
0
0
0
0
0
0
0
0
0
0
0
0
0
0
0
0
0
0
0
0
0
0
0.79249
0
0
0
0
0
0
0
0
0
0
0
0
0
0
0
0
0
0
0
0
0
0
0
0
0.293723
0
0
0
0
0.742079
0
0
0
0
0
0
0
0
0
0
0
0
0
0
0
0
0
0
0
0.512084
0
0
0
0
0
0
0
0
0
0
0
0
0
0
0
0
0
0
0
0
0
0
0
0
0
0
0
0
0
0
0
0
0
0
0
0
0
0
0
0
0
0
0
0
0
0
0
0
0
0
0
0
0
0
0
0
0
0
0
0
0
0
0
0
0
0
0
0
0
0
0
0
0
0
0
0
0
0
0
0
0
0
0
0
0
0
0
0
0
0
0
0
0
0
0
0
0
0
0
0
0
0
0
0
0
0
0
0
0
0
0
0
0
0
0
0
0
0
0
0
0
0
0
0
0
0
0
0
0
0
0
0
0
0
0
0
0
0
0
0
0
0
0
0
0
0
0
0
0
0
0
0
0
0
0
0
0
0
0
0
0
0
0
0
0
0
0
0
0
0
0.529383
0
0.855722
0
0.929216
0
0
0.523678
0
0.792714
0.351184
0.0823716
0.62022
0.351408
0.0249106
0.562759
0.293947
0.390263
0.121451
0.659299
0.390487
0.892305
0
0
0
0
0
0
0.243272
0.781121
0.512308
0.956739
0.777531
0
0.956888
0.892603
0
0
0
0
0
0
0.0258575
0.56371
0.294896
0.605085
0.336271
0.874123
0.605309
0.856959
0.574167
0.574242
0.767316
0.619026
0.8121
0.812175
0.499556
0.288056
0.28813
0.409914
0.332914
0.454698
0.454772
0.58916
0.37766
0.556943
0.678726
0.422518
0.723584
0.544302
0.589234
0.377809
0.557092
0.67895
0.422593
0.723734
0.544451
0.381055
0.38113
0.425914
0.277622
0.187979
0.232763
0.232838
0.473917
0
0.742956
0
0.82784
0
0
0.474217
0
0
0
0.828139
0
0
0.47066
0.649944
0.515519
0.367227
0.456793
0.501652
0.322368
0.470809
0.650093
0.515593
0.367302
0.457018
0.501802
0.322518
0.678838
0.646621
0.646696
0.947762
0.512197
0.813263
0.813338
0.739623
0.739698
0.605198
0.456906
0.725832
0.591332
0.591406
0.134092
0.0444504
0.166235
0.166309
0.211093
0.0892339
0.0893086
0.472968
0
0.742004
0
0.569508
0
0.838544
0.473266
0
0
0.828169
0.569807
0
0
0.223696
0.313263
0.255839
0.435121
0.358121
0.300697
0.178838
0.223771
0.313486
0.255988
0.435271
0.35827
0.300771
0.178987
0.239461
0.777313
0.508499
0.280841
0.0120274
0.54988
0.281066
0.174151
0.0706416
0.0707165
0.0845081
0.115501
0.129292
0.129367
0.263756
0.160246
0.33953
0.353322
0.205105
0.398181
0.218897
0.263831
0.160396
0.33968
0.353547
0.20518
0.398331
0.219047
0.313375
0.582299
0.5248
0.524875
0.447799
0.447874
0.390375
0.353435
0.42921
0.429285
0.622361
0.294785
0.48786
0.487935
0.101912
0.0696941
0.0697688
0.0122703
0.114552
0.0570538
0.0571284
0
0
0
0
0
0
0
0.492508
0.793574
0.614366
0.537366
0.838432
0.761431
0.716573
0.492806
0.61459
0.793947
0.53759
0.838731
0.76173
0.716947
0.191516
0.159298
0.338581
0.281082
0.204156
0.325941
0.146658
0.191591
0.159447
0.33873
0.281306
0.204231
0.32609
0.146807
0.0568116
0.0568864
0.101671
0.132661
0.043018
0.0878021
0.0878769
0.68752
0
0.924218
0
0.460087
0
0.729126
0.68782
0
0
0.729201
0.460387
0
0
0.518776
0.532568
0.577427
0.801493
0.697983
0.742842
0.756634
0.519001
0.532867
0.577651
0.801792
0.698358
0.743142
0.757008
0.281195
0.42826
0.428334
0.550118
0.293835
0.415619
0.415694
0.146416
0.3257
0.191275
0.222266
0.311832
0.356691
0.177407
0.146566
0.32585
0.19135
0.222341
0.312057
0.356841
0.177556
0.41538
0.415455
0.280955
0.311945
0.58087
0.44637
0.446445
0
0
0
0
0
0
0
0.761544
0.704045
0
0.627044
0.928111
0.85111
0.985609
0.274295
0.184653
0.127155
0.12723
0.172013
0.229437
0.229511
0.608605
0.801681
0.667256
0.891397
0.967172
0.832747
0
0.608456
0.801606
0.667106
0.891172
0.967022
0.832522
0
0.993428
0
0
0
0.530429
0
0.878581
0.993726
0
0
0.87873
0.530727
0
0
0.363899
0.453465
0.216759
0.396042
0.498323
0.261617
0.319041
0.363973
0.453689
0.216908
0.396191
0.498473
0.261692
0.31919
0.697034
0.517826
0.460328
0.741892
0.505186
0.729251
0.684393
0.51805
0.697407
0.460626
0.74219
0.50541
0.72955
0.684766
0
0
0
0.673727
0.404913
0.896631
0.673951
0.208472
0.284245
0.28432
0.118829
0.329104
0.163613
0.163688
0.298077
0.373849
0.553133
0.387643
0.418708
0.432502
0.253218
0.298152
0.373999
0.553283
0.387868
0.418783
0.432652
0.253367
0.504946
0.684153
0.729012
0.491078
0.535937
0.760003
0.715144
0.505171
0.684528
0.729312
0.491377
0.536161
0.760302
0.715518
0.453577
0.722501
0.485721
0.485795
0.588002
0.588077
0.351296
0.387756
0.642813
0.642888
0.656681
0.508388
0.522181
0.522256
0.607654
0.966219
0.729438
0.831794
0.595014
0.819154
0.953578
0.607505
0.96607
0.729364
0.83157
0.594864
0.81893
0.953429
0.421397
0.568461
0.568536
0.331755
0.613319
0.376539
0.376613
0
0
0
0
0
0
0
0.594626
0.953192
0.818692
0.760116
0.625616
0.849682
0.984182
0.594775
0.953342
0.818916
0.760191
0.625766
0.849907
0.984332
0.511001
0.658065
0.837348
0.600567
0.702923
0.645425
0.466143
0.511075
0.658214
0.837497
0.600791
0.702998
0.645575
0.466292
0.63271
0.754494
0.575287
0.677568
0.799353
0.901634
0.856776
0.633009
0.575511
0.754868
0.677792
0.799651
0.901933
0.857149
0.449697
0.449772
0.494556
0.704828
0.615185
0.659969
0.660044
0
0
0
0
0
0
0
0
0
0
0
0
0
0
0.732379
0.566889
0.611748
0.835814
0.911586
0.956445
0.790955
0.732604
0.567188
0.611972
0.836113
0.911961
0.956745
0.791329
0.539301
0.718586
0.58416
0.794433
0.883999
0.928858
0.749574
0.539451
0.718735
0.584235
0.794508
0.884224
0.929008
0.749724
0.600679
0.927027
0.927101
0.869603
0.792602
0.735104
0.735179
)
;

boundaryField
{
    inlet
    {
        type            calculated;
        value           uniform 0;
    }
    wall
    {
        type            calculated;
        value           uniform 0;
    }
    outlet
    {
        type            calculated;
        value           uniform 0;
    }
    procBoundary2to0
    {
        type            processor;
        value           uniform 0;
    }
    procBoundary2to3
    {
        type            processor;
        value           uniform 0;
    }
}


// ************************************************************************* //
