/*--------------------------------*- C++ -*----------------------------------*\
| =========                 |                                                 |
| \\      /  F ield         | OpenFOAM: The Open Source CFD Toolbox           |
|  \\    /   O peration     | Version:  5.x                                   |
|   \\  /    A nd           | Web:      www.OpenFOAM.org                      |
|    \\/     M anipulation  |                                                 |
\*---------------------------------------------------------------------------*/
FoamFile
{
    version     2.0;
    format      ascii;
    class       volScalarField;
    location    "0.057";
    object      phiIB;
}
// * * * * * * * * * * * * * * * * * * * * * * * * * * * * * * * * * * * * * //

dimensions      [0 2 -1 0 0 0 0];

internalField   nonuniform List<scalar> 
1567
(
-0.000103933
-0.000103893
-0.000103892
-0.000103876
-0.000103879
-0.000103934
-0.000103894
-0.000103892
-0.000103876
-0.000103879
-0.000103947
-0.000103906
-0.000103904
-0.000103888
-0.00010389
-0.00010395
-0.000103909
-0.000103907
-0.000103891
-0.000103893
-0.000103987
-0.000103946
-0.000103944
-0.000103928
-0.00010393
-0.000203233
-0.000203223
-0.000203216
-0.00020321
-0.000203209
-0.000203234
-0.000203224
-0.000203217
-0.000203211
-0.000203209
-0.000203239
-0.000203229
-0.000203222
-0.000203216
-0.000203213
-0.000203245
-0.000203235
-0.000203228
-0.000203221
-0.000203218
-0.000203255
-0.000203246
-0.000203238
-0.000203232
-0.000203229
-0.000482686
-0.000482635
-0.00048262
-0.000482597
-0.000482595
-0.00048269
-0.000482639
-0.000482623
-0.0004826
-0.000482596
-0.000482709
-0.000482657
-0.000482641
-0.000482617
-0.000482614
-0.000482724
-0.000482672
-0.000482656
-0.000482632
-0.000482628
-0.000482772
-0.00048272
-0.000482704
-0.00048268
-0.000482676
-0.000630082
-0.000630034
-0.000630012
-0.000629988
-0.000629982
-0.000630086
-0.000630038
-0.000630016
-0.000629992
-0.000629985
-0.000630105
-0.000630058
-0.000630036
-0.000630011
-0.000630005
-0.000630124
-0.000630076
-0.000630054
-0.00063003
-0.000630023
-0.000630169
-0.000630123
-0.000630101
-0.000630076
-0.00063007
-0.00088366
-0.000883579
-0.000883547
-0.000883508
-0.000883499
-0.000883666
-0.000883585
-0.000883553
-0.000883514
-0.000883505
-0.000883697
-0.000883617
-0.000883585
-0.000883546
-0.000883536
-0.000883725
-0.000883645
-0.000883613
-0.000883574
-0.000883565
-0.000883801
-0.000883722
-0.00088369
-0.000883652
-0.000883643
-0.00105591
-0.0010558
-0.00105576
-0.00105571
-0.00105569
-0.00105591
-0.00105581
-0.00105577
-0.00105571
-0.0010557
-0.00105596
-0.00105585
-0.00105581
-0.00105576
-0.00105575
-0.00105599
-0.00105589
-0.00105585
-0.0010558
-0.00105578
-0.00105609
-0.00105599
-0.00105595
-0.0010559
-0.00105589
-0.001289
-0.00128885
-0.00128879
-0.00128871
-0.00128869
-0.00128901
-0.00128886
-0.0012888
-0.00128873
-0.00128871
-0.00128907
-0.00128892
-0.00128886
-0.00128879
-0.00128877
-0.00128912
-0.00128897
-0.00128891
-0.00128884
-0.00128883
-0.00128926
-0.00128912
-0.00128906
-0.00128899
-0.00128897
-0.00147673
-0.00147652
-0.00147644
-0.00147634
-0.00147631
-0.00147674
-0.00147653
-0.00147645
-0.00147635
-0.00147633
-0.00147682
-0.00147662
-0.00147654
-0.00147644
-0.00147642
-0.00147689
-0.00147669
-0.00147661
-0.00147651
-0.00147649
-0.00147709
-0.00147689
-0.00147681
-0.00147672
-0.0014767
-0.00169671
-0.00169642
-0.00169631
-0.00169617
-0.00169614
-0.00169673
-0.00169644
-0.00169633
-0.00169619
-0.00169616
-0.00169684
-0.00169656
-0.00169645
-0.00169631
-0.00169628
-0.00169694
-0.00169666
-0.00169655
-0.00169642
-0.00169639
-0.00169721
-0.00169694
-0.00169683
-0.0016967
-0.00169667
-0.00189266
-0.00189225
-0.0018921
-0.00189191
-0.00189188
-0.00189268
-0.00189227
-0.00189212
-0.00189194
-0.0018919
-0.00189284
-0.00189244
-0.00189229
-0.00189211
-0.00189207
-0.00189297
-0.00189257
-0.00189243
-0.00189225
-0.00189221
-0.00189336
-0.00189297
-0.00189283
-0.00189265
-0.00189262
-0.00210428
-0.00210371
-0.0021035
-0.00210326
-0.00210321
-0.00210431
-0.00210374
-0.00210354
-0.00210329
-0.00210324
-0.00210452
-0.00210397
-0.00210376
-0.00210352
-0.00210347
-0.0021047
-0.00210416
-0.00210395
-0.00210371
-0.00210366
-0.00210522
-0.0021047
-0.0021045
-0.00210428
-0.00210423
-0.00230308
-0.0023023
-0.00230205
-0.00230173
-0.00230169
-0.00230311
-0.00230233
-0.00230208
-0.00230176
-0.00230171
-0.0023034
-0.00230263
-0.00230238
-0.00230206
-0.00230201
-0.00230362
-0.00230286
-0.00230261
-0.0023023
-0.00230224
-0.00230435
-0.00230362
-0.00230338
-0.00230308
-0.00230303
-0.00250805
-0.00250698
-0.0025067
-0.00250632
-0.0025063
-0.00250807
-0.00250701
-0.00250671
-0.00250632
-0.00250629
-0.00250842
-0.00250739
-0.00250708
-0.00250669
-0.00250665
-0.0025087
-0.00250768
-0.00250736
-0.00250696
-0.0025069
-0.00250966
-0.0025087
-0.0025084
-0.00250803
-0.00250798
-0.00270517
-0.00270381
-0.0027037
-0.00270337
-0.00270347
-0.00270514
-0.00270379
-0.00270362
-0.00270328
-0.00270334
-0.00270556
-0.0027042
-0.00270398
-0.0027036
-0.00270364
-0.00270581
-0.00270446
-0.00270417
-0.00270374
-0.00270373
-0.0027071
-0.00270582
-0.00270554
-0.0027051
-0.00270509
-0.00290143
-0.00289981
-0.00290026
-0.00290082
-0.00290142
-0.00290129
-0.00289965
-0.00289993
-0.00290023
-0.00290077
-0.00290168
-0.00290002
-0.00290007
-0.00289991
-0.00290019
-0.00290188
-0.00290016
-0.00289998
-0.00289958
-0.0028997
-0.00290349
-0.00290189
-0.00290165
-0.00290124
-0.00290133
-0.00308985
-0.00308868
-0.00309028
-0.00309233
-0.00309452
-0.00308935
-0.00308791
-0.00308937
-0.00309057
-0.00309223
-0.0030897
-0.00308797
-0.00308893
-0.00308932
-0.00309014
-0.00308954
-0.00308756
-0.0030879
-0.0030878
-0.00308849
-0.00309158
-0.00308955
-0.00308965
-0.00308927
-0.0030897
-0.00326465
-0.00326424
-0.00326715
-0.00326924
-0.00327033
-0.00326392
-0.00326285
-0.00326531
-0.00326791
-0.00326911
-0.00326435
-0.00326239
-0.00326367
-0.00326523
-0.00326691
-0.00326422
-0.00326173
-0.0032623
-0.00326269
-0.00326391
-0.00326727
-0.00326425
-0.00326429
-0.00326381
-0.0032644
-0.00341931
-0.00341737
-0.00341723
-0.00341517
-0.00341495
-0.00341893
-0.00341717
-0.00341713
-0.00341516
-0.00341503
-0.00341975
-0.00341714
-0.00341775
-0.00341703
-0.003417
-0.00342012
-0.00341642
-0.00341702
-0.00341693
-0.00341701
-0.00342534
-0.00342015
-0.00341967
-0.00341876
-0.00341899
-0.00353058
-0.00352419
-0.00352019
-0.00351524
-0.00351268
-0.00353143
-0.00352573
-0.00352196
-0.00351721
-0.00351502
-0.00353535
-0.00352942
-0.00352663
-0.00352184
-0.00351987
-0.00353852
-0.0035309
-0.00352922
-0.00352543
-0.00352371
-0.00354783
-0.00353856
-0.00353521
-0.00353118
-0.00353014
-0.0036195
-0.0036047
-0.00359536
-0.00358546
-0.00358007
-0.00361976
-0.00360671
-0.00359833
-0.00358952
-0.00358514
-0.00362539
-0.00361321
-0.00360586
-0.0035981
-0.00359482
-0.00363077
-0.00361814
-0.00361296
-0.00360623
-0.00360392
-0.00364167
-0.00363083
-0.00362521
-0.00361931
-0.00361873
-0.0036574
-0.0036311
-0.00360975
-0.00359207
-0.00357611
-0.00366038
-0.0036363
-0.00361783
-0.00360277
-0.00359156
-0.00366889
-0.00364709
-0.00363132
-0.00361757
-0.00360901
-0.00367702
-0.0036585
-0.00364673
-0.00363565
-0.00363002
-0.00369255
-0.00367713
-0.00366862
-0.00365977
-0.00365649
-0.00369675
-0.00366636
-0.00364527
-0.00362659
-0.00361466
-0.00369855
-0.00367142
-0.00365262
-0.00363737
-0.00362619
-0.0037072
-0.0036817
-0.00366614
-0.0036522
-0.00364436
-0.00371585
-0.00369382
-0.00368126
-0.00367056
-0.00366499
-0.00373449
-0.00371595
-0.00370684
-0.00369772
-0.00369543
-0.00367948
-0.00363264
-0.00359191
-0.00357475
-0.00354646
-0.00368637
-0.00364408
-0.00360998
-0.00359401
-0.00357408
-0.00369469
-0.0036572
-0.00362756
-0.00360957
-0.00359076
-0.00370464
-0.00367706
-0.00365658
-0.00364303
-0.0036308
-0.00372939
-0.00370486
-0.00369433
-0.0036856
-0.00367798
-0.00372202
-0.00367715
-0.00364352
-0.00362646
-0.00358376
-0.00372345
-0.00368842
-0.00366094
-0.00365569
-0.00362636
-0.00372885
-0.00369429
-0.00367348
-0.00366018
-0.00364234
-0.00373228
-0.00370629
-0.00369364
-0.00368719
-0.00367533
-0.00375545
-0.00373229
-0.00372816
-0.00372215
-0.00371988
-0.00365204
-0.00360618
-0.00353619
-0.00352618
-0.00345984
-0.00365764
-0.00362019
-0.00357421
-0.00356782
-0.00352374
-0.00366537
-0.00362669
-0.00358623
-0.00357343
-0.00353422
-0.00367756
-0.00364593
-0.00362569
-0.00361855
-0.00360332
-0.00370867
-0.00367773
-0.00366447
-0.00365576
-0.00364891
-0.003669
-0.00363223
-0.00353837
-0.00364097
-0.00332001
-0.00368223
-0.00366106
-0.00361702
-0.00371827
-0.00364425
-0.00369305
-0.00364505
-0.00360895
-0.00361603
-0.00353981
-0.00370373
-0.00367262
-0.00364396
-0.00365874
-0.00362987
-0.0037371
-0.00370355
-0.00369152
-0.0036791
-0.00366498
-0.00353505
-0.0035117
-0.00344826
-0.00333511
-0.00360998
-0.00355714
-0.00352531
-0.00346447
-0.00346343
-0.00334036
-0.00358011
-0.00352318
-0.0034592
-0.00346571
-0.00345072
-0.00360571
-0.00356499
-0.00352122
-0.00352164
-0.00350415
-0.00365282
-0.00360557
-0.00357784
-0.00355227
-0.00352719
-0.00353322
-0.00360215
-0.00300054
-0.00294553
-0.00161315
-0.00358708
-0.00360546
-0.00336546
-0.00363678
-0.00341997
-0.00360916
-0.0035478
-0.00336102
-0.00336417
-0.00300488
-0.00363996
-0.00361755
-0.00354589
-0.0035996
-0.00358951
-0.00368334
-0.00363963
-0.00360666
-0.00358065
-0.00352481
-0.00346383
-0.00348735
-0.00339919
-0.0025136
-0.00180773
-0.00345481
-0.00346923
-0.00333226
-0.0032038
-0.00324033
-0.00350179
-0.00343918
-0.00337254
-0.00332498
-0.00338555
-0.00351927
-0.00349779
-0.00343582
-0.00346095
-0.00346989
-0.00357209
-0.00351908
-0.00349811
-0.00344606
-0.00344955
-0.00363264
-0.00360511
-0.00377459
-0.0032578
-0.0072688
-0.00359253
-0.00355392
-0.00365073
-0.00346666
-0.00408083
-0.00359872
-0.0035982
-0.00362278
-0.00364547
-0.00375131
-0.00360387
-0.00359478
-0.00359462
-0.00354548
-0.00358893
-0.0036193
-0.0036044
-0.00359621
-0.00358528
-0.00362247
-0.0034152
-0.00332459
-0.00395994
-0.00283675
-0.00612078
-0.00336293
-0.00330453
-0.00327466
-0.00289265
-0.00277183
-0.00341375
-0.00338032
-0.00338419
-0.00327047
-0.00392224
-0.00342105
-0.00341227
-0.00337756
-0.00329863
-0.00330704
-0.00345399
-0.00342164
-0.00341114
-0.00335506
-0.00340334
-0.00348752
-0.00334867
-0.00331186
-0.00321387
-0.00141692
-0.0034603
-0.00337506
-0.00332538
-0.0029746
-0.00221013
-0.00347335
-0.00344363
-0.0034353
-0.00332658
-0.00335231
-0.00347851
-0.00346226
-0.00344178
-0.00337013
-0.00334011
-0.00348799
-0.00347994
-0.0034712
-0.00345204
-0.0034724
-0.00330603
-0.00331122
-0.00348363
-0.0033108
-0.00163107
-0.00326734
-0.00327823
-0.0033325
-0.00324323
-0.00287035
-0.00327695
-0.00328264
-0.00331463
-0.00331218
-0.00346127
-0.00326383
-0.00327687
-0.00327928
-0.00327267
-0.00330485
-0.00326654
-0.00326393
-0.00327344
-0.00325999
-0.00329667
-0.00344026
-0.00339062
-0.00356781
-0.00324079
-0.00446498
-0.00340241
-0.00339779
-0.00343143
-0.00344685
-0.00373406
-0.00338448
-0.00339715
-0.00344123
-0.00342102
-0.00354014
-0.00336593
-0.00337908
-0.00339474
-0.00339201
-0.00338351
-0.00334852
-0.00336635
-0.00338237
-0.00339653
-0.00343169
-0.00306689
-0.0029041
-0.00323661
-0.00276379
-0.00303175
-0.00301647
-0.0029714
-0.00299491
-0.00305956
-0.00278542
-0.00300368
-0.00300301
-0.00308357
-0.00299627
-0.00323826
-0.00298874
-0.00298857
-0.00299922
-0.00296687
-0.00289383
-0.00297707
-0.0029906
-0.00300405
-0.00301614
-0.00306355
-0.00309002
-0.00304956
-0.00318741
-0.00324231
-0.00346669
-0.00306163
-0.00305998
-0.00310352
-0.00314243
-0.0032717
-0.00304563
-0.0030657
-0.00311416
-0.00309737
-0.00318778
-0.00303153
-0.00304928
-0.00306494
-0.00305739
-0.00304808
-0.00301508
-0.00303272
-0.00304568
-0.00305888
-0.00308448
-0.00230605
-0.00222939
-0.00224554
-0.0021138
-0.0021324
-0.0023189
-0.00226817
-0.00223994
-0.00219124
-0.00211018
-0.00232467
-0.00230801
-0.00228568
-0.00224256
-0.00224603
-0.00232704
-0.00231893
-0.00230631
-0.00226624
-0.00222418
-0.00232306
-0.00232883
-0.00232573
-0.00231945
-0.00230439
-0.00200584
-0.00203714
-0.0021493
-0.00223189
-0.00235013
-0.00199767
-0.00202481
-0.0020892
-0.00216745
-0.00223739
-0.00198894
-0.00201213
-0.00204369
-0.00208931
-0.00215065
-0.00198835
-0.00200227
-0.00201224
-0.00202515
-0.00203844
-0.00198442
-0.00198937
-0.00199002
-0.00199836
-0.00200638
-0.0008851
-0.000891874
-0.000914099
-0.000887657
-0.000869865
-0.000879761
-0.000881005
-0.000911228
-0.000900831
-0.000886211
-0.000872878
-0.000876907
-0.00090064
-0.000913709
-0.000914914
-0.000875238
-0.000872574
-0.000876609
-0.000881845
-0.000892364
-0.00087362
-0.000876031
-0.000873368
-0.000881365
-0.000886915
-0.000493059
-0.000531864
-0.000589528
-0.00067202
-0.000745853
-0.000489725
-0.000521018
-0.000551542
-0.000616329
-0.000672928
-0.000485508
-0.000505527
-0.000518875
-0.000550637
-0.000590446
-0.000484376
-0.000498686
-0.000505476
-0.000520704
-0.000532473
-0.000484647
-0.00048494
-0.000486427
-0.000490629
-0.000494554
-0.00605258
-0.00419253
-0.00593901
-0.0022707
-0.00167271
-0.00223431
-0.00195248
-0.000691921
-0.00255919
-0.00136937
-2.71257e-05
-0.000454318
-0.0022354
-0.000117899
-0.00246361
-0.00282837
-0.00166047
-0.00502214
-0.0052291
-0.00398012
-0.00518096
-0.00392557
-0.00310379
-0.00369213
-0.00351362
-0.0037076
-0.00310035
-0.00364976
-0.00558565
-0.00354874
-0.00458301
-0.00323964
-0.00378032
-0.00254288
-0.0034417
-0.00399367
-0.00318001
-0.00329827
-0.00370796
-0.00371284
-0.00318116
-0.00361699
-0.00563505
-0.0045549
-0.00725361
-0.00543241
-0.00697517
-0.00360689
-0.00536561
-0.00524751
-0.0067068
-0.00665291
-0.00579328
-0.00672932
-0.00599423
-0.00591715
-0.00381241
-0.00490748
-0.00492263
-0.00594618
-0.00444677
-0.0046591
-0.00465165
-0.00443198
-0.00480142
-0.00420707
-0.00361523
-0.00461414
-0.00325779
-0.00496555
-0.00451848
-0.00489254
-0.00433525
-0.00378028
-0.00469383
-0.00339359
-0.00505537
-0.00720096
-0.00717019
-0.00676041
-0.00669567
-0.00671208
-0.00691709
-0.00689757
-0.00513519
-0.00330317
-0.00408387
-0.00303064
-0.00457596
-0.002464
-0.00398716
-0.00511167
-0.00328168
-0.00321682
-0.00395599
-0.00454631
-0.00242826
-0.00297349
-0.00883958
-0.0040338
-0.00703398
-0.00645722
-0.00643415
-0.00563603
-0.00701989
-0.00878069
-0.00399554
-0.00700436
-0.00644132
-0.0063769
-0.00559576
-0.00698515
-0.00470986
-0.00403468
-0.00416071
-0.00286263
-0.00467102
-0.00382318
-0.00388802
-0.00463414
-0.0046191
-0.00641897
-0.00632418
-0.00429101
-0.00502602
-0.00500965
-0.00487857
-0.00463057
-0.00515678
-0.00519104
-0.00503698
-0.00473565
-0.00476063
-0.0036928
-0.00316054
-0.00302079
-0.00331787
-0.00430218
-0.00333024
-0.00366011
-0.00372249
-0.00312005
-0.0033133
-0.00377135
-0.00449342
-0.00365929
-0.0034326
-0.00499057
-0.00588301
-0.00512891
-0.00478719
-0.00577275
-0.00490088
-0.00492874
-0.00504398
-0.00595059
-0.00523338
-0.00504854
-0.00586321
-0.00499534
-0.00498512
0.00435392
-0.0031512
-0.00185643
-0.00539196
-0.00440744
-0.00384777
-0.00537315
-0.0065513
-0.00590088
-0.00589837
-0.00633072
-0.00612023
-0.00648213
-0.00647772
-0.00623185
-0.00640473
-0.00667103
-0.00690625
-0.00639287
-0.00627672
-0.00655215
-0.00621932
-0.00639794
-0.00665485
-0.00688408
-0.00638389
-0.00625654
-0.00654243
-0.00580947
-0.00389891
-0.00429863
-0.00480768
-0.00453242
-0.00458
-0.0055277
-0.00660113
-0.0052401
-0.00523588
-0.00447488
-0.00684113
-0.00519996
-0.00519348
-0.00431761
-0.0027978
-0.00280611
-0.00379593
-0.00312111
-0.00403735
-0.00405171
-0.00379461
-0.0033481
-0.00345743
-0.00346155
-0.00366583
-0.00319509
-0.0034519
-0.00385085
-0.00334876
-0.0040439
-0.00380982
-0.00329925
-0.00371094
-0.00376649
-0.00393365
-0.00447854
-0.00345921
-0.00387644
-0.00333499
-0.0036048
-0.00382238
-0.00484544
-0.00363182
-0.00221946
-0.00509323
-0.00408165
-0.00441303
-0.00454386
-0.0048613
-0.00365391
-0.00220511
-0.0051282
-0.00409607
-0.00442173
-0.00457286
-0.00484584
-0.00484232
-0.00530611
-0.00343649
-0.00230535
-0.00294645
-0.00292856
-0.00190198
-0.00313634
-0.00322593
-0.00368873
-0.00483504
-0.00334403
-0.00396558
-0.00189277
-0.00310267
-0.00247837
-0.00396311
-0.00483137
-0.00332038
-0.00366116
-0.00472841
-0.00675081
-0.00522347
-0.00296021
-0.00429507
-0.00394014
-0.00345298
-0.00471087
-0.00673585
-0.00520812
-0.00292918
-0.00426662
-0.00392235
-0.00340672
-0.00557386
-0.00351247
-0.00346536
-0.00330941
-0.00283827
-0.00419501
-0.00412101
-0.00566748
-0.00475669
-0.00623981
-0.00445531
-0.00224315
-0.00282646
-0.00457468
-0.00566862
-0.00474985
-0.00624222
-0.00445607
-0.00224997
-0.00282132
-0.00459217
-0.00499933
-0.00499451
-0.00625909
-0.0030784
-0.00354909
-0.00435222
-0.00433733
-0.00312774
-0.00311647
-0.00322052
-0.00331809
-0.00341684
-0.00329995
-0.00334251
-0.0035342
-0.00401348
-0.00326769
-0.00380415
-0.00350997
-0.00361279
-0.00341346
-0.000516687
0.00204478
-0.000730322
-0.000743645
-0.000633242
0.000841313
0.0008282
-0.00441142
-0.00405455
-0.00460577
-0.00372132
-0.00370399
-0.00396561
-0.00358854
-0.00442287
-0.00406474
-0.00461753
-0.00374222
-0.00371367
-0.00398021
-0.00360741
0.000488634
-0.00376738
-0.00228489
-0.00224059
-0.00149692
-0.00303466
-0.00203998
0.000254645
-0.00383672
-0.00350461
-0.00202373
-0.00160945
-0.00310257
-0.00240685
0.000778831
-0.00123815
-0.0010775
-0.00132453
-0.00173595
-0.000670475
0.00127466
0.00082007
-0.00137924
-0.00113773
-0.00137324
-0.00175361
-0.000814535
0.00118416
-0.00264224
-0.00339942
-0.00366522
-0.00276615
-0.00367032
-0.00319664
-0.00331715
-0.00334661
-0.00268056
-0.00371301
-0.00272113
-0.00360454
-0.00310427
-0.00334124
0.000231262
-0.00291698
-0.00157781
-0.00210775
0.00269946
-0.00329687
-0.00210379
-0.00053058
0.000385659
0.000306366
0.00106138
-0.000945509
0.00041241
0.000519717
-0.00223424
2.59058e-05
-0.00201258
-0.00190799
-0.000200445
-0.00276316
-0.00151154
-0.00220416
3.62207e-05
-0.0019661
-0.00189873
-0.000257747
-0.00279696
-0.00148475
-0.0047927
-0.00388199
-0.00359034
-0.00484725
-0.00425261
-0.00354492
-0.00355497
-0.00478557
-0.00385988
-0.00357531
-0.00483695
-0.0042276
-0.00355424
-0.00354114
0.000505851
-0.00287104
-0.00212431
-0.00209045
-0.00175202
-0.00175704
-0.000464662
-0.00242752
-0.00256284
-0.00252073
-0.00320955
-0.00172227
-0.00314427
-0.00314091
-0.00284773
-0.0028406
-0.00284127
-0.00289243
-0.00314964
-0.00278213
-0.00269983
-0.0030055
-0.00297715
-0.00334714
-0.00305403
-0.00361198
-0.00328986
-0.00310025
0.000770907
-0.00112911
-0.0010361
0.00110145
-0.00163171
0.00106016
0.00103467
-0.00281386
-0.00325014
-0.00318968
-0.00359081
-0.00360523
-0.0032416
-0.0035826
-0.00427242
-0.00348754
-0.00377135
-0.0037165
-0.00369831
-0.00375291
-0.00356683
-0.0042679
-0.00348045
-0.00375841
-0.00371558
-0.00368954
-0.00374268
-0.00356134
0.000743977
-0.000655412
-0.00196348
-0.000447748
-0.00111028
-0.00100344
0.00145
0.000753606
-0.000519001
-0.00187086
-0.000581744
-0.00106607
-0.00105484
0.00143128
-0.000815999
-0.00186044
-0.00151423
-0.000850505
-0.00219514
-0.0018518
-0.00162467
-0.00102362
-0.00158335
-0.00199093
-0.000928982
-0.00227627
-0.00196104
-0.00185057
0.00204653
0.0021217
0.00133603
-0.00195666
-0.00151186
-0.00198808
-0.00193769
-0.00337097
-0.00245537
-0.0034859
-0.0040082
-0.00210915
-0.00350867
-0.00268711
-0.00333633
-0.00243041
-0.00293552
-0.00267289
-0.00212153
-0.00346778
-0.00399886
-0.00153226
-0.00248682
-0.0024561
-0.00371079
-0.00290091
-0.00231839
-0.00396026
-0.00140436
-0.00246619
-0.00240717
-0.00372941
-0.0028916
-0.00241752
-0.00394404
-7.75948e-05
-0.00184256
-0.00015517
-0.00286555
-0.00239834
-0.00177938
-0.00330361
6.7951e-06
-0.00181479
-6.85851e-05
-0.0029865
-0.00239222
-0.00182517
-0.00330659
0.00146497
-0.00221618
-0.00214702
-0.00312858
-0.00133045
-0.00165914
-0.00162227
)
;

boundaryField
{
    inlet
    {
        type            fixedValue;
        value           uniform 0;
    }
    wall
    {
        type            zeroGradient;
    }
    outlet
    {
        type            fixedValue;
        value           uniform 0;
    }
    procBoundary2to0
    {
        type            processor;
        value           nonuniform List<scalar> 
320
(
-0.000103933
-0.000103894
-0.000103894
-0.000103878
-0.000103881
-0.000203235
-0.000203225
-0.000203218
-0.000203212
-0.00020321
-0.000482688
-0.000482638
-0.000482623
-0.000482601
-0.000482598
-0.000630085
-0.000630037
-0.000630016
-0.000629992
-0.000629986
-0.000883664
-0.000883583
-0.000883552
-0.000883513
-0.000883504
-0.00105591
-0.00105581
-0.00105576
-0.00105571
-0.0010557
-0.001289
-0.00128885
-0.00128879
-0.00128872
-0.0012887
-0.00147673
-0.00147653
-0.00147644
-0.00147634
-0.00147632
-0.00169672
-0.00169643
-0.00169631
-0.00169618
-0.00169615
-0.00189267
-0.00189226
-0.00189211
-0.00189193
-0.00189189
-0.00210429
-0.00210373
-0.00210352
-0.00210327
-0.00210323
-0.0023031
-0.00230232
-0.00230207
-0.00230175
-0.00230171
-0.00250807
-0.002507
-0.00250672
-0.00250635
-0.00250633
-0.0027052
-0.00270384
-0.00270372
-0.0027034
-0.0027035
-0.00290146
-0.00289984
-0.0029003
-0.00290086
-0.00290148
-0.00308989
-0.00308873
-0.00309033
-0.00309239
-0.00309459
-0.0032647
-0.0032643
-0.0032672
-0.00326929
-0.00327039
-0.00341936
-0.00341742
-0.00341729
-0.00341524
-0.00341503
-0.00353063
-0.00352424
-0.00352024
-0.00351531
-0.00351277
-0.0036195
-0.00360473
-0.00359541
-0.00358556
-0.00358022
-0.0036574
-0.0036311
-0.00360979
-0.00359219
-0.00357631
-0.00369674
-0.00366639
-0.00364536
-0.00362681
-0.00361498
-0.00367939
-0.00363264
-0.00359195
-0.00357496
-0.0035467
-0.00372191
-0.0036772
-0.0036437
-0.00362678
-0.00358408
-0.00365181
-0.0036062
-0.00353629
-0.00352673
-0.00346
-0.00366858
-0.00363205
-0.00353808
-0.003639
-0.0033161
-0.00353428
-0.00351163
-0.00344789
-0.00333822
-0.00361502
-0.00353205
-0.00360066
-0.00300139
-0.0029393
-0.00157685
-0.00346132
-0.00348495
-0.00340015
-0.00248915
-0.00184578
-0.00362986
-0.00360088
-0.00376013
-0.00325622
-0.00727173
-0.00341271
-0.0033216
-0.00392485
-0.00278492
-0.0062917
-0.00348443
-0.00334549
-0.00331159
-0.00327972
-0.00139678
-0.00330269
-0.00331008
-0.00348436
-0.00330782
-0.00162408
-0.00343557
-0.00338733
-0.00355819
-0.00324894
-0.00446252
-0.00306094
-0.00290268
-0.00323185
-0.00277312
-0.00300202
-0.00308653
-0.00304516
-0.00319181
-0.00322599
-0.00347765
-0.0023006
-0.00222423
-0.00223755
-0.00210856
-0.00212024
-0.00200221
-0.00203374
-0.00214859
-0.00223033
-0.00235858
-0.000883808
-0.000890683
-0.000912047
-0.000886216
-0.000867531
-0.00049184
-0.000531491
-0.00058942
-0.000672182
-0.000746899
-0.00226305
-0.00180718
-0.00608464
-2.09889e-05
-0.000459679
-0.000710669
-0.00501041
-0.00522263
-0.00246363
-0.00351623
-0.00368556
-0.00391388
-0.00333899
-0.00389301
-0.00560044
-0.00547916
-0.00699349
-0.00563666
-0.00677035
-0.00607082
-0.005855
-0.00491659
-0.00466795
-0.00596575
-0.00367971
-0.00500168
-0.00481118
-0.00671842
-0.00692997
-0.00723518
-0.00301967
-0.00457393
-0.00513707
-0.0088866
-0.00703739
-0.00645212
-0.00462124
-0.00472655
-0.0051497
-0.00331086
-0.00428644
-0.00369331
-0.0051189
-0.00492088
-0.00587873
-0.00539303
-0.00440935
0.00435379
-0.00590352
-0.00648738
-0.00633337
-0.00691568
-0.00655709
-0.00640686
-0.00280215
-0.00403322
-0.00379054
-0.00384224
-0.00375819
-0.00333662
-0.00508272
-0.00453863
-0.00363379
-0.00231115
-0.0029459
-0.00484667
-0.00368608
-0.004837
-0.00189159
-0.00429665
-0.00345663
-0.00675525
-0.00566712
-0.00457032
-0.00224454
0.0020375
0.000837382
-0.000749374
-0.0022552
-0.00149198
0.000475939
-0.00109453
0.00125509
-0.00123433
-0.00264059
-0.00331133
-0.00365718
-0.00210875
0.00271128
0.00024621
0.000392437
0.00041542
0.00104487
-0.00190371
-0.00149769
3.20522e-05
-0.00484914
-0.00355561
-0.00388183
-0.00113578
0.00101511
0.00107387
-0.00044591
0.00145184
-0.000637283
-0.000826672
-0.00163838
-0.00186488
-0.00148631
-0.00198982
0.0020395
-0.00400151
-0.00213771
-0.0033504
-0.0029091
-0.00396604
-0.00248723
-6.59033e-05
-0.00330808
-0.00240505
)
;
    }
    procBoundary2to3
    {
        type            processor;
        value           nonuniform List<scalar> 
320
(
-0.000103877
-0.000103876
-0.000103888
-0.000103891
-0.000103928
-0.000203208
-0.000203208
-0.000203212
-0.000203218
-0.000203228
-0.000482592
-0.000482593
-0.00048261
-0.000482624
-0.000482673
-0.00062998
-0.000629982
-0.000630002
-0.00063002
-0.000630067
-0.000883496
-0.0008835
-0.000883532
-0.00088356
-0.000883638
-0.00105569
-0.0010557
-0.00105574
-0.00105578
-0.00105588
-0.00128869
-0.0012887
-0.00128876
-0.00128882
-0.00128897
-0.00147631
-0.00147632
-0.00147641
-0.00147648
-0.00147669
-0.00169613
-0.00169615
-0.00169627
-0.00169638
-0.00169666
-0.00189187
-0.00189189
-0.00189206
-0.0018922
-0.0018926
-0.00210319
-0.00210322
-0.00210345
-0.00210364
-0.00210421
-0.00230167
-0.00230169
-0.00230199
-0.00230222
-0.002303
-0.00250627
-0.00250626
-0.00250661
-0.00250687
-0.00250794
-0.00270343
-0.00270329
-0.00270359
-0.00270367
-0.00270504
-0.00290136
-0.0029007
-0.00290011
-0.00289962
-0.00290125
-0.00309444
-0.00309214
-0.00309004
-0.00308838
-0.00308958
-0.00327024
-0.00326901
-0.00326679
-0.00326377
-0.00326426
-0.00341483
-0.00341489
-0.00341684
-0.00341684
-0.00341881
-0.00351254
-0.00351486
-0.00351967
-0.00352348
-0.0035299
-0.00357985
-0.00358489
-0.00359453
-0.00360361
-0.00361839
-0.00357578
-0.00359121
-0.0036086
-0.00362959
-0.00365599
-0.00361417
-0.00362562
-0.00364372
-0.00366432
-0.00369468
-0.00354587
-0.00357347
-0.00358989
-0.00362989
-0.00367691
-0.00358297
-0.00362517
-0.00364083
-0.00367386
-0.00371827
-0.00345877
-0.00352193
-0.00353174
-0.00360132
-0.00364637
-0.00332348
-0.00364406
-0.0035364
-0.00362619
-0.00366063
-0.00361358
-0.0033295
-0.00344275
-0.0034983
-0.00352047
0.000198491
-0.00330826
-0.00298889
-0.00358114
-0.0035157
0.00435621
-0.00190267
-0.0033613
-0.00346099
-0.0034375
-0.00563622
-0.00511349
-0.00370644
-0.00357291
-0.00360904
-0.00603156
-0.00265135
-0.00382932
-0.00330413
-0.00339461
-0.000662174
-0.000132633
-0.00331383
-0.00331874
-0.00345874
-0.00246386
-0.00368175
-0.003473
-0.00329621
-0.00328306
-0.00557158
-0.00401262
-0.003549
-0.00338247
-0.00342353
-0.00297962
-0.0027792
-0.00322878
-0.00289279
-0.00305956
-0.00346666
-0.00326375
-0.0031808
-0.00304596
-0.00308161
-0.00213055
-0.0021115
-0.00224685
-0.00222459
-0.00230388
-0.00234555
-0.00223387
-0.00214814
-0.00203635
-0.00200386
-0.000871353
-0.000886764
-0.000915013
-0.000891834
-0.000886353
-0.00074506
-0.000672347
-0.0005896
-0.00053157
-0.000492914
-0.00605983
-0.00197497
-0.0015874
-0.00153784
-0.000203943
-0.000449003
-0.00163107
-0.00519864
-0.00523796
-0.00458064
-0.0034272
-0.00378118
-0.00330092
-0.00361373
-0.00373125
-0.00725304
-0.00539489
-0.00697169
-0.00666267
-0.00594104
-0.00577183
-0.00493795
-0.00473638
-0.00589353
-0.00379233
-0.00508175
-0.00490775
-0.00671853
-0.00691836
-0.00719029
-0.003221
-0.00287111
-0.00455327
-0.00881068
-0.00700349
-0.00637687
-0.00464089
-0.0047722
-0.00520895
-0.00337426
-0.003433
-0.00450791
-0.0052687
-0.00499635
-0.00596577
-0.00181546
-0.00538071
-0.00440677
-0.00590284
-0.00649098
-0.00633469
-0.0069036
-0.00656682
-0.00640323
-0.00280255
-0.00405709
-0.00380181
-0.00393935
-0.00387113
-0.00346731
-0.00514965
-0.00457646
-0.00363109
-0.00229988
-0.0029298
-0.0048448
-0.00249904
-0.00364741
-0.00483475
-0.0042712
-0.00340797
-0.00677687
-0.00567372
-0.00459782
-0.00223944
0.00208513
0.000850514
-0.000741373
-0.00361406
-0.00247846
-0.00167673
-0.00271215
-0.00336773
-0.0037053
-0.00113236
0.00115072
-0.00144579
-0.00164733
-0.00210143
0.00268666
0.000299854
0.000515379
0.00107772
-0.00190712
-0.00149236
3.83669e-05
-0.00483363
-0.00353703
-0.00385497
-0.00103082
0.00106582
0.0011414
-0.000700154
0.00140734
-0.00056093
-0.00116904
-0.00199176
-0.00205803
-0.00153506
-0.00193578
0.00212648
-0.00290604
-0.00399025
-0.00208006
-0.00287882
-0.00393508
-0.00246323
-3.01152e-06
-0.00330946
-0.00239109
)
;
    }
}


// ************************************************************************* //
