/*--------------------------------*- C++ -*----------------------------------*\
| =========                 |                                                 |
| \\      /  F ield         | OpenFOAM: The Open Source CFD Toolbox           |
|  \\    /   O peration     | Version:  5.x                                   |
|   \\  /    A nd           | Web:      www.OpenFOAM.org                      |
|    \\/     M anipulation  |                                                 |
\*---------------------------------------------------------------------------*/
FoamFile
{
    version     2.0;
    format      ascii;
    class       volScalarField;
    location    "0.099";
    object      interFace;
}
// * * * * * * * * * * * * * * * * * * * * * * * * * * * * * * * * * * * * * //

dimensions      [0 0 0 0 0 0 0];

internalField   nonuniform List<scalar> 
1588
(
0
0
0
0
0
0
0
0
0
0
0
0
0
0
0
0
0
0
0
0
0
0
0
0
0
0
0
0
0
0
0
0
0
0
0
0
0
0
0
0
0
0
0
0
0
0
0
0
0
0
0
0
0
0
0
0
0
0
0
0
0
0
0
0
0
0
0
0
0
0
0
0
0
0
0
0
0
0
0
0
0
0
0
0
0
0
0
0
0
0
0
0
0
0
0
0
0
0
0
0
0
0
0
0
0
0
0
0
0
0
0
0
0
0
0
0
0
0
0
0
0
0
0
0
0
0
0
0
0
0
0
0
0
0
0
0
0
0
0
0
0
0
0
0
0
0
0
0
0
0
0
0
0
0
0
0
0
0
0
0
0
0
0
0
0
0
0
0
0
0
0
0
0
0
0
0
0
0
0
0
0
0
0
0
0
0
0
0
0
0
0
0
0
0
0
0
0
0
0
0
0
0
0
0
0
0
0
0
0
0
0
0
0
0
0
0
0
0
0
0
0
0
0
0
0
0
0
0
0
0
0
0
0
0
0
0
0
0
0
0
0
0
0
0
0
0
0
0
0
0
0
0
0
0
0
0
0
0
0
0
0
0
0
0
0
0
0
0
0
0
0
0
0
0
0
0
0
0
0
0
0
0
0
0
0
0
0
0
0
0
0
0
0
0
0
0
0
0
0
0
0
0
0
0
0
0
0
0
0
0
0
0
0
0
0
0
0
0
0
0
0
0
0
0
0
0
0
0
0
0
0
0
0
0
0
0
0
0
0
0
0
0
0
0
0
0
0
0
0
0
0
0
0
0
0
0
0
0
0
0
0
0
0
0
0
0
0
0
0
0
0
0
0
0
0
0
0
0
0
0
0
0
0
0
0
0
0
0
0
0
0
0
0
0
0
0
0
0
0
0
0
0
0
0
0
0
0
0
0
0
0
0
0
0
0
0
0
0
0
0
0
0
0
0
0
0
0
0
0
0
0
0
0
0
0
0
0
0
0
0
0
0
0
0
0
0
0
0
0
0
0
0
0
0
0
0
0
0
0
0
0
0
0
0
0
0
0
0
0
0
0
0
0
0
0
0
0
0
0
0
0
0
0
0
0
0
0
0
0
0
0
0
0
0
0
0
0
0
0
0
0
0
0
0
0
0
0
0
0
0
0
0
0
0
0
0
0
0
0
0
0
0
0
0
0
0
0
0
0
0
0
0
0
0
0
0
0
0
0
0
0
0
0
0
0
0
0
0
0
0
0
0
0
0
0
0
0
0
0
0
0
0
0
0
0
0
0
0
0
0
0
0
0
0
0
0
0
0
0
0
0
0
0
0
0
0
0
0
0
0
0
0
0
0
0
0
0
0
0
0
0
0
0
0
0.931413
0
0
0
0
0
0
0
0
0
0
0
0
0
0
0
0
0
0
0
0
0
0
0
0
0.323244
0
0
0
0
0.771874
0
0
0
0
0
0
0
0
0
0
0
0
0
0
0
0
0
0
0
0.432203
0
0
0
0
0.978599
0
0
0
0
0
0
0
0
0
0
0
0
0
0
0
0
0
0
0
0.991884
0
0
0
0
0
0
0
0
0
0
0
0
0
0
0
0
0
0
0
0
0
0
0
0
0.404181
0
0
0
0
0.838989
0
0
0
0
0
0
0
0
0
0
0
0
0
0
0
0
0
0
0
0.340826
0
0
0
0
0.865275
0
0
0
0
0
0
0
0
0
0
0
0
0
0
0
0
0
0
0
0
0
0
0
0
0
0
0
0
0
0
0
0
0
0
0
0
0
0
0
0
0
0
0
0
0
0
0
0
0
0
0
0
0
0
0
0
0
0
0
0
0
0
0
0
0
0
0
0
0
0
0
0
0
0
0
0
0
0
0
0
0
0
0
0
0
0
0
0
0
0
0
0
0
0
0
0
0
0
0
0
0
0
0
0
0
0
0
0
0
0
0
0
0
0
0
0
0
0
0
0
0
0
0
0
0
0
0
0
0
0
0
0
0
0
0
0
0
0
0
0
0
0
0
0
0
0
0
0
0
0
0
0
0
0
0
0
0
0
0
0
0
0
0
0
0
0
0
0
0
0
0
0
0
0
0
0
0
0
0
0
0
0
0
0
0
0
0
0
0
0
0
0
0
0
0
0
0
0
0
0
0
0
0
0
0
0
0
0
0
0
0
0
0
0
0
0
0
0
0
0
0
0
0
0
0
0
0
0
0
0
0
0
0
0
0
0
0
0
0
0
0
0
0
0
0
0
0
0
0
0
0
0
0
0
0
0
0
0
0
0
0
0
0
0
0
0.891504
0
0
0
0
0
0
0.0719688
0.609825
0.340968
0.763925
0.495068
0
0.764067
0.135324
0.67318
0.404323
0.289434
0.0205768
0.558433
0.289576
0.812646
0
0.991979
0.532071
0.263214
0.80107
0.532213
0.163603
0.701445
0.432845
0.984538
0.715938
0.988046
0.98518
0.760651
0.760865
0.805578
0.576646
0.487006
0.531719
0.531933
0.611377
0
0.978171
0
0
0
0
0.612233
0
0
0
0
0
0
0.850184
0
0.895111
0.666179
0.755606
0.800533
0.621252
0.850612
0
0.895325
0.666393
0.756248
0.800961
0.62168
0.539867
0.539914
0.584712
0.398859
0.309214
0.354013
0.35406
0.520086
0
0.86518
0
0.967914
0
0
0.520275
0
0
0
0.968103
0
0
0.629486
0.808771
0.674331
0.488478
0.578071
0.622917
0.443632
0.62958
0.808866
0.674379
0.488525
0.578214
0.623012
0.443727
0.0546436
0.592486
0.323886
0.337732
0.0691324
0.606974
0.338374
0.392534
0.208316
0.20853
0.302894
0.253243
0.347607
0.347821
0.482067
0.297849
0.47713
0.571494
0.342776
0.616421
0.43714
0.898437
0.898485
0.763998
0.578144
0.847071
0.712584
0.712631
0.482281
0.298277
0.477558
0.572136
0.34299
0.616849
0.437568
0.571815
0.566877
0.567091
0.840736
0.432523
0.706168
0.706382
0.257826
0.116767
0.116815
0.168181
0.161613
0.21298
0.213027
0.347445
0.206386
0.385672
0.437038
0.251232
0.481884
0.302599
0.347492
0.206481
0.385766
0.43718
0.251279
0.481979
0.302694
0.113845
0.114059
0.158772
0.109122
0.0194822
0.064195
0.064409
0.502418
0
0.77166
0
0.516907
0
0.786149
0.503274
0
0
0.786363
0.517763
0
0
0.437111
0.475338
0.475385
0.706037
0.340898
0.571551
0.571598
0.656304
0.750669
0.795596
0
0.835372
0.880299
0.974664
0.656946
0.751525
0.796237
0
0.836442
0.881155
0.975734
0.203379
0.382659
0.248305
0.198655
0.288082
0.333009
0.153728
0.203806
0.383087
0.248519
0.198869
0.288724
0.333437
0.154156
0.472407
0.472621
0.338053
0.288403
0.557324
0.422756
0.42297
0.0653753
0.0654226
0.110221
0.10365
0.0140053
0.0588038
0.0588512
0.583441
0
0.838895
0
0.468694
0
0.737693
0.583631
0
0
0.73774
0.468883
0
0
0.154994
0.33428
0.19984
0.193269
0.282862
0.327708
0.148423
0.155089
0.334374
0.199887
0.193316
0.283004
0.327803
0.148518
0.564932
0.616298
0.661144
0.744167
0.789012
0.885225
0.840379
0.565074
0.616488
0.661286
0.744403
0.789202
0.885414
0.840616
0.662813
0.93975
0.932055
0.408055
0.139455
0.677297
0.408697
0.104292
0.0993564
0.0995704
0.0146526
0.144283
0.0593655
0.0595794
0.423946
0.423993
0.289506
0.282935
0.551861
0.417375
0.417422
0.193826
0.18889
0.36817
0.283253
0.233817
0.328179
0.148899
0.19404
0.189318
0.368598
0.283895
0.234031
0.328607
0.149327
0.561834
0.740902
0.785829
0.467257
0.512184
0.736178
0.691252
0.562476
0.741972
0.786685
0.468113
0.512825
0.737034
0.692322
0.283573
0.457918
0.458132
0.552495
0.323564
0.417927
0.418141
0.141899
0.180122
0.18017
0.0522544
0.224968
0.0970529
0.0971003
0.231518
0.269741
0.449027
0.321111
0.314587
0.365957
0.186672
0.231565
0.269836
0.449122
0.321254
0.314635
0.366052
0.186767
0.51354
0.692775
0.73762
0.462122
0.506968
0.731049
0.686203
0.513682
0.693011
0.73781
0.462312
0.50711
0.731238
0.68644
0
0
0
0
0
0
0
0.651581
0
0.875576
0.736499
0.601931
0.825926
0.960494
0.321184
0.538693
0.538741
0.590111
0.404254
0.455624
0.455671
0.184168
0.184382
0.229095
0.358727
0.269087
0.3138
0.314014
0
0
0
0
0.58723
0
0.949193
0
0
0
0.949621
0.588086
0
0
0.547345
0.462427
0.507354
0.731349
0.726413
0.77134
0.686422
0.547987
0.463283
0.507996
0.732205
0.727483
0.772196
0.687492
0.652009
0
0.876218
0.736713
0.602359
0.826568
0.960922
0.273701
0.452982
0.318628
0.44826
0.537687
0.582614
0.403333
0.274129
0.45341
0.318842
0.448474
0.538329
0.583042
0.403761
0
0
0
0
0
0
0
0.603206
0.961774
0.827287
0.731122
0.596635
0.820715
0.955202
0.603301
0.961868
0.827429
0.731169
0.596729
0.820857
0.955297
0.542729
0.542943
0.408375
0.538007
0.806929
0.672361
0.672575
0.308013
0.30806
0.352858
0.525569
0.435925
0.480723
0.480771
0
0
0
0
0.915342
0
0
0
0
0
0
0.915532
0
0
0.397632
0.576917
0.442477
0.615188
0.704782
0.749628
0.570342
0.397726
0.577012
0.442525
0.615236
0.704924
0.749722
0.570437
0.628287
0.500371
0.545217
0.807522
0.852368
0.769298
0.724452
0.628429
0.500561
0.545359
0.807759
0.852557
0.769487
0.724689
0.637092
0.731669
0.597101
0.821096
0.995655
0.861087
0.955664
0.63752
0.731883
0.597529
0.821738
0.996083
0.861729
0.956092
0.666583
0.666631
0.532144
0.704855
0.973781
0.839294
0.839341
0
0
0
0
0
0
0
0.533179
0.707526
0.70774
0.44354
0.752452
0.488252
0.488466
0.622713
0.797059
0.97634
0.71214
0.841986
0.757067
0.577786
0.622927
0.797487
0.976768
0.712782
0.8422
0.757495
0.578214
0.632156
0.811225
0.856151
0.716862
0.761788
0.985783
0.940857
0.632798
0.812294
0.857007
0.717718
0.76243
0.986639
0.941927
)
;

boundaryField
{
    inlet
    {
        type            calculated;
        value           uniform 0;
    }
    wall
    {
        type            calculated;
        value           uniform 0;
    }
    outlet
    {
        type            calculated;
        value           uniform 0;
    }
    procBoundary2to0
    {
        type            processor;
        value           uniform 0;
    }
    procBoundary2to3
    {
        type            processor;
        value           uniform 0;
    }
}


// ************************************************************************* //
