/*--------------------------------*- C++ -*----------------------------------*\
| =========                 |                                                 |
| \\      /  F ield         | OpenFOAM: The Open Source CFD Toolbox           |
|  \\    /   O peration     | Version:  5.x                                   |
|   \\  /    A nd           | Web:      www.OpenFOAM.org                      |
|    \\/     M anipulation  |                                                 |
\*---------------------------------------------------------------------------*/
FoamFile
{
    version     2.0;
    format      ascii;
    class       surfaceScalarField;
    location    "0.099";
    object      phi;
}
// * * * * * * * * * * * * * * * * * * * * * * * * * * * * * * * * * * * * * //

dimensions      [0 3 -1 0 0 0 0];

internalField   nonuniform List<scalar> 
4402
(
-1.36569e-06
-1.35408e-07
7.59171e-08
-1.25576e-06
-2.03682e-07
-3.4135e-07
-1.10897e-06
-2.24989e-07
-3.83289e-07
-8.57027e-07
-2.93222e-07
-4.93763e-07
-3.21392e-07
-4.48697e-07
-1.39515e-06
8.58342e-08
8.59569e-08
-1.28541e-06
2.16299e-08
-3.35011e-07
-1.14064e-06
4.65581e-09
-3.74386e-07
-8.85931e-07
-6.4287e-08
-4.83618e-07
-9.14512e-08
-4.32817e-07
-1.44685e-06
2.71148e-07
1.36046e-07
-1.34235e-06
2.15248e-07
-2.9808e-07
-1.19841e-06
1.98144e-07
-3.37393e-07
-9.48159e-07
1.41026e-07
-4.55527e-07
1.16074e-07
-4.06874e-07
-1.464e-06
4.09361e-07
1.87139e-07
-1.36029e-06
3.61698e-07
-2.50121e-07
-1.21929e-06
3.4567e-07
-2.88496e-07
-9.6729e-07
2.95048e-07
-4.05976e-07
2.71482e-07
-3.53783e-07
-1.51084e-06
4.04159e-07
-1.4139e-06
-4.52059e-08
-1.27845e-06
-8.76711e-08
-1.03048e-06
-2.15411e-07
-1.68852e-07
-3.04024e-08
-2.51788e-07
4.82438e-08
-1.74188e-07
-2.49052e-07
-2.37657e-07
-3.26501e-07
-2.5762e-07
-2.69248e-07
-3.84795e-07
-2.74531e-07
-4.71344e-07
-2.93626e-07
-4.97174e-07
-3.11906e-08
-2.04858e-07
6.07964e-08
-1.81411e-07
-2.04962e-07
-2.2882e-07
-3.40285e-07
-2.12317e-07
-2.60754e-07
-4.03335e-07
-2.28036e-07
-4.67003e-07
-2.44584e-07
-4.92856e-07
-3.59645e-08
-2.12406e-07
1.67515e-07
-1.9329e-07
-2.13903e-07
-1.31756e-07
-3.58105e-07
-2.19522e-07
-1.65314e-07
-4.25346e-07
-2.33584e-07
-3.82671e-07
-2.47067e-07
-4.13181e-07
-3.8137e-08
-1.89625e-07
1.89493e-07
-1.99322e-07
-1.91321e-07
-1.11464e-07
-3.67686e-07
-1.94295e-07
-1.453e-07
-4.37652e-07
-2.04515e-07
-3.65008e-07
-2.12988e-07
-3.95473e-07
-4.25868e-08
3.72253e-07
-2.0855e-07
6.49008e-08
-3.81058e-07
2.94664e-08
-4.54134e-07
-1.9867e-07
-2.32832e-07
-1.12032e-06
-1.23343e-07
4.08678e-08
-1.09249e-06
-1.88578e-07
-4.89832e-07
-1.03126e-06
-2.09137e-07
-5.56804e-07
-8.35257e-07
-2.77106e-07
-8.99321e-07
-3.06786e-07
-9.3514e-07
-1.14447e-06
8.6572e-08
6.58133e-08
-1.12011e-06
3.04327e-08
-4.7211e-07
-1.06156e-06
1.08304e-08
-5.39195e-07
-8.65566e-07
-5.31336e-08
-8.86875e-07
-8.06187e-08
-9.22182e-07
-1.19305e-06
2.2418e-07
2.58218e-07
-1.17407e-06
1.74613e-07
-2.9485e-07
-1.12151e-06
1.58314e-07
-3.65286e-07
-9.30312e-07
1.03693e-07
-7.30609e-07
7.93615e-08
-7.72417e-07
-1.20749e-06
3.36294e-07
3.08259e-07
-1.19127e-06
2.95145e-07
-2.48153e-07
-1.14086e-06
2.81057e-07
-3.18386e-07
-9.50168e-07
2.34459e-07
-6.86392e-07
2.12633e-07
-7.27797e-07
-1.24832e-06
6.50586e-07
-1.23999e-06
8.22337e-08
-1.19599e-06
8.44092e-09
-1.01033e-06
-3.74285e-07
-4.22348e-07
-7.25145e-07
-1.37006e-07
-1.29673e-08
-7.50514e-07
-1.66778e-07
-6.38928e-07
-7.48573e-07
-1.78806e-07
-7.32744e-07
-6.37698e-07
-2.19849e-07
-1.18523e-06
-2.41104e-07
-1.25987e-06
-7.34537e-07
3.78375e-08
1.31785e-08
-7.64802e-07
1.03982e-08
-6.18944e-07
-7.66173e-07
-3.75031e-09
-7.12789e-07
-6.58272e-07
-4.13845e-08
-1.17312e-06
-6.16306e-08
-1.24921e-06
-7.60738e-07
1.36816e-07
2.87905e-07
-7.96419e-07
1.11697e-07
-3.60399e-07
-8.07016e-07
1.0187e-07
-4.6023e-07
-7.04507e-07
6.76557e-08
-9.42065e-07
4.98929e-08
-1.02688e-06
-7.66503e-07
2.29993e-07
3.44181e-07
-8.05503e-07
2.09368e-07
-3.06757e-07
-8.17672e-07
2.01819e-07
-4.06097e-07
-7.17455e-07
1.72937e-07
-8.91815e-07
1.58261e-07
-9.77613e-07
-7.88019e-07
7.93121e-07
-8.34009e-07
1.32555e-07
-8.52786e-07
3.08172e-08
-7.58966e-07
-4.71119e-07
-5.63829e-07
-1.41911e-06
-3.73766e-08
-8.67519e-08
-1.38007e-06
-1.13686e-07
-1.00503e-06
-1.29511e-06
-1.36569e-07
-1.14694e-06
-1.01791e-06
-2.20179e-07
-1.79961e-06
-2.56453e-07
-1.9037e-06
-1.44612e-06
2.70014e-07
-4.57441e-08
-1.40983e-06
2.02815e-07
-9.71683e-07
-1.32798e-06
1.82788e-07
-1.11392e-06
-1.05448e-06
1.09004e-07
-1.7757e-06
7.7069e-08
-1.88103e-06
-1.50331e-06
4.47004e-07
3.74429e-07
-1.47845e-06
3.89778e-07
-5.72168e-07
-1.40841e-06
3.72288e-07
-7.19704e-07
-1.13809e-06
3.05631e-07
-1.40895e-06
2.76005e-07
-1.52604e-06
-1.51882e-06
5.91279e-07
4.65638e-07
-1.49628e-06
5.44577e-07
-4.84033e-07
-1.4283e-06
5.2945e-07
-6.31185e-07
-1.16176e-06
4.72738e-07
-1.32542e-06
4.46688e-07
-1.44303e-06
-1.56542e-06
1.13863e-06
-1.55367e-06
1.76811e-07
-1.49577e-06
2.69838e-08
-1.23864e-06
-6.88417e-07
-8.14901e-07
-1.57851e-06
5.13213e-08
-2.27567e-07
-1.52055e-06
-2.05089e-08
-1.46371e-06
-1.40135e-06
-3.77721e-08
-1.66989e-06
-1.06365e-06
-1.1139e-07
-2.55108e-06
-1.41935e-07
-2.70612e-06
-1.59159e-06
4.27163e-07
-1.66134e-07
-1.54076e-06
3.72687e-07
-1.41569e-06
-1.42804e-06
3.58602e-07
-1.62299e-06
-1.09283e-06
2.90731e-07
-2.51299e-06
2.62478e-07
-2.67009e-06
-1.64084e-06
6.36639e-07
4.32654e-07
-1.59967e-06
5.93371e-07
-8.33995e-07
-1.49856e-06
5.82114e-07
-1.04431e-06
-1.17495e-06
5.2433e-07
-1.96615e-06
4.99344e-07
-2.13396e-06
-1.64895e-06
8.07939e-07
5.62118e-07
-1.61056e-06
7.7483e-07
-7.03848e-07
-1.51283e-06
7.66025e-07
-9.12813e-07
-1.19269e-06
7.17559e-07
-1.83879e-06
6.96276e-07
-2.00709e-06
-1.68279e-06
1.51216e-06
-1.6554e-06
2.41102e-07
-1.57026e-06
3.39142e-08
-1.2637e-06
-9.13559e-07
-1.08925e-06
-2.30894e-06
1.98735e-07
-4.3461e-07
-2.21019e-06
1.00273e-07
-2.17214e-06
-2.01966e-06
6.99239e-08
-2.47413e-06
-1.49168e-06
-6.83214e-08
-3.69349e-06
-1.14306e-07
-3.91165e-06
-2.34727e-06
7.52305e-07
-3.34687e-07
-2.24632e-06
6.65259e-07
-2.08166e-06
-2.05354e-06
6.40875e-07
-2.38676e-06
-1.53581e-06
5.27859e-07
-3.62696e-06
4.83561e-07
-3.84807e-06
-2.42145e-06
1.05318e-06
5.34689e-07
-2.34038e-06
9.82404e-07
-1.23223e-06
-2.16926e-06
9.62827e-07
-1.53741e-06
-1.66397e-06
8.68092e-07
-2.81174e-06
8.29091e-07
-3.04407e-06
-2.43813e-06
1.28496e-06
7.34533e-07
-2.36043e-06
1.22885e-06
-1.02799e-06
-2.19396e-06
1.21252e-06
-1.329e-06
-1.69305e-06
1.13413e-06
-2.60578e-06
1.10003e-06
-2.8372e-06
-2.49406e-06
2.0973e-06
-2.4333e-06
3.33455e-07
-2.28634e-06
3.88697e-08
-1.80503e-06
-1.26167e-06
-1.49788e-06
-3.0202e-06
4.24777e-07
-7.58905e-07
-2.8559e-06
3.27485e-07
-3.18577e-06
-2.54549e-06
3.08059e-07
-3.64621e-06
-1.79986e-06
1.99663e-07
-5.33601e-06
1.57707e-07
-5.65881e-06
-3.04723e-06
1.19033e-06
-6.05463e-07
-2.8904e-06
1.12151e-06
-3.03257e-06
-2.59006e-06
1.1114e-06
-3.49053e-06
-1.83865e-06
1.01369e-06
-5.19254e-06
9.78182e-07
-5.5213e-06
-3.1085e-06
1.59594e-06
6.35803e-07
-2.96749e-06
1.55053e-06
-1.80228e-06
-2.68861e-06
1.54663e-06
-2.25159e-06
-1.96602e-06
1.46753e-06
-3.98826e-06
1.43892e-06
-4.32273e-06
-3.11055e-06
1.89715e-06
9.36576e-07
-2.97341e-06
1.86658e-06
-1.48121e-06
-2.70087e-06
1.86573e-06
-1.92067e-06
-1.98824e-06
1.80058e-06
-3.65151e-06
1.77725e-06
-3.98176e-06
-3.14084e-06
2.86988e-06
-3.02022e-06
4.73722e-07
-2.77325e-06
5.6809e-08
-2.09344e-06
-1.6892e-06
-2.0157e-06
-4.18282e-06
7.34845e-07
-1.231e-06
-3.94825e-06
5.84258e-07
-4.62123e-06
-3.49625e-06
5.51305e-07
-5.31477e-06
-2.43032e-06
3.72712e-07
-7.65669e-06
3.21143e-07
-8.12567e-06
-4.22652e-06
1.80509e-06
-9.88005e-07
-4.00063e-06
1.6949e-06
-4.36914e-06
-3.56163e-06
1.67445e-06
-5.05274e-06
-2.50217e-06
1.51896e-06
-7.39837e-06
1.46577e-06
-7.86915e-06
-4.32266e-06
2.36952e-06
7.81115e-07
-4.12201e-06
2.294e-06
-2.60206e-06
-3.71724e-06
2.28348e-06
-3.26544e-06
-2.69145e-06
2.15772e-06
-5.65288e-06
2.11373e-06
-6.12669e-06
-4.33152e-06
2.77076e-06
1.24261e-06
-4.13495e-06
2.71644e-06
-2.10023e-06
-3.73949e-06
2.70981e-06
-2.74248e-06
-2.7263e-06
2.60477e-06
-5.11177e-06
2.56858e-06
-5.57707e-06
-4.38501e-06
3.98103e-06
-4.21334e-06
6.81825e-07
-3.8561e-06
8.2623e-08
-2.88877e-06
-2.29694e-06
-2.74735e-06
-5.8127e-06
1.24697e-06
-1.91872e-06
-5.47898e-06
1.13015e-06
-6.7269e-06
-4.77053e-06
1.12019e-06
-7.83509e-06
-3.16185e-06
9.55556e-07
-1.11477e-05
9.02963e-07
-1.18926e-05
-5.82673e-06
2.77469e-06
-1.53381e-06
-5.50218e-06
2.73218e-06
-6.29572e-06
-4.81161e-06
2.7525e-06
-7.37565e-06
-3.22546e-06
2.6396e-06
-1.06686e-05
2.60887e-06
-1.14039e-05
-5.87326e-06
3.56263e-06
9.76169e-07
-5.56872e-06
3.57285e-06
-3.74728e-06
-4.92222e-06
3.61055e-06
-4.77002e-06
-3.39704e-06
3.53764e-06
-8.07609e-06
3.52312e-06
-8.78958e-06
-5.83535e-06
4.08472e-06
1.68753e-06
-5.53596e-06
4.11188e-06
-2.93867e-06
-4.90722e-06
4.15349e-06
-3.91416e-06
-3.41479e-06
4.0987e-06
-7.16523e-06
4.09152e-06
-7.85078e-06
-5.80683e-06
5.54927e-06
-5.52655e-06
1.03794e-06
-4.9537e-06
1.63223e-07
-3.54361e-06
-3.05727e-06
-3.69414e-06
-7.95548e-06
1.90737e-06
-2.91096e-06
-7.50171e-06
1.71748e-06
-9.64855e-06
-6.48229e-06
1.70067e-06
-1.13769e-05
-4.26865e-06
1.4401e-06
-1.59722e-05
1.3654e-06
-1.71121e-05
-7.98247e-06
4.01955e-06
-2.30273e-06
-7.53803e-06
3.92553e-06
-8.94823e-06
-6.54183e-06
3.94562e-06
-1.06168e-05
-4.35299e-06
3.74233e-06
-1.51596e-05
3.69106e-06
-1.62588e-05
-8.07787e-06
5.11788e-06
1.23663e-06
-7.66792e-06
5.10002e-06
-5.33175e-06
-6.74543e-06
5.14598e-06
-6.89287e-06
-4.6288e-06
5.00534e-06
-1.14557e-05
4.97734e-06
-1.25075e-05
-8.03333e-06
5.80886e-06
2.33497e-06
-7.6261e-06
5.81258e-06
-4.05848e-06
-6.72997e-06
5.86266e-06
-5.52697e-06
-4.65426e-06
5.74622e-06
-9.98184e-06
5.73189e-06
-1.09812e-05
-8.02752e-06
7.76406e-06
-7.64998e-06
1.55714e-06
-6.83822e-06
2.70296e-07
-4.87367e-06
-4.12222e-06
-5.02382e-06
-1.15246e-05
3.04782e-06
-4.25882e-06
-1.09984e-05
3.00127e-06
-1.39496e-05
-9.42715e-06
3.07142e-06
-1.68678e-05
-5.98579e-06
2.91385e-06
-2.35531e-05
2.88628e-06
-2.55033e-05
-1.14414e-05
6.11085e-06
-3.27402e-06
-1.09191e-05
6.26156e-06
-1.27309e-05
-9.3965e-06
6.42462e-06
-1.54927e-05
-6.03027e-06
6.41912e-06
-2.20311e-05
6.47007e-06
-2.39066e-05
-1.1359e-05
7.66539e-06
1.71869e-06
-1.08392e-05
7.93851e-06
-7.52853e-06
-9.3998e-06
8.15474e-06
-1.00624e-05
-6.19343e-06
8.22809e-06
-1.64711e-05
8.32453e-06
-1.81937e-05
-1.11546e-05
8.52352e-06
3.44732e-06
-1.06324e-05
8.78799e-06
-5.43027e-06
-9.24416e-06
8.99925e-06
-7.75976e-06
-6.1248e-06
9.07042e-06
-1.39436e-05
9.15922e-06
-1.55071e-05
-1.08877e-05
1.10459e-05
-1.03592e-05
2.54864e-06
-9.10069e-06
5.99996e-07
-6.19289e-06
-5.39038e-06
-6.72168e-06
-1.57175e-05
4.47735e-06
-6.16509e-06
-1.50519e-05
4.34441e-06
-1.98541e-05
-1.27568e-05
4.44845e-06
-2.46063e-05
-8.11684e-06
4.13769e-06
-3.38866e-05
4.1355e-06
-3.71025e-05
-1.56112e-05
8.70289e-06
-4.5989e-06
-1.49443e-05
8.80448e-06
-1.7858e-05
-1.26928e-05
9.04226e-06
-2.2338e-05
-8.11694e-06
8.84868e-06
-3.1318e-05
8.91293e-06
-3.42576e-05
-1.55949e-05
1.08758e-05
2.4014e-06
-1.49585e-05
1.11615e-05
-1.0522e-05
-1.28988e-05
1.14741e-05
-1.45541e-05
-8.46518e-06
1.14432e-05
-2.34994e-05
1.15496e-05
-2.61536e-05
-1.53094e-05
1.19684e-05
5.107e-06
-1.46554e-05
1.22304e-05
-7.15328e-06
-1.2676e-05
1.2534e-05
-1.07993e-05
-8.37952e-06
1.25086e-05
-1.93056e-05
1.26392e-05
-2.17263e-05
-1.50408e-05
1.57109e-05
-1.43779e-05
4.0362e-06
-1.26038e-05
1.08538e-06
-8.55918e-06
-7.13446e-06
-9.0867e-06
-2.39563e-05
7.13912e-06
-8.3693e-06
-2.38112e-05
7.5568e-06
-2.84411e-05
-2.04242e-05
8.10495e-06
-3.71002e-05
-1.28061e-05
8.38596e-06
-5.14949e-05
8.83174e-06
-5.80263e-05
-2.34148e-05
1.33866e-05
-5.783e-06
-2.31716e-05
1.43557e-05
-2.49002e-05
-1.99304e-05
1.51757e-05
-3.26501e-05
-1.25594e-05
1.58913e-05
-4.61944e-05
1.651e-05
-5.17797e-05
-2.28005e-05
1.6486e-05
4.06736e-06
-2.2391e-05
1.77355e-05
-1.43113e-05
-1.92296e-05
1.87257e-05
-2.12656e-05
-1.23276e-05
1.94956e-05
-3.40058e-05
2.01864e-05
-3.88156e-05
-2.1934e-05
1.76392e-05
8.40396e-06
-2.14358e-05
1.86909e-05
-8.60699e-06
-1.84485e-05
1.95778e-05
-1.46388e-05
-1.18082e-05
2.01766e-05
-2.6627e-05
2.07324e-05
-3.06483e-05
-2.08781e-05
2.31239e-05
-2.01874e-05
7.17769e-06
-1.7506e-05
2.56037e-06
-1.1457e-05
-8.7322e-06
-1.18065e-05
-3.33384e-05
1.05532e-05
-1.08476e-05
-3.47176e-05
1.16615e-05
-3.96816e-05
-3.16591e-05
1.3261e-05
-5.45848e-05
-2.14398e-05
1.35932e-05
-7.74892e-05
1.51236e-05
-9.33501e-05
-3.24501e-05
1.92808e-05
-6.69524e-06
-3.31047e-05
2.08728e-05
-3.34569e-05
-2.94692e-05
2.34671e-05
-4.64918e-05
-1.91448e-05
2.45189e-05
-6.74446e-05
2.5849e-05
-7.80784e-05
-3.16834e-05
2.35103e-05
7.0836e-06
-3.19644e-05
2.533e-05
-1.84876e-05
-2.77432e-05
2.73987e-05
-2.94186e-05
-1.78012e-05
2.86925e-05
-4.81214e-05
3.02535e-05
-5.6683e-05
-3.02077e-05
2.46195e-05
1.38482e-05
-3.00913e-05
2.59671e-05
-9.36051e-06
-2.59791e-05
2.75631e-05
-1.89155e-05
-1.67585e-05
2.82542e-05
-3.54093e-05
2.93169e-05
-4.19471e-05
-2.88406e-05
3.39575e-05
-2.83161e-05
1.24069e-05
-2.46368e-05
5.38994e-06
-1.60972e-05
-1.01618e-05
-1.48295e-05
-5.54217e-05
1.7787e-05
-1.1103e-05
-6.63825e-05
2.17377e-05
-5.14635e-05
-6.15848e-05
2.63067e-05
-8.69792e-05
-3.85547e-05
2.96853e-05
-0.000132714
3.13628e-05
-0.000161838
-5.15394e-05
3.0543e-05
-4.33557e-06
-5.88848e-05
3.67927e-05
-4.11665e-05
-5.73543e-05
4.18762e-05
-6.35918e-05
-3.69722e-05
5.03157e-05
-0.000108457
5.45689e-05
-0.000133827
-4.84148e-05
3.60007e-05
1.47943e-05
-5.13654e-05
4.15924e-05
-2.03366e-05
-4.80073e-05
4.77445e-05
-3.86451e-05
-3.32987e-05
5.4233e-05
-6.67472e-05
6.0809e-05
-9.09096e-05
-4.44658e-05
3.61428e-05
2.48788e-05
-4.65034e-05
4.01145e-05
-5.84497e-06
-4.14373e-05
4.44248e-05
-2.06618e-05
-2.6941e-05
4.75594e-05
-4.3232e-05
5.09091e-05
-5.41335e-05
-4.05386e-05
5.11385e-05
-4.09695e-05
2.32514e-05
-3.5886e-05
1.30512e-05
-2.3183e-05
-8.15315e-06
-1.54118e-05
-7.72332e-05
2.53453e-05
-9.41801e-06
-8.78467e-05
3.0578e-05
-7.25119e-05
-7.36773e-05
3.44204e-05
-0.000136847
-4.74496e-05
3.65589e-05
-0.000198145
3.99525e-05
-0.000247675
-7.01428e-05
4.18863e-05
1.09583e-06
-8.30142e-05
5.07559e-05
-4.84731e-05
-6.8918e-05
5.96843e-05
-0.000102952
-4.41316e-05
6.15372e-05
-0.000158222
6.61798e-05
-0.000199595
-6.50667e-05
4.83145e-05
2.6224e-05
-7.09574e-05
5.65483e-05
-2.02382e-05
-6.71995e-05
6.67283e-05
-4.94469e-05
-4.20363e-05
7.56471e-05
-0.000106021
8.01152e-05
-0.000140774
-5.88833e-05
4.70857e-05
4.06559e-05
-6.28009e-05
5.3194e-05
1.42685e-06
-5.69721e-05
6.04682e-05
-2.02305e-05
-3.84714e-05
6.47483e-05
-5.08339e-05
7.16747e-05
-7.78663e-05
-5.2755e-05
7.0727e-05
-5.46028e-05
3.8697e-05
-4.84608e-05
2.46898e-05
-3.2042e-05
-3.10757e-06
-1.36925e-05
-0.00011491
3.53327e-05
-5.14984e-06
-0.000123846
4.6508e-05
-0.000110956
-0.000107806
5.29151e-05
-0.000206843
-7.31691e-05
5.85872e-05
-0.000293737
6.71878e-05
-0.000386623
-0.000104888
5.81383e-05
1.21401e-05
-0.000114262
7.66527e-05
-6.92437e-05
-9.71542e-05
8.4757e-05
-0.000151902
-6.44375e-05
9.10675e-05
-0.00022342
0.000101648
-0.000294005
-9.55721e-05
6.79608e-05
4.36772e-05
-0.000106252
8.34309e-05
-1.6336e-05
-9.02522e-05
0.00010171
-8.23998e-05
-5.84885e-05
0.000108225
-0.000154942
0.000118091
-0.000209709
-8.16922e-05
6.61458e-05
6.22512e-05
-8.96932e-05
7.58527e-05
1.7006e-05
-8.19929e-05
9.03244e-05
-1.65458e-05
-5.11942e-05
9.96996e-05
-7.31071e-05
0.000109724
-0.000114512
-7.20466e-05
9.78844e-05
-7.43093e-05
5.98249e-05
-6.62511e-05
4.36264e-05
-4.28374e-05
7.10567e-06
-9.82208e-06
-0.000147584
4.6105e-05
-3.1846e-06
-0.000168536
5.79616e-05
-0.000148912
-0.000152093
7.2148e-05
-0.000296543
-0.000106902
8.33534e-05
-0.000425315
9.83249e-05
-0.00058978
-0.000132765
7.48312e-05
2.3597e-05
-0.000149417
9.22789e-05
-8.69086e-05
-0.000131882
0.000111109
-0.000208398
-9.18718e-05
0.000123261
-0.000303338
0.000143808
-0.000425798
-0.000121283
9.05086e-05
6.00324e-05
-0.000136583
0.000105734
-1.44906e-05
-0.000119377
0.000128969
-0.000117466
-8.06735e-05
0.000141288
-0.000211672
0.00016091
-0.000299545
-0.000104545
9.04769e-05
8.68064e-05
-0.000113878
9.70406e-05
3.5032e-05
-0.000100724
0.000113848
-1.45791e-05
-6.66171e-05
0.000124901
-9.08279e-05
0.000140518
-0.000152593
-9.77643e-05
0.000137728
-9.89927e-05
8.4535e-05
-8.35381e-05
5.88515e-05
-5.5318e-05
1.78386e-05
-8.46402e-06
-0.000236389
7.23509e-05
8.41949e-06
-0.000291792
9.59038e-05
-0.000190345
-0.000285435
0.000131416
-0.000435435
-0.000214756
0.000158526
-0.000657765
0.000205129
-0.00100713
-0.000203325
0.000119953
4.26266e-05
-0.000245011
0.000145296
-9.46145e-05
-0.000230204
0.000190286
-0.000282075
-0.00016823
0.000220855
-0.000427641
0.000276517
-0.000658967
-0.000186924
0.000139936
9.62388e-05
-0.00021706
0.000164168
-3.22638e-06
-0.00019944
0.000208607
-0.000153407
-0.000141047
0.000236371
-0.000285581
0.000283595
-0.000438735
-0.000157727
0.000133343
0.000137561
-0.000172857
0.000149729
6.46021e-05
-0.000154489
0.000178869
-3.20929e-06
-0.000105566
0.000195128
-9.85076e-05
0.000228367
-0.000194019
-0.000141271
0.000205856
-0.000148698
0.000135103
-0.000129039
9.42065e-05
-8.28752e-05
3.72725e-05
2.09031e-06
-0.000322218
0.000105984
2.43414e-05
-0.000429835
0.000137949
-0.000221457
-0.00045145
0.000199402
-0.000614161
-0.000366123
0.000257875
-0.00100467
0.000355141
-0.00172541
-0.000268679
0.000163294
8.14196e-05
-0.000343825
0.000195213
-7.67316e-05
-0.000341538
0.000274206
-0.000359167
-0.000269064
0.000330201
-0.000572442
0.000441196
-0.00100782
-0.000249103
0.000184828
0.000155105
-0.000297532
0.000220844
1.95715e-05
-0.000284882
0.00028783
-0.000179681
-0.000210695
0.000333413
-0.00036298
0.000420737
-0.000618468
-0.00020009
0.000170102
0.000212669
-0.000231028
0.000190462
0.000125921
-0.000206407
0.000240283
1.97159e-05
-0.000149113
0.000258238
-8.06262e-05
0.000313745
-0.000225701
-0.000179289
0.000293843
-0.000194716
0.000209909
-0.000173937
0.000152925
-0.000116599
7.4649e-05
1.865e-05
-0.000562736
0.000168403
0.00010094
-0.000807647
0.000238406
-0.000215866
-0.000962252
0.000387775
-0.000848576
-0.000892435
0.000539936
-0.00161888
0.000880852
-0.0034951
-0.000442137
0.000248385
0.000182565
-0.000601607
0.000325398
-4.25466e-06
-0.000652802
0.000496106
-0.000416302
-0.000554309
0.000640305
-0.000771304
0.00095222
-0.00162245
-0.000387874
0.000271579
0.000274412
-0.000497325
0.000345637
0.000108784
-0.000508154
0.000486539
-0.000159284
-0.000400941
0.000590516
-0.000420404
0.000798182
-0.0008521
-0.000291657
0.000238551
0.000344119
-0.000356543
0.000281279
0.000255165
-0.000337513
0.000377798
0.000109426
-0.000251077
0.000430985
-7.53045e-06
0.000551794
-0.000218325
-0.00024883
0.000429573
-0.000282465
0.000341179
-0.000260287
0.000272624
-0.000180737
0.000175315
9.48783e-05
-0.000793864
0.000227905
0.000263757
-0.00124758
0.000347286
-0.000109978
-0.00167052
0.000625048
-0.00105131
-0.00176829
0.00097441
-0.00249986
0.00175728
-0.00170921
-0.00183395
-0.00176619
-0.00170818
-0.000569616
0.000314189
0.000364129
-0.000831683
0.00042417
0.000180928
-0.000999292
0.000721841
-0.000345486
-0.000986135
0.000985803
-0.000795854
0.00165863
-0.00250782
-0.000496493
0.000331503
0.000458549
-0.000676296
0.000428074
0.000284683
-0.000734729
0.000664937
-4.39466e-05
-0.000638595
0.00081936
-0.000350095
0.00123701
-0.00105508
-0.000345245
0.000284823
0.000519124
-0.000440304
0.00033295
0.000445347
-0.000437696
0.000485964
0.000285792
-0.000359837
0.00055602
0.000177951
0.000782666
-0.000112338
-0.000296378
0.000595263
-0.000343481
0.000515709
-0.000326648
0.000456812
-0.000239522
0.000355194
0.000259355
-0.00128841
0.000311453
0.00060936
-0.00224039
0.000542496
0.000298551
-0.00372962
0.00109308
-0.000656969
-0.000910039
0.00202772
-0.000731064
-0.00141527
-0.000717477
-0.0011011
-0.00100205
-0.00124439
-0.00114342
-0.000665744
0.000696477
-0.00265514
-0.000872923
0.000423198
0.000677622
-0.00137881
0.000642474
0.000586838
-0.00189353
0.00121894
4.33658e-05
-0.00204919
0.00187515
-0.000487616
0.00372405
-0.00111194
-0.00141714
-0.000719808
-0.000728165
-0.000994524
-0.000901911
-0.00113613
-0.0012366
-0.000708863
0.000431333
0.000745815
-0.00101357
0.000604716
0.000627144
-0.00123294
0.00100054
0.000393831
-0.0011092
0.00136634
3.4966e-05
0.00223367
-0.000652874
-0.000468811
0.000363297
0.000768649
-0.000618414
0.000455065
0.000744601
-0.000657755
0.000695891
0.000629784
-0.000558116
0.000857795
0.000586859
0.00127629
0.00030277
-0.000376895
0.00081228
-0.000445454
0.000765005
-0.000438119
0.00074464
-0.000325842
0.000668208
0.000607944
-0.00167353
0.000374386
0.00121881
-0.00326698
0.000690546
0.0012012
-0.00166873
0.00171061
0.00145696
-0.00157046
-0.00210099
-0.00175272
-0.00254965
0.00065573
-0.000507882
0.00094353
0.000919901
-0.00100298
0.00032328
-0.00118552
-0.000958588
0.000467289
0.0011302
-0.00160259
0.000706498
0.00121488
-0.00282722
0.00163429
0.00134432
-0.00101229
0.00280568
0.000521729
0.000571108
0.000353737
0.000525602
-0.000853759
-0.00100605
-0.000759999
-0.00141774
-0.000859761
-0.00142196
-0.000761127
-0.00231787
-0.000960149
0.00203454
-0.000880758
-0.000780753
0.000455726
0.00111978
-0.00120448
0.000615692
0.00114167
-0.00164721
0.00119167
0.00127918
-0.00173
0.00158749
0.00133594
0.00326064
0.00145532
-0.00156142
-0.00166317
-0.00175564
-0.00209554
-0.000454927
0.000375192
0.00104303
-0.0006295
0.000439985
0.00109488
-0.000721019
0.000768701
0.00114427
-0.000702495
0.000939238
0.00121659
0.00166193
0.00120572
-0.000388809
0.0010333
-0.000470397
0.00104001
-0.000482433
0.0011194
-0.000390066
0.00112119
0.00121988
-0.00184849
0.000353426
0.00183529
-0.00351304
0.000751134
0.00211393
-0.00241858
0.0016875
0.00368901
-0.00193918
-0.00168473
-0.00139023
0.000838296
0.00111709
-0.000186471
-0.000990937
-0.00111316
-0.00107516
-0.00100896
0.00161515
0.00232203
-0.000785386
0.000535518
-0.00368759
-0.00112694
0.000472102
0.00161386
-0.00184769
0.000789508
0.00189726
-0.00108722
0.00175574
0.00276441
-0.00085168
-0.000751279
-0.000645834
-0.0010692
-0.00138154
0.00100192
0.000883336
-0.000987823
0.000507235
-0.000113037
-0.000573776
0.000283833
0.000883568
-0.000865382
0.000457338
0.00148709
-0.00131181
0.000688736
0.00168887
-0.0017692
0.00129496
0.00219735
-0.00171004
0.00183031
0.00275841
-0.000846137
-0.00108062
-0.000643255
-0.000741941
0.00349748
0.00368383
-0.00193606
-0.00241613
-0.00137802
-0.00168544
-0.000517533
0.000388311
0.00132108
-0.000702656
0.000501522
0.00146722
-0.000803104
0.000849521
0.00169016
-0.000759993
0.00110566
0.00189813
0.00183108
0.00212108
-0.000404781
0.00122683
-0.000475147
0.00131976
-0.000490108
0.00148802
-0.000371921
0.00160868
0.00184096
-0.000878323
0.000182478
0.00198661
-0.00163929
0.000458736
0.00241741
-0.00129893
0.000747919
0.00386377
-0.000855004
-0.000220611
-0.000186165
0.000262625
0.000608337
-0.0013248
-9.32026e-05
-0.000379153
-0.000375748
-2.26626e-06
9.13572e-05
0.00521052
-0.000113601
-9.17864e-05
-0.00509935
-0.000456833
0.000253085
0.00175722
-0.000621073
0.00039491
0.00212533
-0.00079599
0.000738634
0.00294861
-0.000120782
0.000774022
0.00346127
-0.000393754
-0.000134391
-0.000326533
0.000444399
-0.000381451
0.000423683
-0.000332221
-0.000954901
-0.00143808
-0.000860222
-0.00095703
-0.000172534
0.000566172
0.000386362
0.00016244
3.02583e-05
0.000252898
-0.000351312
4.23502e-05
0.000105323
-9.55485e-05
-9.26831e-05
-0.000152927
-0.000421888
-0.000379693
-0.00045923
0.000271181
0.00162378
-0.0006009
0.000330612
0.00189484
-0.000757769
0.000590944
0.00250191
-0.000777146
0.000602241
0.00294957
0.00162574
0.00388046
-0.00086309
-0.0013099
-0.000196453
-0.000229084
-0.000267286
0.000261594
0.00142519
-0.000343544
0.000251666
0.00162242
-0.000406118
0.000447633
0.00189605
-0.000465448
0.000433802
0.0021259
0.000874248
0.00241744
-0.000275946
0.00130076
-0.000287352
0.00142648
-0.000268016
0.0016262
-0.000204191
0.00176247
0.00199607
-0.000541187
-2.65219e-05
0.00185939
-0.00110606
0.000408387
0.00257421
0.000180964
-5.7151e-05
0.00312881
3.01394e-05
-0.00038955
-0.000132862
0.00035908
0.00058851
2.77571e-05
-0.000797335
-2.71285e-05
-0.000885442
0.0043115
0.00484204
0.00404448
0.00455469
-0.000340181
-0.00423213
-0.00403057
-0.00388085
-0.00437012
-0.000356818
8.92451e-05
0.00171261
-0.00032094
0.000328776
0.00216906
-0.00033465
0.000152582
0.00275258
0.000227171
0.000318077
0.000762161
0.000607163
0.000722677
0.000760092
-0.000103812
0.000231755
0.00011361
-0.000258249
-0.000105445
-0.0002582
0.000109624
0.00101975
0.000693438
0.000355123
-0.00048049
-0.00136065
-0.000324687
0.000137216
0.00156841
-0.000260275
0.000242615
0.00191658
-0.000166812
0.00024123
0.0023198
3.69698e-05
0.000303126
0.00276074
0.0010826
0.00313843
4.07498e-05
0.000178892
-0.000128469
-0.000381846
-0.0002373
0.000190207
0.00142968
-0.000257318
0.000221196
0.00166386
-0.000343301
0.000309174
0.00191409
-0.000419665
0.000336389
0.002169
0.000520998
0.00257117
-0.000206329
0.00127079
-0.000155743
0.0014341
-0.000105424
0.00156977
7.92243e-06
0.00172385
0.00186467
0.000108253
-5.125e-05
0.00173198
0.000198324
2.03085e-05
0.00246648
-0.000142649
-0.000147235
0.00320903
-2.30711e-05
0.000194018
0.000237924
-1.04885e-05
-0.000374803
0.000884654
-0.000182124
-0.000170391
-0.000140442
-0.000149641
0.0039287
0.000461586
-0.000454942
0.000203541
-0.00412669
0.00021698
-2.10382e-05
0.00159678
0.000463031
-0.00011148
0.0020548
-5.18659e-05
-0.000204913
0.00279182
0.000163647
8.22245e-05
0.000287471
0.000219646
-0.000183508
-0.00017394
0.000848098
-7.3572e-05
0.00016801
-0.000416454
-9.16669e-05
-0.000517734
0.000354808
-0.00010706
-0.000193748
-4.44316e-05
-6.15367e-05
0.00142182
-0.000194232
-0.000127565
-9.62326e-05
-2.04048e-05
2.05239e-05
9.94708e-06
0.00145464
0.000141261
-0.000125445
0.00180981
0.000190211
-0.000158498
0.00222444
0.000124487
-0.00048215
0.00280171
0.000170895
-4.64816e-05
0.000293465
8.90216e-05
-0.000203337
0.00320362
-1.91986e-05
-0.000144732
0.000238795
0.000198765
5.55519e-05
6.85648e-05
0.00132885
0.000113551
-7.30399e-05
0.00155345
9.84036e-05
-3.64762e-05
0.00180721
-3.48917e-05
-0.000235799
0.00205594
-0.000113696
0.00246366
-8.00148e-05
0.00117115
-2.39929e-05
0.00133294
1.05315e-06
0.00145612
3.57006e-05
0.0016081
0.00173391
0.000453917
-0.00017334
0.0014037
0.00105703
-0.000103563
0.00197039
0.000390452
-0.000710168
0.00230655
0.000467824
0.000949745
0.00086478
-0.000169643
0.000100648
-0.000121709
5.18325e-05
6.20357e-05
0.000219688
0.00024845
0.00515577
-0.000172285
4.63682e-05
-0.000182018
-0.00484866
0.000336031
-0.0001489
0.00133429
0.000784779
-0.000209976
0.00171246
0.00140889
-0.000689317
0.00214686
0.000407352
-0.00142139
0.00220423
0.000370547
0.000416731
0.00052428
0.000878856
0.000394173
0.000877227
0.000521541
-0.000892149
-0.00119233
-0.00078799
-0.000892182
0.000194773
-0.000765819
2.95029e-05
0.000238935
0.000347714
0.000518513
-9.17092e-05
5.37579e-05
0.000120566
1.93713e-05
2.60516e-05
-0.000108257
-8.70944e-05
-8.89537e-05
0.000163335
-0.00010752
0.00121176
0.000442326
-0.000200677
0.00152152
0.000678902
-0.000455235
0.00175378
0.000697338
-0.000794704
0.00215659
-0.00106395
0.00229705
0.000469256
0.000392481
0.000865295
0.000952853
8.53631e-05
-3.61917e-07
0.00114526
0.000190559
-9.90321e-05
0.00134661
0.00020023
-0.0001759
0.00151821
9.48676e-05
-0.000350196
0.0017168
-0.000469201
0.00196942
-1.1874e-05
0.00101895
9.36132e-05
0.0011515
0.000134072
0.00121346
0.000160568
0.00134896
0.00140327
0.00135753
-0.000258864
0.000922737
0.00261934
-0.000434631
0.00114718
0.00539578
-0.00125207
0.000786364
0.00304307
-0.00356599
-0.00452884
0.00245188
0.00257525
0.00196278
0.000460949
0.00177027
0.00057791
0.000637466
0.00246782
-0.00235646
-0.0120745
0.00338813
0.00455168
0.00306335
0.00401493
0.000986673
-0.000286877
0.000964141
0.00176913
-0.00062173
0.0011171
0.00280664
-0.00133949
0.00119677
0.00350869
-0.00281487
0.000751055
-0.00537643
-0.00451534
0.00240774
0.00305538
0.00197859
0.00258122
0.000638715
0.00176301
0.000573742
0.000457308
0.00057444
-0.000251258
0.000877179
0.000976459
-0.000558731
0.0010565
0.00133224
-0.000982596
0.0010411
0.00123651
-0.00177305
0.00121051
-0.00261036
0.000784055
0.000376723
-0.000129079
0.000882069
0.000551099
-0.000383558
0.000997063
0.000612275
-0.000579231
0.00105366
0.000426587
-0.000995213
0.00112465
-0.00135431
0.00115263
0.000119493
0.000772221
0.000244007
0.000890613
0.000280216
0.000881544
0.000252758
0.000982745
0.000928842
0.000990813
-0.000242109
0.000596891
0.001796
-0.000304325
0.000652203
0.0033789
-0.00092137
0.0001301
0.00512368
-0.00241048
-0.0038646
-0.00511618
-0.0284498
0.00977896
0.0118769
0.0072642
0.00975155
0.000745111
-0.00026074
0.00066988
0.00131435
-0.000445561
0.000689101
0.00205305
-0.00103458
0.000571285
0.00239211
-0.00206424
6.57641e-05
-0.00336995
-0.00384517
0.00045732
-0.000236301
0.000625088
0.000804333
-0.000442227
0.000706157
0.00102502
-0.000809511
0.000595342
0.000909584
-0.00132408
0.000585782
-0.00180165
0.000142265
0.000294353
-0.000125755
0.000665719
0.000434069
-0.000302865
0.000717985
0.000440252
-0.000466365
0.000704336
0.00030152
-0.000755481
0.000694781
-0.000999553
0.000654767
0.000117343
0.000590594
0.000228526
0.000673487
0.000251461
0.000631915
0.00023304
0.000688503
0.000610281
0.00116543
-0.000215356
0.000349832
0.00195118
-0.000382994
0.000253079
0.00314173
-0.000886607
-0.000167681
0.00454748
-0.00223015
-0.00304891
-0.00454109
-0.0193417
0.00091494
-0.00026392
0.000439917
0.00142767
-0.000542086
0.000335464
0.00202572
-0.00103539
0.00012202
0.00220729
-0.00203429
-0.000311669
-0.00313956
-0.00303644
0.000579848
-0.000253213
0.000417519
0.000861795
-0.00053412
0.000416242
0.0010349
-0.000863127
0.000249972
0.000882251
-0.001433
0.000137152
-0.0019472
-0.000153737
0.000405492
-0.000171314
0.000479786
0.000529359
-0.000409873
0.000469871
0.000537253
-0.000581326
0.000414641
0.000377026
-0.000919601
0.000341606
-0.00116211
0.000255342
0.000168357
0.000433134
0.000250587
0.000487447
0.000261249
0.000424807
0.000211973
0.000457773