FoamFile
{version 2.0; format ascii;class Cloud<passiveParticle>; location 0;object  positions;}
2
(
( 0.5 0.5 3.47267 ) 0 
( 0.5 0.5 3.13409 ) 0 
)
