/*--------------------------------*- C++ -*----------------------------------*\
| =========                 |                                                 |
| \\      /  F ield         | OpenFOAM: The Open Source CFD Toolbox           |
|  \\    /   O peration     | Version:  5.x                                   |
|   \\  /    A nd           | Web:      www.OpenFOAM.org                      |
|    \\/     M anipulation  |                                                 |
\*---------------------------------------------------------------------------*/
FoamFile
{
    version     2.0;
    format      ascii;
    class       surfaceScalarField;
    location    "0.081";
    object      phi;
}
// * * * * * * * * * * * * * * * * * * * * * * * * * * * * * * * * * * * * * //

dimensions      [0 3 -1 0 0 0 0];

internalField   nonuniform List<scalar> 
4339
(
-2.6702e-08
-2.82465e-08
-2.17961e-07
8.73958e-08
-3.41059e-08
-2.23364e-07
1.75573e-07
-4.42719e-08
-1.97275e-07
2.4832e-07
-4.8375e-08
-1.8192e-07
-5.84534e-08
-7.22027e-08
-3.25997e-08
8.58064e-08
-2.23297e-07
8.1501e-08
7.99254e-08
-2.2808e-07
1.70308e-07
6.94686e-08
-2.02504e-07
2.43445e-07
6.53553e-08
-1.86829e-07
5.43961e-08
-7.83454e-08
-4.27486e-08
1.74e-07
-1.97277e-07
7.10489e-08
1.68726e-07
-2.02555e-07
1.60519e-07
1.5894e-07
-1.78904e-07
2.3445e-07
1.55097e-07
-1.63641e-07
1.44416e-07
-5.83372e-08
-4.69023e-08
2.46736e-07
-1.81851e-07
6.69285e-08
2.41834e-07
-1.869e-07
1.56678e-07
2.32845e-07
-1.63622e-07
2.30851e-07
2.29244e-07
-1.48292e-07
2.19282e-07
-4.42809e-08
-5.69739e-08
-7.24772e-08
5.59698e-08
-7.87758e-08
1.45996e-07
-5.86763e-08
2.20887e-07
-4.46379e-08
5.49206e-08
-7.3322e-08
-7.39308e-08
-2.68641e-07
-5.24902e-08
-7.84259e-08
-2.69209e-07
-5.63648e-08
-8.3492e-08
-2.18144e-07
-5.09043e-08
-8.6315e-08
-2.12105e-07
-9.00452e-08
-1.21466e-07
-7.77988e-08
-5.29711e-08
-2.69219e-07
-5.67434e-08
-5.7237e-08
-2.70267e-07
-5.98204e-08
-6.23436e-08
-2.20527e-07
-5.32069e-08
-6.48849e-08
-2.14831e-07
-6.80593e-08
-1.25465e-07
-8.29023e-08
-5.66739e-08
-2.18258e-07
-6.18991e-08
-6.01165e-08
-2.2063e-07
-6.44971e-08
-6.47617e-08
-1.73847e-07
-5.70538e-08
-6.67904e-08
-1.69143e-07
-6.96494e-08
-8.296e-08
-8.57139e-08
-5.09906e-08
-2.12217e-07
-6.44609e-08
-5.32943e-08
-2.14933e-07
-6.65536e-08
-5.71149e-08
-1.6914e-07
-5.84486e-08
-5.84868e-08
-1.64669e-07
-6.08716e-08
-7.95028e-08
-8.94649e-08
-1.21673e-07
-6.76872e-08
-1.25658e-07
-6.9473e-08
-8.30473e-08
-6.08772e-08
-7.95968e-08
1.95308e-09
-2.54357e-08
-2.68546e-08
-4.85634e-07
8.34326e-08
-3.35709e-08
-4.86924e-07
1.49787e-07
-4.51838e-08
-3.92873e-07
2.07196e-07
-4.96444e-08
-3.77843e-07
-6.06437e-08
-2.08236e-07
-3.21544e-08
8.20316e-08
-4.86916e-07
7.70051e-08
7.56061e-08
-4.88569e-07
1.44146e-07
6.38636e-08
-3.96685e-07
2.02393e-07
5.94742e-08
-3.82169e-07
4.79473e-08
-2.14877e-07
-4.37645e-08
1.48461e-07
-3.93032e-07
6.52629e-08
1.42821e-07
-3.96843e-07
1.33238e-07
1.31913e-07
-3.09845e-07
1.92672e-07
1.27925e-07
-2.97002e-07
1.1675e-07
-1.35408e-07
-4.8225e-08
2.05948e-07
-3.78002e-07
6.08749e-08
2.01142e-07
-3.82327e-07
1.29251e-07
1.91419e-07
-2.96996e-07
1.89188e-07
1.87935e-07
-2.8459e-07
1.77782e-07
-1.25007e-07
-5.92336e-08
-2.08629e-07
4.93429e-08
-2.15278e-07
1.18074e-07
-1.35644e-07
1.79034e-07
-1.2525e-07
2.73972e-08
-3.54109e-08
-3.62308e-08
-6.67015e-07
5.43586e-08
-4.21598e-08
-6.67308e-07
1.05355e-07
-5.23182e-08
-5.33514e-07
1.52044e-07
-5.64218e-08
-5.13957e-07
-6.63335e-08
-2.88363e-07
-4.13311e-08
5.36096e-08
-6.67304e-07
4.84893e-08
4.77288e-08
-6.68275e-07
1.00111e-07
3.70805e-08
-5.37696e-07
1.47659e-07
3.2891e-08
-5.19015e-07
2.21478e-08
-2.96559e-07
-5.14976e-08
1.04695e-07
-5.337e-07
3.78317e-08
9.94536e-08
-5.37887e-07
9.00329e-08
8.93811e-08
-4.14332e-07
1.38703e-07
8.55658e-08
-3.98326e-07
7.50235e-08
-1.83896e-07
-5.55813e-08
1.51501e-07
-5.14191e-07
3.36468e-08
1.4711e-07
-5.19196e-07
8.62232e-08
1.38158e-07
-3.98329e-07
1.3547e-07
1.34919e-07
-3.83164e-07
1.25347e-07
-1.71604e-07
-6.54975e-08
-2.88768e-07
2.28969e-08
-2.96917e-07
7.56755e-08
-1.84076e-07
1.25894e-07
-1.71784e-07
3.01336e-08
2.6314e-09
6.43794e-10
-9.90997e-07
1.61125e-07
-8.77629e-09
-9.87633e-07
2.50725e-07
-2.57849e-08
-7.83722e-07
3.26767e-07
-3.22186e-08
-7.50175e-07
-4.91311e-08
-4.13377e-07
-7.57807e-09
1.59677e-07
-9.87772e-07
1.51804e-07
1.50411e-07
-9.86867e-07
2.42466e-07
1.32154e-07
-7.863e-07
3.19712e-07
1.25699e-07
-7.54166e-07
1.06942e-07
-4.21882e-07
-2.44165e-08
2.49393e-07
-7.83867e-07
1.33549e-07
2.41193e-07
-7.86637e-07
2.25012e-07
2.23727e-07
-5.97354e-07
3.03878e-07
2.17686e-07
-5.69154e-07
1.98998e-07
-2.49448e-07
-3.07868e-08
3.25585e-07
-7.50483e-07
1.27082e-07
3.18515e-07
-7.54374e-07
2.18974e-07
3.02687e-07
-5.69156e-07
2.98517e-07
2.97326e-07
-5.42312e-07
2.79991e-07
-2.27145e-07
-4.77078e-08
-4.13867e-07
1.08327e-07
-4.22368e-07
2.00283e-07
-2.49687e-07
2.81182e-07
-2.27391e-07
7.23603e-08
3.1391e-08
3.03099e-08
-1.40457e-06
2.30292e-07
2.03241e-08
-1.39356e-06
3.42673e-07
-1.40197e-09
-1.09893e-06
4.36112e-07
-9.03135e-09
-1.04541e-06
-2.78323e-08
-5.64399e-07
2.13641e-08
2.29439e-07
-1.39373e-06
2.20974e-07
2.19715e-07
-1.38589e-06
3.33768e-07
1.97815e-07
-1.09831e-06
4.27978e-07
1.89898e-07
-1.04728e-06
1.67505e-07
-5.71212e-07
5.97688e-10
3.41507e-07
-1.09939e-06
1.99046e-07
3.32991e-07
-1.09836e-06
3.12792e-07
3.11832e-07
-8.2509e-07
4.09036e-07
3.04294e-07
-7.79754e-07
2.81297e-07
-3.22168e-07
-8.08204e-09
4.35249e-07
-1.04576e-06
1.90945e-07
4.27112e-07
-1.0475e-06
3.05269e-07
4.08172e-07
-7.7978e-07
4.02411e-07
4.01536e-07
-7.36646e-07
3.8014e-07
-2.86147e-07
-2.6685e-08
-5.64909e-07
1.68537e-07
-5.7165e-07
2.82255e-07
-3.22392e-07
3.81008e-07
-2.86363e-07
1.41826e-07
9.00457e-08
8.84195e-08
-2.01134e-06
3.80207e-07
7.32059e-08
-1.98649e-06
5.38415e-07
4.32514e-08
-1.55542e-06
6.63583e-07
3.37559e-08
-1.46853e-06
-2.80503e-09
-7.7296e-07
7.4842e-08
3.78709e-07
-1.98668e-06
3.64713e-07
3.63182e-07
-1.96572e-06
5.24144e-07
3.29105e-07
-1.54355e-06
6.53517e-07
3.17456e-07
-1.4603e-06
2.79362e-07
-7.76964e-07
4.47844e-08
5.37032e-07
-1.5558e-06
3.30623e-07
5.22733e-07
-1.54371e-06
4.90486e-07
4.89089e-07
-1.14488e-06
6.21016e-07
4.77598e-07
-1.07037e-06
4.38987e-07
-4.14354e-07
3.52378e-08
6.62486e-07
-1.46892e-06
3.18961e-07
6.52085e-07
-1.46052e-06
4.79004e-07
6.19716e-07
-1.07039e-06
6.10345e-07
6.09051e-07
-9.99383e-07
5.7236e-07
-3.54191e-07
-9.18088e-10
-7.73594e-07
2.80964e-07
-7.77326e-07
4.40429e-07
-4.1457e-07
5.7365e-07
-3.5439e-07
2.54903e-07
1.82788e-07
1.81262e-07
-2.8793e-06
5.9155e-07
1.62351e-07
-2.82759e-06
8.13929e-07
1.24593e-07
-2.20335e-06
9.82875e-07
1.10901e-07
-2.0602e-06
7.31305e-08
-1.05713e-06
1.63908e-07
5.90209e-07
-2.82786e-06
5.71815e-07
5.70445e-07
-2.78164e-06
7.95169e-07
5.28226e-07
-2.17046e-06
9.65851e-07
5.12505e-07
-2.03252e-06
4.6595e-07
-1.04494e-06
1.26109e-07
8.12692e-07
-2.20371e-06
5.29569e-07
7.93936e-07
-2.17058e-06
7.52813e-07
7.51594e-07
-1.59143e-06
9.26849e-07
7.35759e-07
-1.4676e-06
6.86356e-07
-5.19872e-07
1.12451e-07
9.81766e-07
-2.06061e-06
5.13865e-07
9.64779e-07
-2.03271e-06
7.37001e-07
9.25758e-07
-1.46764e-06
9.12214e-07
9.11096e-07
-1.34989e-06
8.64589e-07
-4.20143e-07
7.45534e-08
-1.05766e-06
4.67257e-07
-1.04522e-06
6.87569e-07
-5.20038e-07
8.65695e-07
-4.20286e-07
4.57451e-07
3.12893e-07
3.10927e-07
-4.10684e-06
8.84965e-07
2.84236e-07
-4.01011e-06
1.18907e-06
2.2514e-07
-3.10276e-06
1.41105e-06
2.04333e-07
-2.8717e-06
1.41982e-07
-1.43345e-06
2.86242e-07
8.83253e-07
-4.01046e-06
8.56396e-07
8.54662e-07
-3.92209e-06
1.16149e-06
7.83588e-07
-3.03392e-06
1.38591e-06
7.59073e-07
-2.81164e-06
6.78233e-07
-1.39632e-06
2.2711e-07
1.18753e-06
-3.10311e-06
7.85296e-07
1.15994e-06
-3.03396e-06
1.08899e-06
1.08745e-06
-2.19893e-06
1.31679e-06
1.06224e-06
-1.99855e-06
9.75338e-07
-6.49439e-07
2.06346e-07
1.40969e-06
-2.87211e-06
7.60809e-07
1.38455e-06
-2.81174e-06
1.06379e-06
1.31543e-06
-1.99857e-06
1.29327e-06
1.29189e-06
-1.80898e-06
1.20744e-06
-4.89115e-07
1.43928e-07
-1.43385e-06
6.79939e-07
-1.39643e-06
9.76868e-07
-6.495e-07
1.20881e-06
-4.89176e-07
7.44402e-07
5.42213e-07
5.40251e-07
-5.92182e-06
1.37168e-06
5.05273e-07
-5.74059e-06
1.81535e-06
4.31572e-07
-4.42822e-06
2.11279e-06
4.02776e-07
-4.04012e-06
3.22376e-07
-1.96019e-06
5.0732e-07
1.3701e-06
-5.74108e-06
1.33274e-06
1.33108e-06
-5.5732e-06
1.77665e-06
1.24507e-06
-4.29128e-06
2.07726e-06
1.20861e-06
-3.91809e-06
1.10765e-06
-1.87663e-06
4.33536e-07
1.81397e-06
-4.42851e-06
1.24665e-06
1.77522e-06
-4.29116e-06
1.6864e-06
1.68502e-06
-3.07862e-06
1.99373e-06
1.64627e-06
-2.74355e-06
1.53512e-06
-7.9402e-07
4.04811e-07
2.11165e-06
-4.0405e-06
1.21026e-06
2.07608e-06
-3.91806e-06
1.64771e-06
1.99255e-06
-2.74356e-06
1.9572e-06
1.95597e-06
-2.42818e-06
1.8518e-06
-5.29933e-07
3.24328e-07
-1.96033e-06
1.10922e-06
-1.87638e-06
1.53649e-06
-7.93864e-07
1.853e-06
-5.29816e-07
1.24514e-06
8.58865e-07
8.56462e-07
-8.50768e-06
2.01996e-06
8.05104e-07
-8.18121e-06
2.62337e-06
6.80572e-07
-6.26355e-06
3.00478e-06
6.34718e-07
-5.63202e-06
4.96505e-07
-2.6423e-06
8.07603e-07
2.01809e-06
-8.18184e-06
1.96028e-06
1.95836e-06
-7.87907e-06
2.56339e-06
1.79708e-06
-6.0109e-06
2.94997e-06
1.738e-06
-5.40798e-06
1.54779e-06
-2.48036e-06
6.82995e-07
2.62177e-06
-6.26372e-06
1.79894e-06
2.56178e-06
-6.01054e-06
2.39456e-06
2.39298e-06
-4.27017e-06
2.78724e-06
2.3289e-06
-3.72716e-06
2.11885e-06
-9.58577e-07
6.37237e-07
3.00347e-06
-5.63226e-06
1.73993e-06
2.94867e-06
-5.40768e-06
2.33052e-06
2.78593e-06
-3.72712e-06
2.72694e-06
2.7256e-06
-3.22132e-06
2.52078e-06
-5.38291e-07
4.98967e-07
-2.64201e-06
1.54966e-06
-2.47951e-06
2.12042e-06
-9.58085e-07
2.5221e-06
-5.3789e-07
1.93532e-06
1.40083e-06
1.39843e-06
-1.23813e-05
3.09864e-06
1.32648e-06
-1.17894e-05
4.00612e-06
1.17912e-06
-9.02735e-06
4.50175e-06
1.10961e-06
-7.94298e-06
9.35322e-07
-3.61239e-06
1.32912e-06
3.09707e-06
-1.17903e-05
3.01182e-06
3.01005e-06
-1.12453e-05
3.91423e-06
2.83003e-06
-8.56424e-06
4.41666e-06
2.73188e-06
-7.53269e-06
2.50248e-06
-3.31273e-06
1.18153e-06
4.00493e-06
-9.0273e-06
2.83161e-06
3.91289e-06
-8.56347e-06
3.71301e-06
3.7118e-06
-6.03335e-06
4.23215e-06
3.60263e-06
-5.11705e-06
3.33949e-06
-1.11383e-06
1.11223e-06
4.50103e-06
-7.94308e-06
2.73365e-06
4.41584e-06
-7.53208e-06
3.60399e-06
4.23131e-06
-5.11697e-06
4.1289e-06
4.12793e-06
-4.27153e-06
3.88644e-06
-4.26127e-07
9.37718e-07
-3.61132e-06
2.50403e-06
-3.3109e-06
3.34067e-06
-1.11277e-06
3.88735e-06
-4.25264e-07
3.12454e-06
2.21868e-06
2.21573e-06
-1.80818e-05
4.63312e-06
2.09996e-06
-1.69991e-05
5.85044e-06
1.80571e-06
-1.28813e-05
6.44083e-06
1.68687e-06
-1.10894e-05
1.35669e-06
-4.82704e-06
2.10314e-06
4.63131e-06
-1.70003e-05
4.48126e-06
4.47935e-06
-1.60028e-05
5.69194e-06
4.07526e-06
-1.20444e-05
6.2975e-06
3.91168e-06
-1.0363e-05
3.43506e-06
-4.2942e-06
1.80871e-06
5.84909e-06
-1.28809e-05
4.07705e-06
5.6906e-06
-1.2043e-05
5.2691e-06
5.26784e-06
-8.41794e-06
5.8949e-06
5.08242e-06
-6.91355e-06
4.54763e-06
-1.23379e-06
1.6901e-06
6.44002e-06
-1.1089e-05
3.91363e-06
6.29679e-06
-1.03617e-05
5.08376e-06
5.89411e-06
-6.91333e-06
5.72093e-06
5.72011e-06
-5.54636e-06
5.20524e-06
-1.35526e-07
1.35983e-06
-4.82482e-06
3.43688e-06
-4.29081e-06
4.54888e-06
-1.23187e-06
5.20604e-06
-1.33937e-07
4.76354e-06
3.52357e-06
3.52092e-06
-2.66981e-05
7.06369e-06
3.33092e-06
-2.47273e-05
8.98287e-06
3.02826e-06
-1.88428e-05
9.67722e-06
2.82219e-06
-1.56652e-05
2.4168e-06
-6.539e-06
3.33429e-06
7.06289e-06
-2.4729e-05
6.82983e-06
6.82855e-06
-2.29959e-05
8.72294e-06
6.44179e-06
-1.7351e-05
9.43859e-06
6.12848e-06
-1.43849e-05
5.57121e-06
-5.61096e-06
3.03097e-06
8.98286e-06
-1.88418e-05
6.44255e-06
8.72259e-06
-1.73486e-05
8.2424e-06
8.24237e-06
-1.20183e-05
9.00715e-06
7.88791e-06
-9.43769e-06
7.22472e-06
-1.19708e-06
2.82546e-06
9.67819e-06
-1.56644e-05
6.12978e-06
9.43945e-06
-1.43828e-05
7.88836e-06
9.00785e-06
-9.43735e-06
8.68048e-06
8.68084e-06
-7.13139e-06
8.09809e-06
5.95314e-07
2.41948e-06
-6.53473e-06
5.57183e-06
-5.60492e-06
7.22464e-06
-1.19369e-06
8.09756e-06
5.98076e-07
7.61008e-06
6.03688e-06
6.03339e-06
-4.05964e-05
1.11623e-05
5.60688e-06
-3.64663e-05
1.36425e-05
4.74938e-06
-2.7313e-05
1.4159e-05
4.34783e-06
-2.18271e-05
3.47863e-06
-8.47212e-06
5.61093e-06
1.11613e-05
-3.64687e-05
1.06387e-05
1.06374e-05
-3.30541e-05
1.30977e-05
9.48324e-06
-2.45438e-05
1.36954e-05
8.93938e-06
-1.95741e-05
7.65637e-06
-6.88488e-06
4.75301e-06
1.36422e-05
-2.7311e-05
9.48425e-06
1.30975e-05
-2.45398e-05
1.19339e-05
1.19339e-05
-1.69186e-05
1.26469e-05
1.12924e-05
-1.25036e-05
9.84069e-06
-7.78931e-07
4.35215e-06
1.41597e-05
-2.18252e-05
8.94082e-06
1.36965e-05
-1.95706e-05
1.12926e-05
1.26477e-05
-1.2503e-05
1.20693e-05
1.20701e-05
-8.68582e-06
1.07265e-05
2.11851e-06
3.48279e-06
-8.46525e-06
7.65748e-06
-6.87514e-06
9.84067e-06
-7.73612e-07
1.07257e-05
2.12291e-06
1.16671e-05
1.15024e-05
1.15e-05
-6.61882e-05
1.9315e-05
9.9731e-06
-5.5482e-05
2.22458e-05
8.81739e-06
-4.04899e-05
2.1804e-05
7.67028e-06
-3.05573e-05
6.26375e-06
-1.08018e-05
9.97795e-06
1.9317e-05
-5.54863e-05
1.78555e-05
1.78563e-05
-4.88149e-05
2.09507e-05
1.62314e-05
-3.5053e-05
2.09703e-05
1.44424e-05
-2.63658e-05
1.26726e-05
-7.96082e-06
8.81906e-06
2.22489e-05
-4.04856e-05
1.62272e-05
2.09537e-05
-3.50454e-05
1.94751e-05
1.94791e-05
-2.34142e-05
1.97364e-05
1.7891e-05
-1.62136e-05
1.59224e-05
7.02132e-07
7.67334e-06
2.18099e-05
-3.05545e-05
1.44408e-05
2.09768e-05
-2.63611e-05
1.78882e-05
1.97419e-05
-1.62132e-05
1.85031e-05
1.85078e-05
-9.91757e-06
1.69589e-05
5.3328e-06
6.26526e-06
-1.07898e-05
1.26692e-05
-7.94416e-06
1.59179e-05
7.10805e-07
1.69537e-05
5.3402e-06
1.89005e-05
2.10719e-05
2.10655e-05
-0.000111381
3.66019e-05
1.9707e-05
-9.23877e-05
3.94238e-05
1.55202e-05
-6.0782e-05
3.38108e-05
1.29549e-05
-3.97778e-05
9.70945e-06
-1.22047e-05
1.97153e-05
3.66032e-05
-9.23955e-05
3.32128e-05
3.32121e-05
-7.58175e-05
3.53489e-05
2.60248e-05
-4.76938e-05
3.15568e-05
2.30673e-05
-3.26861e-05
1.83517e-05
-7.36613e-06
1.55251e-05
3.94249e-05
-6.07746e-05
2.60238e-05
3.535e-05
-4.76821e-05
2.96389e-05
2.96423e-05
-3.06468e-05
2.8338e-05
2.67054e-05
-1.85509e-05
2.21077e-05
4.78936e-06
1.29617e-05
3.3814e-05
-3.97738e-05
2.30671e-05
3.15618e-05
-3.26783e-05
2.67037e-05
2.83424e-05
-1.855e-05
2.60013e-05
2.60055e-05
-8.51523e-06
2.22466e-05
1.19236e-05
9.71572e-06
-1.21886e-05
1.83506e-05
-7.34142e-06
2.21048e-05
4.80151e-06
2.22423e-05
1.1934e-05
2.95852e-05
2.87283e-05
2.87294e-05
-0.000172104
4.91303e-05
2.67253e-05
-0.000141286
6.11224e-05
2.46659e-05
-9.96214e-05
5.49392e-05
2.12381e-05
-5.70575e-05
1.68407e-05
-1.05339e-05
2.67332e-05
4.91445e-05
-0.000141301
4.65264e-05
4.65386e-05
-0.000115424
5.72126e-05
4.37483e-05
-7.74623e-05
4.86174e-05
3.62088e-05
-3.90617e-05
2.96051e-05
-3.69481e-06
2.46659e-05
6.11371e-05
-9.96091e-05
4.37317e-05
5.72221e-05
-7.74314e-05
4.81109e-05
4.81222e-05
-3.93999e-05
4.34135e-05
4.13276e-05
-1.89723e-05
3.42769e-05
1.29866e-05
2.12428e-05
5.4958e-05
-5.70516e-05
3.62008e-05
4.86399e-05
-3.90542e-05
4.13167e-05
4.34314e-05
-1.8975e-05
3.89004e-05
3.89161e-05
-3.68732e-06
3.41991e-05
2.26869e-05
1.68386e-05
-1.05081e-05
2.95902e-05
-3.65365e-06
3.42613e-05
1.30044e-05
3.41819e-05
2.27036e-05
4.5631e-05
4.34694e-05
4.34642e-05
-0.000262211
6.65894e-05
3.81665e-05
-0.000204297
7.87302e-05
3.32249e-05
-0.000147411
7.34971e-05
2.93592e-05
-8.36647e-05
2.11304e-05
-9.31976e-06
3.81732e-05
6.6587e-05
-0.00020431
5.9856e-05
5.98573e-05
-0.000158797
7.22632e-05
5.39988e-05
-0.000110643
6.72508e-05
5.0339e-05
-5.50291e-05
3.67969e-05
3.07385e-06
3.32272e-05
7.87316e-05
-0.000147393
5.39932e-05
7.22667e-05
-0.000110607
6.62375e-05
6.62478e-05
-6.38931e-05
5.93341e-05
5.54274e-05
-1.71573e-05
4.24023e-05
2.55187e-05
2.93674e-05
7.35044e-05
-8.3657e-05
5.03294e-05
6.72629e-05
-5.50124e-05
5.54226e-05
5.93414e-05
-1.71619e-05
5.03175e-05
5.03244e-05
6.52071e-06
4.09035e-05
3.71602e-05
2.11411e-05
-9.28764e-06
3.67948e-05
3.12776e-06
4.23942e-05
2.55421e-05
4.08963e-05
3.71751e-05
6.34881e-05
6.44914e-05
6.45043e-05
-0.000395391
0.000100337
5.66077e-05
-0.000299067
0.000115139
4.8395e-05
-0.000213466
0.000103906
3.94298e-05
-0.000114835
2.93196e-05
-8.61406e-06
5.66283e-05
0.000100375
-0.000299096
8.85195e-05
8.85491e-05
-0.00022263
0.000103008
7.83335e-05
-0.000155071
9.38998e-05
6.64508e-05
-7.29419e-05
5.0799e-05
1.06553e-05
4.83817e-05
0.000115177
-0.000213438
7.82905e-05
0.000103039
-0.000155006
9.24251e-05
9.2465e-05
-9.21593e-05
8.32131e-05
7.68706e-05
-1.83651e-05
6.29398e-05
3.65483e-05
3.94366e-05
0.000103963
-0.000114836
6.64258e-05
9.39691e-05
-7.29315e-05
7.6843e-05
8.32645e-05
-1.83786e-05
7.09166e-05
7.09623e-05
1.83554e-05
6.2812e-05
5.51395e-05
2.93011e-05
-8.55993e-06
5.07484e-05
1.07473e-05
6.28924e-05
3.65796e-05
6.27625e-05
5.51682e-05
9.06631e-05
0.000128625
0.00012862
-0.000656944
0.000175926
0.00010214
-0.000450705
0.000185187
8.31642e-05
-0.000309515
0.000150607
6.12669e-05
-0.000145173
4.39348e-05
-5.06682e-06
0.000102145
0.000175919
-0.000450718
0.00014289
0.00014289
-0.000304125
0.000156097
0.000121199
-0.000206312
0.000130354
9.3273e-05
-7.92058e-05
7.49578e-05
2.25267e-05
8.31747e-05
0.00018518
-0.000309474
0.000121197
0.000156095
-0.000206234
0.000135148
0.000135152
-0.000120063
0.000117757
0.000109148
-1.68495e-05
8.9868e-05
5.82099e-05
6.12885e-05
0.000150602
-0.000145165
9.32776e-05
0.000130366
-7.91918e-05
0.00010915
0.00011777
-1.68685e-05
9.94077e-05
9.94218e-05
3.78236e-05
8.47817e-05
8.97458e-05
4.39583e-05
-5.01593e-06
7.49687e-05
2.26182e-05
8.98668e-05
5.8249e-05
8.47676e-05
8.97852e-05
0.00013595
0.000218503
0.000218545
-0.00110008
0.0002897
0.000169047
-0.000694575
0.000294262
0.000132671
-0.000450838
0.000232184
9.56658e-05
-0.000183039
6.7073e-05
8.03984e-06
0.000169155
0.000289797
-0.000694648
0.00023238
0.000232452
-0.000430755
0.000243453
0.000191975
-0.000276689
0.000197291
0.000144141
-8.15184e-05
0.00011125
4.72846e-05
0.000132615
0.00029436
-0.000450773
0.000191855
0.000243523
-0.000276545
0.000207795
0.000207906
-0.000151934
0.00017422
0.000160587
2.79587e-07
0.000129683
9.6512e-05
9.56971e-05
0.000232322
-0.000183058
0.000144084
0.000197473
-8.15278e-05
0.00016053
0.000174353
2.38039e-07
0.000142254
0.000142357
7.43294e-05
0.000120732
0.000142226
6.70187e-05
8.10563e-06
0.000111111
4.7457e-05
0.000129554
9.65623e-05
0.000120615
0.000142271
0.00020094
0.000565082
0.00056509
-0.00223624
0.000615599
0.000351663
-0.00109925
0.000530731
0.000258905
-0.000630091
0.000369955
0.000158786
-0.000185896
0.000115971
4.78616e-05
0.00035164
0.000615577
-0.00109924
0.000417002
0.000417
-0.000561454
0.000393756
0.00032801
-0.000322549
0.00029185
0.000216688
-3.75152e-05
0.00016793
0.000117812
0.000258922
0.000530697
-0.000629982
0.000328016
0.00039374
-0.000322378
0.000326236
0.000326237
-0.00014838
0.000256904
0.000238559
4.77401e-05
0.000184111
0.000180713
0.000158832
0.000369927
-0.00018589
0.000216711
0.000291872
-3.75384e-05
0.000238576
0.000256916
4.7694e-05
0.000191928
0.000191936
0.000167601
0.000156639
0.000240118
0.000116026
4.79317e-05
0.000167947
0.000118
0.000184108
0.000180775
0.000156629
0.000240159
0.00029874
0.000909818
0.000909937
-0.0040649
0.00100751
0.000608635
-0.00181293
0.000839429
0.00040494
-0.000872511
0.000563999
0.000244256
-0.000160939
0.000160233
0.000138042
0.000609216
0.0010078
-0.00181316
0.00068438
0.000684533
-0.000712516
0.000606945
0.000504031
-0.000344205
0.000430031
0.00032247
6.11844e-05
0.000231197
0.000233727
0.000404722
0.000839619
-0.000872249
0.000503691
0.00060703
-0.000343845
0.00048126
0.000481542
-0.00010346
0.000360277
0.000329457
0.000161736
0.000246396
0.000307915
0.000244408
0.000564291
-0.000161043
0.000322358
0.000430409
6.11318e-05
0.000329374
0.00036056
0.00016166
0.000262304
0.000262495
0.000301633
0.000210917
0.000371944
0.000160063
0.000138085
0.00023094
0.000233886
0.000246133
0.000307991
0.000210677
0.000371959
0.000429875
0.00285746
0.0028578
-0.00316285
-0.002363
-0.0023627
-0.00190029
0.00246114
0.00130661
-0.00272567
0.00155129
0.000789026
-0.00075904
0.000916535
0.000404325
6.34743e-05
0.000234086
0.000391973
0.00130604
0.00246088
-0.00272467
0.00123302
0.00123304
-0.00056592
0.000955136
0.00086262
-0.000139919
0.000611751
0.000461542
0.000347352
0.000306686
0.000477378
0.00078901
0.00155102
-0.000758599
0.00086264
0.000955023
-0.000139454
0.000735117
0.000735084
0.0001516
0.000499356
0.000438834
0.000420204
0.000314051
0.000532212
0.000404443
0.000916403
6.33371e-05
0.000461617
0.00061169
0.000347291
0.00043892
0.000499294
0.000420147
0.000321987
0.000321929
0.000535471
0.000251815
0.000572962
0.000234144
0.0003921
0.000306727
0.000477501
0.000314111
0.000532249
0.000251868
0.000572965
0.000609855
0.00107439
0.00107429
-0.00136268
-0.00131042
-0.00132515
-0.00132516
0.00470668
0.00261038
-0.00127579
-0.000428683
-0.000781477
-0.000305956
-0.00124579
-0.00113898
-0.00287011
-0.00202113
0.00244413
0.00119435
0.000302309
0.00126958
0.000528203
0.000701053
0.000282325
0.000789535
0.00261151
0.00470676
-0.00127618
-0.000777551
-0.000428502
-0.000306122
-0.0012457
-0.00113932
-0.00287022
-0.00202157
0.00205252
0.00205287
8.59872e-05
0.000166017
0.00016601
0.000132559
0.00131085
0.00120926
0.000586835
0.000789312
0.000591052
0.000806047
0.000363871
0.000800606
0.00119306
0.00244467
0.000302959
0.00120811
0.00131073
0.000587638
0.000922652
0.000923456
0.000722867
0.000616921
0.000528016
0.000788971
0.000359423
0.00081255
0.00052863
0.00127012
0.000700936
0.000590766
0.000789909
0.000805977
0.000527877
0.000617527
0.000788965
0.000386639
0.00038698
0.000817745
0.000294418
0.000797108
0.00028183
0.000789291
0.000363129
0.000800475
0.000358785
0.000812479
0.000293931
0.000796925
0.000797352
0.00333579
0.0005988
0.000598923
-0.00452767
-0.00141533
0.0034342
0.00133997
-0.00133574
-0.00167035
-0.00158887
-0.000208815
-6.54317e-05
0.000109917
0.00010956
0.00312585
0.00154881
0.00268289
-0.00196671
-0.00165187
-0.0018856
-0.00156281
0.00154842
0.00062712
0.00164376
0.000318842
0.00138773
-0.00141573
0.00134189
0.00343299
-0.00133609
-0.0016709
-0.00158887
-0.000209254
-6.57487e-05
0.000109445
0.00010897
-0.00126988
-0.00128412
0.00110625
0.00110633
0.000427407
0.00158487
0.00156843
0.00211825
-0.000826224
-0.000809206
-0.000767116
-0.000733355
0.000896777
0.000646967
0.0014743
0.000386803
0.00126019
0.00154872
0.00312512
0.00268188
-0.00196519
-0.00165137
-0.00188515
-0.00156234
0.00156827
0.00158427
0.00211781
-0.000825717
-0.000808724
-0.000766642
-0.000732915
0.00109745
0.00109733
0.00166479
0.000668955
0.000546319
0.00131811
0.000363978
0.0011688
0.000627527
0.00154773
0.0016439
0.000647158
0.000896167
0.00147445
0.000546594
0.000668619
0.00131824
0.000373372
0.000373062
0.00116422
0.000278205
0.00105872
0.000319127
0.00138742
0.000387114
0.00125979
0.000364293
0.00116869
0.000278517
0.00105852
0.00099627
0.00496079
2.66167e-05
2.68768e-05
-0.00501466
-0.000528302
0.000651395
9.32953e-05
-0.00118315
0.000951597
0.00204847
0.0010757
0.00364104
-0.00164663
-0.00124746
-0.000706828
-0.000466714
0.00112308
0.00048417
0.00208323
0.00022751
0.00174456
-0.000528346
0.000650549
9.48289e-05
-0.00118265
0.000952057
-0.0001746
-0.000174701
0.000470522
0.00047074
0.0012331
-8.64565e-05
-0.000147853
-0.000140868
-8.65192e-05
-0.000147907
-0.000140955
-0.0010745
0.0010035
0.00103871
0.00264963
-0.000367472
-0.000369928
-0.000335975
-0.000424518
0.000659355
0.000486676
0.00181593
0.000298318
0.00152223
0.0010724
0.00204811
0.00363764
-0.00164846
-0.00124866
-0.000706181
-0.000466161
0.00103785
0.00100339
0.0026471
-0.000367535
-0.000370069
-0.000336003
-0.00042451
0.00078103
0.000782417
0.0021779
0.000536494
0.000426496
0.00162283
0.000291798
0.0013954
0.000483828
0.00112355
0.00208345
0.000486226
0.000659624
0.00181581
0.000426312
0.000537297
0.00162328
0.000317913
0.000318201
0.00138092
0.000252517
0.00122466
0.000225796
0.00174369
0.000297117
0.0015201
0.000290955
0.00139488
0.000251956
0.00122404
0.00111586
0.00519869
5.73237e-05
5.70926e-05
-0.00531474
0.000367823
-0.000458864
-0.000664073
-0.00298511
0.000385534
0.000337126
0.000364237
0.0013031
0.000872476
0.000284605
0.000146127
0.000504098
0.000119598
0.00289741
-0.000318799
3.49528e-05
0.000210138
0.000185842
0.000280381
0.000232262
0.00206346
3.35359e-05
0.00167685
0.000368015
-0.000664576
-0.000456879
-0.00298614
0.000385775
0.000337459
0.000364496
0.00130137
0.000871095
0.000284406
0.000145879
-0.000292991
-0.000295052
0.00224937
0.000552133
-5.77757e-05
0.000542552
-4.30596e-05
0.000552813
-5.57191e-05
0.000540156
-4.37602e-05
-0.000893344
-0.0009086
-0.000908567
-0.000938156
7.77416e-05
9.65912e-05
0.0023019
0.000146022
0.000173825
0.00180609
8.07757e-05
0.00150265
0.000125079
0.00050356
0.00289745
-0.000321593
3.45914e-05
0.000207993
0.000186567
9.91575e-05
7.69282e-05
0.00230104
0.000156321
0.000155043
0.00206228
0.000180399
0.000137371
0.0016352
0.000105247
0.00141075
0.000232301
0.000280177
0.00206346
0.000174178
0.000144921
0.00180594
0.000137736
0.000179471
0.00163529
0.000115553
0.000114919
0.00142555
0.000111702
0.00125876
3.58143e-05
0.00167635
8.21027e-05
0.00150203
0.000106302
0.00141052
0.000112472
0.00125851
0.00114582
0.00512367
7.45549e-06
7.67522e-06
-0.00514277
3.83018e-05
0.00265908
-0.000329784
-0.00016624
2.90099e-05
-0.000198851
-9.98299e-05
-0.000563406
-0.000559411
-0.00041207
-0.000400575
0.00047061
-0.000152762
0.00264501
0.000285705
0.000214424
-0.000424042
-0.000152741
0.000192082
0.000185524
0.00215939
-6.69534e-05
0.00155851
3.77412e-05
0.00266086
-0.000168774
-0.000329266
2.83533e-05
-0.000199077
-0.000100011
-0.00056345
-0.000559441
-0.000412071
-0.000400598
9.9645e-05
0.00010054
0.000696476
0.000113773
-0.000123811
-0.000484299
0.000133074
0.000115957
-0.000121872
-0.000482969
0.000133929
0.000713716
0.000713837
0.000641376
5.68087e-05
-6.0239e-05
0.00225221
0.00010033
0.000120524
0.00182757
-1.87366e-05
0.00143121
-0.000152639
0.000470119
0.00264592
0.000285658
0.00021409
-0.000424326
-0.000153039
-6.02703e-05
5.68671e-05
0.00225235
1.8119e-05
1.81594e-05
0.0019055
0.000103847
6.41408e-05
0.00160586
1.76266e-05
0.00132021
0.000184937
0.000192138
0.00215874
0.000120285
0.000100314
0.00182715
6.40865e-05
0.00010391
0.00160574
7.55384e-05
7.55116e-05
0.00140273
7.63967e-05
0.0012075
-6.70379e-05
0.00155815
-1.89165e-05
0.00143076
1.75283e-05
0.00131997
7.63719e-05
0.00120724
0.00108073
0.00527519
2.09032e-06
2.02251e-06
-0.00527985
-0.00059904
0.000395309
0.000565771
0.000107678
-0.000481649
-0.000675018
-0.000375464
0.0026518
-8.85439e-05
7.90835e-05
0.000475208
0.000546267
-0.000373999
-0.000131595
0.00198236
-0.000105036
0.00142528
-0.000598967
0.000395174
0.000107856
0.000565675
-0.000481409
-0.000129797
-0.000129932
1.0358e-05
9.94107e-06
0.0010074
-3.11646e-05
-3.24002e-05
2.79919e-05
-3.12459e-05
-3.25463e-05
2.78729e-05
-0.000514037
-0.000345085
0.00226267
-2.08917e-05
0.000118105
0.000183173
0.000192812
-0.000300911
-0.000211441
0.00169429
-9.97669e-05
0.00131812
-0.000373914
-0.000675122
0.00265196
-8.85114e-05
7.91549e-05
0.000475324
0.000546437
-0.00034401
-0.000514792
0.00226284
-2.06147e-05
0.000118385
0.000183506
0.000193118
-0.000290615
-0.000291518
0.00179853
-0.000186955
-0.000195442
0.0014862
-9.5591e-05
0.00119587
-0.00013102
-0.000374496
0.00198207
-0.000210897
-0.0003019
0.00169413
-0.000195127
-0.000187663
0.00148612
-0.000137592
-0.000138169
0.00128792
-4.44067e-05
0.00109965
-0.000104059
0.00142512
-9.88579e-05
0.00131813
-9.4664e-05
0.00119576
-4.34858e-05
0.00109964
0.000976012
0.0053002
-4.69462e-06
-4.74442e-06
-0.00529101
0.000520968
-0.00125976
-0.000585635
-0.00126981
0.000581442
0.000663042
0.000676146
0.000608761
-0.000111792
0.000253145
-0.000127074
-0.0016187
-0.000897601
0.00165612
0.000634008
0.00075223
0.00112606
0.000990834
-0.000793179
-0.000245449
0.00141398
-0.000229895
0.00107438
0.000521006
-0.000585478
-0.00125986
-0.00126958
0.000581478
0.000663073
0.000676179
0.000608636
0.000253039
-0.000111845
-0.000127121
-0.00185349
-0.00185393
0.00169565
0.000705114
0.000368629
0.00092031
0.000459969
0.000704948
0.000368409
0.000920185
0.000459855
-0.000818096
-0.000678044
-0.000678016
-0.000721493
-0.00113514
-0.000911261
0.00155798
-0.000575182
-0.000370455
0.00125934
-0.000229806
0.00103859
-0.000897268
-0.00161885
0.0016563
0.000634036
0.000752232
0.00112602
0.00099082
-0.000910994
-0.00113562
0.00155825
-0.000663771
-0.00066408
0.00130413
-0.000351423
-0.000348986
0.00115238
-0.000202231
0.000950181
-0.000245289
-0.00079348
0.00141384
-0.000370301
-0.000575686
0.00125921
-0.000348742
-0.00035175
0.00115223
-0.000221538
-0.000221901
0.00103363
-9.69976e-05
0.000903259
-0.000229581
0.00107436
-0.000229528
0.00103881
-0.000201904
0.000950147
-9.66496e-05
0.000903361
0.000800896
-0.00776079
-0.00776128
-0.0289418
0.0158286
0.0110709
0.0110708
0.0065062
-0.00450941
-0.00288315
-0.00247495
0.00119637
0.000207827
0.000371647
0.000328072
-0.00229959
-0.00108297
0.00051788
-0.00121921
-0.000420576
0.000748939
-0.000240649
0.000703379
-0.00288254
-0.00450982
-0.00247487
0.00119623
0.000371588
0.000207739
0.000327934
-0.00237037
-0.00237101
0.000671343
-0.00150997
-0.00116221
0.000776819
-0.000865752
-0.000563793
0.000758339
-0.000288562
0.00073523
-0.00108245
-0.00229997
0.000517998
-0.00116175
-0.00151046
0.000777013
-0.000878735
-0.00087923
0.00073814
-0.000549126
-0.000503028
0.000762006
-0.000262642
0.00068847
-0.00042015
-0.00121972
0.000748903
-0.000563368
-0.000866404
0.000758367
-0.000502607
-0.000549683
0.000761921
-0.000356955
-0.000357503
0.000742457
-0.000174545
0.000697144
-0.000240156
0.000703467
-0.000288011
0.000735559
-0.000262107
0.000688519
-0.000174005
0.0006973
0.000629394
-0.00559307
-0.00559329
-0.0176782
-0.00328106
-0.00223608
-0.0025521
-0.00181322
-0.000913927
-4.39911e-05
-0.00102574
-0.000341818
0.000298926
-0.000253852
0.000430682
-0.0022358
-0.00328135
-0.00255203
-0.00184665
-0.00184701
-0.000106867
-0.00124546