/*--------------------------------*- C++ -*----------------------------------*\
| =========                 |                                                 |
| \\      /  F ield         | OpenFOAM: The Open Source CFD Toolbox           |
|  \\    /   O peration     | Version:  5.x                                   |
|   \\  /    A nd           | Web:      www.OpenFOAM.org                      |
|    \\/     M anipulation  |                                                 |
\*---------------------------------------------------------------------------*/
FoamFile
{
    version     2.0;
    format      ascii;
    class       volScalarField;
    location    "0.081";
    object      phiIB;
}
// * * * * * * * * * * * * * * * * * * * * * * * * * * * * * * * * * * * * * //

dimensions      [0 2 -1 0 0 0 0];

internalField   nonuniform List<scalar> 
1567
(
-0.000329301
-0.000329306
-0.000329315
-0.000329335
-0.000329409
-0.000329307
-0.000329313
-0.000329321
-0.000329342
-0.000329415
-0.000329315
-0.000329321
-0.000329326
-0.000329347
-0.000329415
-0.000329334
-0.000329342
-0.000329347
-0.000329368
-0.000329435
-0.000329408
-0.000329414
-0.000329415
-0.000329435
-0.000329496
-0.000656893
-0.00065689
-0.000656882
-0.000656889
-0.000656872
-0.00065689
-0.000656887
-0.00065688
-0.000656887
-0.000656868
-0.000656882
-0.00065688
-0.000656873
-0.000656879
-0.00065686
-0.000656889
-0.000656886
-0.000656879
-0.000656886
-0.000656866
-0.000656872
-0.000656869
-0.00065686
-0.000656866
-0.000656845
-0.00153937
-0.00153937
-0.00153938
-0.00153941
-0.0015395
-0.00153937
-0.00153936
-0.00153937
-0.00153941
-0.00153949
-0.00153938
-0.00153937
-0.00153938
-0.00153941
-0.00153949
-0.00153941
-0.00153941
-0.00153941
-0.00153945
-0.00153952
-0.0015395
-0.00153949
-0.00153949
-0.00153952
-0.00153959
-0.00200041
-0.00200041
-0.00200042
-0.00200048
-0.00200056
-0.00200041
-0.0020004
-0.00200041
-0.00200046
-0.00200054
-0.00200042
-0.00200041
-0.00200042
-0.00200047
-0.00200054
-0.00200047
-0.00200046
-0.00200047
-0.00200052
-0.00200058
-0.00200055
-0.00200054
-0.00200054
-0.00200058
-0.00200064
-0.00282027
-0.00282027
-0.00282031
-0.0028204
-0.00282057
-0.00282027
-0.00282026
-0.0028203
-0.00282038
-0.00282055
-0.00282031
-0.0028203
-0.00282033
-0.00282041
-0.00282056
-0.0028204
-0.00282038
-0.00282041
-0.00282048
-0.00282063
-0.00282056
-0.00282054
-0.00282056
-0.00282063
-0.00282076
-0.00334258
-0.00334258
-0.00334265
-0.00334278
-0.00334301
-0.00334258
-0.00334259
-0.00334265
-0.00334277
-0.00334299
-0.00334265
-0.00334265
-0.0033427
-0.00334282
-0.00334303
-0.00334278
-0.00334277
-0.00334282
-0.00334293
-0.00334313
-0.00334301
-0.00334299
-0.00334303
-0.00334313
-0.00334332
-0.00411085
-0.00411086
-0.00411098
-0.00411117
-0.00411153
-0.00411086
-0.00411087
-0.00411098
-0.00411117
-0.00411152
-0.00411098
-0.00411098
-0.00411107
-0.00411125
-0.00411158
-0.00411117
-0.00411117
-0.00411125
-0.00411142
-0.00411174
-0.00411153
-0.00411152
-0.00411158
-0.00411174
-0.00411203
-0.00467348
-0.00467351
-0.00467369
-0.00467397
-0.00467449
-0.00467351
-0.00467353
-0.00467371
-0.00467398
-0.00467449
-0.00467369
-0.00467371
-0.00467386
-0.00467412
-0.00467461
-0.00467397
-0.00467398
-0.00467412
-0.00467437
-0.00467484
-0.00467449
-0.00467449
-0.00467461
-0.00467484
-0.00467529
-0.00540445
-0.00540451
-0.00540478
-0.00540519
-0.00540597
-0.00540451
-0.00540456
-0.00540482
-0.00540523
-0.00540598
-0.00540478
-0.00540482
-0.00540506
-0.00540544
-0.00540616
-0.00540519
-0.00540523
-0.00540544
-0.00540581
-0.0054065
-0.00540597
-0.00540598
-0.00540616
-0.0054065
-0.00540714
-0.00599259
-0.00599268
-0.0059931
-0.00599368
-0.00599481
-0.00599269
-0.00599277
-0.00599317
-0.00599374
-0.00599484
-0.0059931
-0.00599317
-0.00599353
-0.00599408
-0.00599514
-0.00599368
-0.00599374
-0.00599408
-0.00599461
-0.00599563
-0.00599481
-0.00599485
-0.00599514
-0.00599563
-0.00599659
-0.00669448
-0.00669464
-0.00669524
-0.00669608
-0.00669771
-0.00669464
-0.00669478
-0.00669536
-0.00669618
-0.00669778
-0.00669524
-0.00669536
-0.00669588
-0.00669667
-0.00669818
-0.00669608
-0.00669618
-0.00669667
-0.00669743
-0.00669888
-0.00669771
-0.00669778
-0.00669818
-0.00669888
-0.0067002
-0.00729618
-0.00729638
-0.00729722
-0.00729836
-0.00730068
-0.00729638
-0.00729657
-0.00729739
-0.00729851
-0.00730079
-0.00729723
-0.00729739
-0.00729816
-0.00729923
-0.00730142
-0.00729836
-0.00729851
-0.00729923
-0.00730026
-0.00730237
-0.00730069
-0.00730079
-0.00730142
-0.00730237
-0.00730434
-0.00797127
-0.00797156
-0.00797272
-0.00797428
-0.0079776
-0.00797156
-0.00797185
-0.00797297
-0.0079745
-0.00797774
-0.00797272
-0.00797297
-0.00797399
-0.00797547
-0.00797851
-0.00797428
-0.0079745
-0.00797547
-0.00797688
-0.00797979
-0.0079776
-0.00797775
-0.00797852
-0.0079798
-0.0079824
-0.00857504
-0.00857529
-0.00857658
-0.00857834
-0.00858276
-0.00857529
-0.00857549
-0.0085768
-0.00857854
-0.0085829
-0.00857659
-0.0085768
-0.00857807
-0.00857977
-0.00858398
-0.00857834
-0.00857854
-0.00857977
-0.00858144
-0.00858548
-0.00858278
-0.00858291
-0.00858399
-0.00858549
-0.00858925
-0.00922035
-0.00921969
-0.00922067
-0.00922227
-0.00922803
-0.00921969
-0.00921959
-0.00922082
-0.00922249
-0.00922813
-0.00922067
-0.00922083
-0.00922201
-0.00922373
-0.00922907
-0.00922228
-0.00922249
-0.00922373
-0.00922555
-0.00923071
-0.00922804
-0.00922814
-0.00922908
-0.00923072
-0.00923527
-0.0098185
-0.009814
-0.00981246
-0.00981079
-0.00981637
-0.009814
-0.00981177
-0.00981113
-0.00981033
-0.00981612
-0.00981247
-0.00981115
-0.00981123
-0.00981107
-0.00981706
-0.00981081
-0.00981034
-0.00981107
-0.00981178
-0.00981798
-0.0098164
-0.00981615
-0.00981708
-0.009818
-0.00982401
-0.0104263
-0.0104174
-0.0104025
-0.0103963
-0.0104003
-0.0104174
-0.0104077
-0.0103969
-0.0103938
-0.0103991
-0.0104026
-0.010397
-0.0103943
-0.0103934
-0.0103997
-0.0103963
-0.0103939
-0.0103934
-0.0103933
-0.0104002
-0.0104003
-0.0103992
-0.0103997
-0.0104002
-0.010407
-0.0109268
-0.010923
-0.0109196
-0.0109103
-0.010914
-0.010923
-0.0109187
-0.0109136
-0.010905
-0.0109105
-0.0109196
-0.0109136
-0.0109064
-0.0109037
-0.0109119
-0.0109103
-0.010905
-0.0109037
-0.0109029
-0.0109132
-0.0109141
-0.0109105
-0.0109119
-0.0109133
-0.0109252
-0.0112995
-0.0113046
-0.0113102
-0.0113166
-0.0113283
-0.0113046
-0.0113083
-0.0113135
-0.0113178
-0.0113298
-0.0113103
-0.0113135
-0.0113171
-0.0113184
-0.0113344
-0.0113166
-0.0113179
-0.0113184
-0.0113231
-0.0113455
-0.0113283
-0.0113299
-0.0113345
-0.0113456
-0.011373
-0.0115602
-0.0115738
-0.0115955
-0.0116165
-0.0116514
-0.0115738
-0.0115833
-0.0116016
-0.0116211
-0.0116559
-0.0115956
-0.0116017
-0.0116168
-0.0116321
-0.0116708
-0.0116166
-0.0116212
-0.0116321
-0.011649
-0.0116894
-0.0116516
-0.0116561
-0.011671
-0.0116896
-0.0117227
-0.0115872
-0.0116526
-0.0116958
-0.0117595
-0.0118319
-0.0116525
-0.0116878
-0.0117217
-0.0117757
-0.0118438
-0.0116959
-0.0117218
-0.011754
-0.0118018
-0.0118623
-0.0117596
-0.0117758
-0.0118018
-0.0118386
-0.0118849
-0.011832
-0.011844
-0.0118624
-0.011885
-0.0119234
-0.0117581
-0.0117911
-0.0118382
-0.0118961
-0.0119902
-0.011791
-0.0118263
-0.0118584
-0.0119093
-0.011995
-0.0118384
-0.0118586
-0.0118899
-0.0119315
-0.0120076
-0.0118963
-0.0119095
-0.0119315
-0.0119664
-0.0120265
-0.0119906
-0.0119955
-0.0120078
-0.0120267
-0.0120738
-0.011516
-0.0116714
-0.0117102
-0.0118389
-0.0119699
-0.0116714
-0.0117451
-0.0117731
-0.0118711
-0.0119764
-0.0117102
-0.0117731
-0.0118138
-0.011896
-0.0119819
-0.0118389
-0.0118712
-0.011896
-0.0119345
-0.0120025
-0.01197
-0.0119766
-0.011982
-0.0120026
-0.0120612
-0.0117017
-0.0118391
-0.0118903
-0.0119697
-0.0120958
-0.0118388
-0.0119714
-0.0119423
-0.012003
-0.0121006
-0.0118906
-0.0119429
-0.0119613
-0.0120063
-0.0121036
-0.0119699
-0.0120034
-0.0120062
-0.0120387
-0.0121148
-0.0120965
-0.0121017
-0.0121041
-0.0121153
-0.0121731
-0.0113112
-0.0116598
-0.0116147
-0.0118065
-0.0119265
-0.0116597
-0.0116926
-0.0117146
-0.0118278
-0.0119379
-0.0116149
-0.0117147
-0.011746
-0.0118303
-0.0119478
-0.0118066
-0.0118278
-0.0118302
-0.01189
-0.0119785
-0.0119266
-0.0119378
-0.0119477
-0.0119784
-0.0120478
-0.00768343
-0.0114046
-0.0116321
-0.011819
-0.0120428
-0.0114052
-0.0120667
-0.0117724
-0.0119573
-0.0120628
-0.0116326
-0.0117735
-0.0118001
-0.0119288
-0.0120649
-0.0118187
-0.0119577
-0.0119284
-0.0120039
-0.0120961
-0.0120435
-0.0120644
-0.0120653
-0.0120968
-0.0121721
-0.00156197
-0.00997861
-0.0114034
-0.01164
-0.0117774
-0.00997872
-0.0107186
-0.0113746
-0.0116844
-0.0117641
-0.0114034
-0.0113749
-0.0115481
-0.0116508
-0.0118041
-0.0116393
-0.0116841
-0.0116505
-0.011746
-0.0118394
-0.0117772
-0.0117637
-0.0118037
-0.0118392
-0.0119224
-0.0125291
-0.0124262
-0.0120359
-0.0119633
-0.0120367
-0.0124257
-0.0119457
-0.0119572
-0.0119272
-0.012007
-0.0120354
-0.0119583
-0.0118874
-0.0119281
-0.0119845
-0.0119629
-0.0119275
-0.0119275
-0.0119364
-0.0120001
-0.0120371
-0.0120084
-0.0119847
-0.0120008
-0.0120549
-0.0121688
-0.0116917
-0.0114662
-0.011524
-0.0116485
-0.0116912
-0.0116035
-0.0114058
-0.0115289
-0.0115847
-0.011466
-0.0114057
-0.0114686
-0.0115158
-0.0115864
-0.0115236
-0.0115285
-0.0115156
-0.011546
-0.0115888
-0.0116471
-0.0115839
-0.0115858
-0.0115883
-0.011639
-0.0108323
-0.0110245
-0.0116076
-0.011591
-0.0117703
-0.0110246
-0.0114416
-0.0115435
-0.011637
-0.0117135
-0.0116076
-0.011544
-0.0115924
-0.0116456
-0.0116976
-0.0115909
-0.0116372
-0.0116453
-0.0116573
-0.0116905
-0.0117702
-0.0117143
-0.0116977
-0.0116909
-0.0117357
-0.0116617
-0.012106
-0.0116377
-0.0112878
-0.0112063
-0.0121056
-0.0115846
-0.0113808
-0.0112359
-0.0111332
-0.0116374
-0.0113805
-0.0112649
-0.0111532
-0.0111088
-0.0112873
-0.0112355
-0.0111531
-0.0111271
-0.0110802
-0.0112056
-0.0111326
-0.0111084
-0.0110799
-0.0110869
-0.0165581
-0.0130142
-0.0115458
-0.0112421
-0.0112603
-0.0130141
-0.0115493
-0.0113472
-0.0112236
-0.0112034
-0.0115458
-0.0113474
-0.0112907
-0.0111972
-0.0111903
-0.011242
-0.0112237
-0.011197
-0.0111722
-0.0111557
-0.0112604
-0.0112038
-0.0111904
-0.011156
-0.0111557
-0.0112938
-0.00898962
-0.0103216
-0.0102794
-0.0102435
-0.00898945
-0.00998568
-0.0102382
-0.0102696
-0.0102566
-0.0103214
-0.010238
-0.0102321
-0.0102712
-0.0102365
-0.0102792
-0.0102694
-0.0102712
-0.0102691
-0.0102458
-0.0102432
-0.0102563
-0.0102364
-0.0102456
-0.0102292
-0.0108362
-0.00988752
-0.0104401
-0.0103168
-0.010201
-0.00988742
-0.00998747
-0.0102053
-0.0102352
-0.0101802
-0.0104401
-0.0102054
-0.0101671
-0.0101846
-0.0101571
-0.0103168
-0.0102352
-0.0101846
-0.0101792
-0.010154
-0.0102011
-0.0101803
-0.0101572
-0.0101541
-0.0101439
-0.00704017
-0.00773786
-0.00842988
-0.00872814
-0.00873271
-0.00773782
-0.00812961
-0.00853297
-0.00872899
-0.00875761
-0.00842975
-0.00853293
-0.00863259
-0.00874991
-0.00875408
-0.00872801
-0.00872893
-0.00874996
-0.00877793
-0.00876564
-0.00873255
-0.00875734
-0.00875398
-0.00876549
-0.00875278
-0.00770118
-0.0075933
-0.00769095
-0.00784307
-0.00784234
-0.00759319
-0.00762561
-0.00773386
-0.00785456
-0.00785595
-0.00769075
-0.00773366
-0.00778313
-0.00786153
-0.00786496
-0.0078429
-0.0078544
-0.00786152
-0.00789509
-0.0078929
-0.00784213
-0.00785578
-0.0078649
-0.00789285
-0.00789546
-0.00571257
-0.00564883
-0.00564451
-0.00569114
-0.00568587
-0.00564871
-0.00564029
-0.00566192
-0.0056905
-0.0056929
-0.0056443
-0.00566169
-0.00566854
-0.00569752
-0.00569683
-0.00569092
-0.00569028
-0.00569745
-0.00571429
-0.00572257
-0.00568557
-0.00569258
-0.00569666
-0.00572244
-0.00573269
-0.00494355
-0.00484956
-0.0047297
-0.00467835
-0.00464519
-0.00484949
-0.00477843
-0.00469335
-0.00466929
-0.00464401
-0.00472949
-0.0046932
-0.00464625
-0.00464707
-0.00463457
-0.00467811
-0.00466911
-0.00464705
-0.0046483
-0.00463956
-0.00464479
-0.00464368
-0.00463441
-0.00463943
-0.00463607
-0.00201924
-0.00203586
-0.00204582
-0.00198924
-0.00194364
-0.00203584
-0.00204186
-0.00202627
-0.00196135
-0.00193547
-0.00204579
-0.00202625
-0.00198464
-0.00193249
-0.00192599
-0.00198926
-0.00196131
-0.0019325
-0.00192706
-0.00193045
-0.0019435
-0.00193544
-0.001926
-0.00193043
-0.00193031
-0.00132969
-0.00123622
-0.00111343
-0.00107862
-0.00104616
-0.00123625
-0.00116821
-0.00109897
-0.00107046
-0.00104397
-0.00111337
-0.00109888
-0.00106931
-0.00105488
-0.00103626
-0.00107859
-0.0010704
-0.00105493
-0.00104806
-0.00103593
-0.00104599
-0.00104377
-0.00103618
-0.0010358
-0.00103222
-0.0102389
-0.0102386
-0.0118732
-0.0152828
-0.0148178
-0.0148176
-0.0125577
-0.0146033
-0.0146031
-0.0125867
-0.017943
-0.0153403
-0.0153401
-0.0102505
-0.0117137
-0.0117132
-0.0105975
-0.00987632
-0.00959933
-0.00959879
-0.0113236
-0.0118811
-0.0118818
-0.0115582
-0.010545
-0.0107296
-0.0107303
-0.0113481
-0.0113525
-0.0113425
-0.0114008
-0.0113012
-0.0115427
-0.0114968
-0.0116114
-0.0113413
-0.0113522
-0.0114012
-0.0113019
-0.0114969
-0.0115425
-0.0116109
-0.0121275
-0.0126338
-0.0115507
-0.0122437
-0.0114963
-0.0116749
-0.0110149
-0.0126337
-0.0121271
-0.0115505
-0.0122435
-0.0116748
-0.011496
-0.0110147
-0.0147702
-0.0147693
-0.0121369
-0.0129378
-0.0123404
-0.0123408
-0.0103523
-0.011036
-0.0121237
-0.0121241
-0.0123572
-0.0119228
-0.0117588
-0.0117583
-0.012191
-0.0120288
-0.0117168
-0.0113427
-0.0120893
-0.0108471
-0.0124722
-0.012192
-0.0120298
-0.0117184
-0.0113427
-0.0120902
-0.0108478
-0.0124724
-0.0153477
-0.0159115
-0.0159114
-0.0191344
-0.0151579
-0.0173915
-0.0173914
-0.0159644
-0.0155181
-0.0140543
-0.0143373
-0.0149673
-0.0133165
-0.0176215
-0.0159644
-0.0155181
-0.0140541
-0.014337
-0.0149673
-0.0133163
-0.0176214
-0.0128039
-0.0128043
-0.0123991
-0.0131121
-0.0130448
-0.0131339
-0.0131347
-0.0119348
-0.01197
-0.0116981
-0.0125563
-0.0118458
-0.0121068
-0.0115132
-0.0119697
-0.0119358
-0.0116972
-0.0125531
-0.0121058
-0.0118454
-0.011512
-0.0130518
-0.0119952
-0.0127101
-0.0131204
-0.0127997
-0.012595
-0.0133537
-0.0130518
-0.0119971
-0.012711
-0.0131212
-0.0128002
-0.0125959
-0.0133545
-0.0153968
-0.013354
-0.0133539
-0.0118256
-0.0147629
-0.0133207
-0.0133206
-0.0122719
-0.0122715
-0.0145837
-0.013727
-0.0117774
-0.0123981
-0.0123978
-0.0144029
-0.0142283
-0.0151745
-0.0151744
-0.015052
-0.014303
-0.0143029
-0.0116164
-0.0117103
-0.0114837
-0.013859
-0.0120816
-0.0124004
-0.0119314
-0.0117101
-0.0116165
-0.0114833
-0.0138588
-0.0124004
-0.0120813
-0.011931
-0.0145417
-0.0154495
-0.0150186
-0.0143818
-0.0151118
-0.0146789
-0.0144694
-0.0145415
-0.0154495
-0.0150184
-0.0143816
-0.0151116
-0.0146787
-0.0144692
-0.00954935
-0.00954895
-0.0109607
-0.0109973
-0.0118315
-0.0118305
-0.0115241
-0.0135643
-0.0130303
-0.0130304
-0.0130565
-0.0135202
-0.0133306
-0.0133311
-0.0137313
-0.013958
-0.0137919
-0.0137981
-0.0143059
-0.0135561
-0.0137694
-0.0137316
-0.0139582
-0.0137928
-0.0137981
-0.0143073
-0.0135562
-0.0137702
-0.0124692
-0.0116841
-0.0115026
-0.0121765
-0.0122462
-0.0119963
-0.012024
-0.0124696
-0.0116831
-0.0115064
-0.0121758
-0.0122448
-0.0119962
-0.0120231
-0.0151654
-0.0128062
-0.0132738
-0.0132737
-0.0134375
-0.0134373
-0.014981
-0.0142792
-0.0127988
-0.0127989
-0.0120336
-0.0151388
-0.0125654
-0.0125671
-0.0134278
-0.0118471
-0.0118471
-0.0130873
-0.0118279
-0.0132464
-0.0132463
-0.0138925
-0.0125781
-0.0109681
-0.0134804
-0.012152
-0.0130285
-0.0135803
-0.0138923
-0.0125781
-0.0109682
-0.0134799
-0.0121521
-0.0130284
-0.0135801
-0.012935
-0.0121271
-0.0132288
-0.012862
-0.0119898
-0.0126298
-0.0128198
-0.0129348
-0.0132287
-0.0121269
-0.0128619
-0.0119897
-0.0126296
-0.0128197
-0.0118139
-0.011814
-0.0126612
-0.00998637
-0.00780947
-0.00903516
-0.00903527
-0.0110701
-0.0109055
-0.0112399
-0.0128932
-0.0116831
-0.0119039
-0.0112312
-0.0109024
-0.0110716
-0.0112417
-0.0128942
-0.0119028
-0.0116835
-0.0112315
-0.0124182
-0.0125594
-0.0122569
-0.0119085
-0.0121443
-0.0118589
-0.0120522
-0.0124184
-0.0125594
-0.0122568
-0.0119101
-0.0121443
-0.011859
-0.0120519
-0.0133414
-0.0116934
-0.0143752
-0.0115691
-0.00999109
-0.0111965
-0.0118402
-0.0133419
-0.0116919
-0.0143769
-0.0115678
-0.00999091
-0.0111955
-0.0118414
-0.0142043
-0.0121546
-0.0121542
-0.0121475
-0.0105363
-0.0130216
-0.0130214
-0.0126512
-0.0126503
-0.0135301
-0.010821
-0.0113517
-0.0119257
-0.0119283
-0.00993004
-0.00993
-0.00956566
-0.00997922
-0.00819277
-0.00920433
-0.00920425
-0.011499
-0.0114085
-0.0112366
-0.0103747
-0.0108925
-0.0112602
-0.0115524
-0.0114081
-0.0114994
-0.0112374
-0.0103738
-0.0112601
-0.010892
-0.0115522
-0.0115859
-0.0118425
-0.012536
-0.0117676
-0.0125829
-0.0119752
-0.0120689
-0.0118423
-0.0115859
-0.0125358
-0.0117675
-0.0125828
-0.0119753
-0.0120689
-0.0096116
-0.0106511
-0.00903066
-0.00837856
-0.0104029
-0.0108662
-0.00723719
-0.00961131
-0.0106499
-0.00902917
-0.00837758
-0.0104024
-0.0108663
-0.0072365
-0.0103801
-0.0103806
-0.0114744
-0.00373101
-0.0107998
-0.0108001
-0.0108976
-0.00715354
-0.00398263
-0.0039825
-0.00209604
-0.0042009
-0.00393022
-0.00393002
-0.0111086
-0.0111084
-0.00922583
-0.00901628
-0.0118387
-0.0108207
-0.0108206
-0.00882654
-0.00562833
-0.0100403
-0.0101794
-0.00695936
-0.0108084
-0.00817862
-0.00882538
-0.00562871
-0.0100411
-0.0101799
-0.00695957
-0.0108097
-0.00817909
-0.0127874
-0.01132
-0.0113043
-0.0121068
-0.0117628
-0.0113773
-0.0112587
-0.0127868
-0.01132
-0.0113046
-0.012107
-0.0117624
-0.0113786
-0.011259
-0.0116473
-0.0116472
-0.0113881
-0.0121015
-0.0118129
-0.0118129
-0.011503
-0.0123632
-0.0129108
-0.0119642
-0.0126354
-0.0121997
-0.0123963
-0.012171
-0.0123631
-0.0129107
-0.0119641
-0.0126352
-0.0121995
-0.0123962
-0.0121711
-0.00941944
-0.0103404
-0.0103417
-0.0109914
-0.00897769
-0.0107401
-0.010742
-0.0113827
-0.0118258
-0.0121374
-0.0117561
-0.0122742
-0.0120206
-0.0118802
-0.0113824
-0.0118258
-0.0121375
-0.011756
-0.0122741
-0.0120205
-0.0118804
-0.0118766
-0.0118771
-0.0116658
-0.0118534
-0.0117368
-0.0117369
-0.0113017
-0.0122486
-0.0118887
-0.0124568
-0.0119486
-0.0118435
-0.0120857
-0.0116399
-0.0122485
-0.0118884
-0.0124578
-0.0119486
-0.0118433
-0.0120849
-0.0116405
-0.00980574
-0.011183
-0.0111827
-0.00922243
-0.0113128
-0.00952045
-0.00952058
-0.0114818
-0.0114839
-0.011196
-0.0114313
-0.0119314
-0.0119327
-0.0113095
-0.0119971
-0.0114622
-0.0118373
-0.0114376
-0.0110538
-0.0118053
-0.0115116
-0.0119978
-0.011463
-0.0118379
-0.0114381
-0.0110563
-0.0118081
-0.011514
-0.00909098
-0.0111168
-0.0119734
-0.010648
-0.01093
-0.0110399
-0.00853594
-0.00909194
-0.0111165
-0.0119725
-0.0106484
-0.0109295
-0.0110398
-0.00853596
-0.0118213
-0.0103327
-0.0120432
-0.0102445
-0.0102503
-0.0116786
-0.0115747
-0.0103314
-0.0118211
-0.0120432
-0.010244
-0.0102506
-0.0116794
-0.011575
-0.00421816
-0.00421804
-0.0045495
-0.0103409
-0.01285
-0.0117769
-0.0117767
)
;

boundaryField
{
    inlet
    {
        type            fixedValue;
        value           uniform 0;
    }
    wall
    {
        type            zeroGradient;
    }
    outlet
    {
        type            fixedValue;
        value           uniform 0;
    }
    procBoundary3to1
    {
        type            processor;
        value           nonuniform List<scalar> 
320
(
-0.000329326
-0.000329332
-0.000329342
-0.000329363
-0.00032944
-0.000656907
-0.000656903
-0.000656897
-0.000656904
-0.000656889
-0.00153942
-0.00153941
-0.00153943
-0.00153947
-0.00153956
-0.00200046
-0.00200045
-0.00200048
-0.00200053
-0.00200062
-0.00282034
-0.00282034
-0.00282039
-0.00282048
-0.00282065
-0.00334266
-0.00334267
-0.00334274
-0.00334288
-0.00334312
-0.00411095
-0.00411097
-0.00411109
-0.00411129
-0.00411167
-0.0046736
-0.00467363
-0.00467382
-0.00467411
-0.00467466
-0.00540459
-0.00540466
-0.00540495
-0.00540538
-0.00540617
-0.00599276
-0.00599286
-0.0059933
-0.0059939
-0.00599506
-0.00669469
-0.00669485
-0.00669549
-0.00669635
-0.00669803
-0.00729642
-0.00729664
-0.00729752
-0.00729868
-0.00730106
-0.00797156
-0.00797188
-0.0079731
-0.00797469
-0.0079781
-0.00857538
-0.00857565
-0.008577
-0.0085788
-0.00858332
-0.00922081
-0.00922018
-0.00922132
-0.00922295
-0.00922887
-0.0098187
-0.00981456
-0.00981338
-0.00981178
-0.00981748
-0.0104265
-0.0104176
-0.0104033
-0.0103976
-0.0104022
-0.0109276
-0.0109238
-0.0109207
-0.0109117
-0.0109157
-0.0113018
-0.0113071
-0.0113136
-0.0113204
-0.0113324
-0.0115625
-0.0115763
-0.0115985
-0.0116197
-0.0116549
-0.011591
-0.0116564
-0.0117004
-0.0117643
-0.0118372
-0.0117611
-0.0117936
-0.0118422
-0.0119002
-0.0119964
-0.0115211
-0.0116771
-0.0117166
-0.0118459
-0.0119801
-0.0117076
-0.0118393
-0.0118963
-0.011974
-0.0121074
-0.0113341
-0.0116752
-0.0116251
-0.0118161
-0.0119405
-0.00762563
-0.0114158
-0.0116462
-0.0118234
-0.0120617
-0.00169557
-0.00998994
-0.0114213
-0.0116447
-0.0117961
-0.01253
-0.0124146
-0.0120425
-0.0119733
-0.0120537
-0.0121592
-0.0116999
-0.0114687
-0.0115296
-0.0116561
-0.0108277
-0.010987
-0.0116025
-0.0115967
-0.0117763
-0.0116563
-0.0121223
-0.0116312
-0.0112929
-0.0112121
-0.0164725
-0.0129716
-0.0115479
-0.0112491
-0.0112623
-0.0117821
-0.00899836
-0.0103284
-0.0102871
-0.0102529
-0.0107654
-0.00990048
-0.0104319
-0.0103209
-0.0102062
-0.00704141
-0.00774763
-0.00842908
-0.00872932
-0.00873473
-0.00769274
-0.00759414
-0.00769207
-0.00784073
-0.00784297
-0.00570745
-0.00565092
-0.005644
-0.00569145
-0.00568522
-0.00494458
-0.00485369
-0.00473243
-0.00467583
-0.00464722
-0.00201814
-0.00203825
-0.00204896
-0.00199557
-0.00194791
-0.00132905
-0.00123341
-0.00111506
-0.00108284
-0.00105128
-0.0152289
-0.0147888
-0.0103237
-0.0175949
-0.0153185
-0.014572
-0.00987499
-0.00935241
-0.0114256
-0.0105156
-0.0107489
-0.011872
-0.0113157
-0.0115474
-0.0113448
-0.0121878
-0.0114971
-0.0120837
-0.0129294
-0.0123369
-0.0147568
-0.0123578
-0.0117643
-0.0121172
-0.0120217
-0.0124679
-0.0113484
-0.0189895
-0.0172534
-0.015831
-0.0154755
-0.0175486
-0.0142862
-0.0127931
-0.0131242
-0.013038
-0.0125431
-0.0118693
-0.0118983
-0.0127934
-0.013332
-0.0130297
-0.0151245
-0.0142761
-0.014197
-0.0138304
-0.0120462
-0.011585
-0.0154403
-0.0144516
-0.014983
-0.0110087
-0.0118102
-0.00955875
-0.0130513
-0.0133238
-0.0130298
-0.0139562
-0.0137567
-0.0137791
-0.0116818
-0.0120199
-0.012181
-0.0130706
-0.0132327
-0.0118494
-0.0126018
-0.0135677
-0.0134324
-0.0120974
-0.0128015
-0.0129405
-0.0118181
-0.0090465
-0.00784871
-0.0128863
-0.0117019
-0.0110867
-0.0125439
-0.0120343
-0.0121299
-0.00999941
-0.0118293
-0.0133399
-0.00994936
-0.00925944
-0.00819158
-0.0103323
-0.010883
-0.011481
-0.0125106
-0.0120499
-0.0115831
-0.0105418
-0.00728293
-0.00967425
-0.00368887
-0.0107903
-0.0103739
-0.00219242
-0.003944
-0.00401859
-0.00564743
-0.00818879
-0.0101816
-0.0113051
-0.0112615
-0.0121027
-0.00925429
-0.00958594
-0.0111711
-0.01115
-0.00859182
-0.010874
-0.0117621
-0.0116382
-0.0102757
-0.00423453
-0.0117749
-0.0128917
)
;
    }
    procBoundary3to2
    {
        type            processor;
        value           nonuniform List<scalar> 
320
(
-0.000329326
-0.000329331
-0.000329342
-0.000329362
-0.000329439
-0.000656907
-0.000656903
-0.000656897
-0.000656904
-0.000656889
-0.00153942
-0.00153941
-0.00153943
-0.00153946
-0.00153956
-0.00200046
-0.00200045
-0.00200047
-0.00200053
-0.00200061
-0.00282034
-0.00282034
-0.00282039
-0.00282048
-0.00282065
-0.00334266
-0.00334267
-0.00334274
-0.00334288
-0.00334311
-0.00411095
-0.00411097
-0.00411109
-0.00411129
-0.00411167
-0.0046736
-0.00467363
-0.00467382
-0.00467411
-0.00467466
-0.00540459
-0.00540466
-0.00540495
-0.00540537
-0.00540617
-0.00599276
-0.00599286
-0.0059933
-0.0059939
-0.00599506
-0.00669469
-0.00669485
-0.0066955
-0.00669635
-0.00669803
-0.00729642
-0.00729664
-0.00729752
-0.00729869
-0.00730106
-0.00797156
-0.00797188
-0.00797311
-0.00797469
-0.0079781
-0.00857538
-0.00857565
-0.00857701
-0.00857881
-0.00858333
-0.00922081
-0.00922019
-0.00922133
-0.00922296
-0.00922889
-0.00981871
-0.00981457
-0.0098134
-0.0098118
-0.00981752
-0.0104265
-0.0104176
-0.0104033
-0.0103977
-0.0104022
-0.0109276
-0.0109239
-0.0109207
-0.0109117
-0.0109158
-0.0113018
-0.0113071
-0.0113137
-0.0113204
-0.0113325
-0.0115625
-0.0115763
-0.0115987
-0.0116198
-0.0116552
-0.011591
-0.0116564
-0.0117005
-0.0117644
-0.0118374
-0.0117612
-0.0117936
-0.0118426
-0.0119006
-0.011997
-0.0115211
-0.0116771
-0.0117166
-0.011846
-0.0119802
-0.0117079
-0.0118396
-0.0118971
-0.0119746
-0.0121089
-0.0113341
-0.0116753
-0.0116251
-0.0118164
-0.0119404
-0.00762581
-0.0114181
-0.0116474
-0.0118241
-0.0120636
-0.0016948
-0.00998922
-0.0114213
-0.0116447
-0.0117955
-0.0125302
-0.0124117
-0.012043
-0.0119741
-0.0120553
-0.0121597
-0.0116998
-0.011469
-0.0115295
-0.011654
-0.0108277
-0.0109866
-0.0116031
-0.0115972
-0.0117764
-0.0116563
-0.0121216
-0.0116305
-0.0112922
-0.0112108
-0.0164724
-0.0129716
-0.0115478
-0.0112488
-0.0112625
-0.0117813
-0.00899762
-0.0103276
-0.0102864
-0.010252
-0.010765
-0.00990002
-0.0104314
-0.0103204
-0.0102058
-0.00704106
-0.0077473
-0.00842861
-0.00872879
-0.00873407
-0.00769244
-0.00759386
-0.00769161
-0.00784024
-0.00784241
-0.00570722
-0.00565066
-0.00564359
-0.00569096
-0.00568463
-0.00494441
-0.00485347
-0.00473204
-0.00467538
-0.00464659
-0.00201804
-0.00203811
-0.00204878
-0.00199523
-0.00194757
-0.00132896
-0.00123333
-0.00111487
-0.00108267
-0.00105096
-0.0103231
-0.0147886
-0.0152288
-0.0145717
-0.0153181
-0.0175948
-0.0114245
-0.00935206
-0.0098751
-0.0118734
-0.010748
-0.0105174
-0.011345
-0.0115461
-0.0113147
-0.0120831
-0.0114966
-0.0121874
-0.0147552
-0.0123398
-0.0129296
-0.0121186
-0.0117654
-0.0123591
-0.0113486
-0.0124693
-0.0120228
-0.0158308
-0.0172532
-0.0189896
-0.0142859
-0.0175485
-0.0154754
-0.0130385
-0.013126
-0.0127944
-0.0118984
-0.0118677
-0.01254
-0.0130313
-0.0133344
-0.0127944
-0.0141969
-0.014276
-0.0151243
-0.0115845
-0.0120457
-0.0138301
-0.0149827
-0.0144514
-0.0154405
-0.00955809
-0.0118091
-0.0110087
-0.01303
-0.0133249
-0.0130518
-0.0137804
-0.0137586
-0.0139557
-0.0121764
-0.012021
-0.0116861
-0.0118493
-0.0132325
-0.0130705
-0.0134319
-0.0135674
-0.0126015
-0.0129403
-0.0128013
-0.0120971
-0.00784845
-0.00904609
-0.0118179
-0.0110873
-0.0117006
-0.0128845
-0.0121303
-0.0120358
-0.0125429
-0.0133391
-0.0118288
-0.00999858
-0.00819178
-0.0092599
-0.00994958
-0.011481
-0.0108821
-0.0103315
-0.0115831
-0.0120499
-0.0125102
-0.00967415
-0.00728311
-0.0105419
-0.0103743
-0.0107908
-0.00368842
-0.00401768
-0.003943
-0.00219144
-0.0101815
-0.00818857
-0.00564739
-0.0121032
-0.0112635
-0.0113049
-0.0111713
-0.00958668
-0.00925448
-0.0108745
-0.00859228
-0.0111494
-0.010276
-0.0116393
-0.0117622
-0.0128916
-0.0117751
-0.00423431
)
;
    }
}


// ************************************************************************* //
