/*--------------------------------*- C++ -*----------------------------------*\
| =========                 |                                                 |
| \\      /  F ield         | OpenFOAM: The Open Source CFD Toolbox           |
|  \\    /   O peration     | Version:  5.x                                   |
|   \\  /    A nd           | Web:      www.OpenFOAM.org                      |
|    \\/     M anipulation  |                                                 |
\*---------------------------------------------------------------------------*/
FoamFile
{
    version     2.0;
    format      ascii;
    class       volScalarField;
    location    "0.078";
    object      interFace;
}
// * * * * * * * * * * * * * * * * * * * * * * * * * * * * * * * * * * * * * //

dimensions      [0 0 0 0 0 0 0];

internalField   nonuniform List<scalar> 
1546
(
0
0
0
0
0
0
0
0
0
0
0
0
0
0
0
0
0
0
0
0
0
0
0
0
0
0
0
0
0
0
0
0
0
0
0
0
0
0
0
0
0
0
0
0
0
0
0
0
0
0
0
0
0
0
0
0
0
0
0
0
0
0
0
0
0
0
0
0
0
0
0
0
0
0
0
0
0
0
0
0
0
0
0
0
0
0
0
0
0
0
0
0
0
0
0
0
0
0
0
0
0
0
0
0
0
0
0
0
0
0
0
0
0
0
0
0
0
0
0
0
0
0
0
0
0
0
0
0
0
0
0
0
0
0
0
0
0
0
0
0
0
0
0
0
0
0
0
0
0
0
0
0
0
0
0
0
0
0
0
0
0
0
0
0
0
0
0
0
0
0
0
0
0
0
0
0
0
0
0
0
0
0
0
0
0
0
0
0
0
0
0
0
0
0
0
0
0
0
0
0
0
0
0
0
0
0
0
0
0
0
0
0
0
0
0
0
0
0
0
0
0
0
0
0
0
0
0
0
0
0
0
0
0
0
0
0
0
0
0
0
0
0
0
0
0
0
0
0
0
0
0
0
0
0
0
0
0
0
0
0
0
0
0
0
0
0
0
0
0
0
0
0
0
0
0
0
0
0
0
0
0
0
0
0
0
0
0
0
0
0
0
0
0
0
0
0
0
0
0
0
0
0
0
0
0
0
0
0
0
0
0
0
0
0
0
0
0
0
0
0
0
0
0
0
0
0
0
0
0
0
0
0
0
0
0
0
0
0
0
0
0
0
0
0
0
0
0
0
0
0
0
0
0
0
0
0
0
0
0
0
0
0
0
0
0
0
0
0
0
0
0
0
0
0
0
0
0
0
0
0
0
0
0
0
0
0
0
0
0
0
0
0
0
0
0
0
0
0
0
0
0
0
0
0
0
0
0
0
0
0
0
0
0
0
0
0
0
0
0
0
0
0
0
0
0
0
0
0
0
0
0
0
0
0
0
0
0
0
0
0
0
0
0
0
0
0
0
0
0
0
0
0
0
0
0
0
0
0
0
0
0
0
0
0
0
0
0
0
0
0
0
0
0
0
0
0
0
0
0
0
0
0
0
0
0
0
0
0
0
0
0
0
0
0
0
0
0
0
0
0
0
0
0
0
0
0
0
0
0
0
0
0
0
0
0
0
0
0
0
0
0
0
0
0
0
0
0
0
0
0
0
0
0
0
0
0
0
0
0
0
0
0
0
0
0
0
0
0
0
0
0
0
0
0
0
0
0
0
0
0
0
0
0
0
0
0
0
0
0
0
0
0
0
0
0
0
0
0
0
0
0
0
0
0
0
0
0
0
0
0
0
0
0
0
0
0
0
0
0
0
0
0
0
0
0
0
0
0
0
0
0
0
0
0
0
0
0
0
0
0
0
0
0
0
0
0
0
0
0
0
0
0
0
0
0
0
0
0
0
0
0
0
0
0
0
0
0
0
0
0
0
0
0
0
0
0
0
0
0
0
0
0
0
0
0
0
0
0
0
0
0.740392
0
0
0
0
0
0
0
0
0
0
0
0
0
0
0
0
0
0
0
0
0
0
0
0
0.286278
0.734758
0
0
0
0
0
0
0
0
0
0
0
0
0
0
0
0
0
0
0
0
0
0
0
0.549293
0
0
0
0
0
0
0
0
0
0
0
0
0
0
0
0
0
0
0
0
0
0
0
0
0.914326
0
0
0
0
0
0
0
0
0
0
0
0
0
0
0
0
0
0
0
0
0
0
0
0
0.37417
0.815888
0
0
0
0
0
0
0
0
0
0
0
0
0
0
0
0
0
0
0
0
0
0
0
0.365184
0.896543
0
0
0
0
0
0
0
0
0
0
0
0
0
0
0
0
0
0
0
0
0
0
0
0
0
0
0
0
0
0
0
0
0
0
0
0
0
0
0
0
0
0
0
0
0
0
0
0
0
0
0
0
0
0
0
0
0
0
0
0
0
0
0
0
0
0
0
0
0
0
0
0
0
0
0
0
0
0
0
0
0
0
0
0
0
0
0
0
0
0
0
0
0
0
0
0
0
0
0
0
0
0
0
0
0
0
0
0
0
0
0
0
0
0
0
0
0
0
0
0
0
0
0
0
0
0
0
0
0
0
0
0
0
0
0
0
0
0
0
0
0
0
0
0
0
0
0
0
0
0
0
0
0
0
0
0
0
0
0
0
0
0
0
0
0
0
0
0
0
0
0
0
0
0
0
0
0
0
0
0
0
0
0
0
0
0
0
0
0
0
0
0
0
0
0
0
0
0
0
0
0
0
0
0.643236
0.105395
0.374461
0.3002
0.569265
0.0314242
0.30049
0.634249
0.0964084
0.365474
0.82906
0
0.560284
0.82935
0
0.977106
0
0
0
0
0
0
0.735142
0.914519
0.488468
0.757534
0.219693
0.488758
0.818422
0.280584
0.549713
0
0
0.842749
0
0
0.935059
0
0
0
0
0
0
0.935618
0
0
0
0
0
0.450478
0.360838
0.605056
0.605152
0.649924
0.40561
0.405706
0
0.544417
0.896349
0
0
0
0
0
0.544804
0
0
0
0
0
0.540069
0.629614
0.873928
0.694647
0.674482
0.739515
0.495201
0.540166
0.629904
0.874121
0.694841
0.674675
0.739612
0.495395
0.555407
0.0175692
0.286698
0.416309
0.685437
0.1476
0.416728
0.548027
0.325333
0.325473
0.458389
0.370222
0.503138
0.503278
0.637597
0.594182
0.414903
0.727098
0.459792
0.771987
0.592708
0.637737
0.594462
0.415183
0.727518
0.459932
0.772267
0.592988
0.629758
0.898679
0.963616
0.963713
0.76417
0.764267
0.829204
0.727307
0.683892
0.684032
0.996227
0.549502
0.861697
0.861837
0.295852
0.14118
0.141276
0.206213
0.186048
0.250984
0.251081
0.385444
0.410052
0.230771
0.474988
0.275639
0.519856
0.340576
0.385541
0.410245
0.230965
0.475279
0.275736
0.52005
0.34077
0.192349
0.192489
0.237238
0.149074
0.0594356
0.104185
0.104325
0
0.465489
0.734618
0
0
0.595519
0.848509
0
0.466048
0
0.848789
0
0.596079
0
0.461198
0.281918
0.326807
0.238643
0.328145
0.373034
0.193754
0.461477
0.282198
0.326947
0.238783
0.328564
0.373313
0.194034
0.475133
0.49974
0.499837
0.744054
0.365328
0.609545
0.609642
0.550907
0.551047
0.416517
0.328353
0.597273
0.462743
0.462883
0.1009
0.0112606
0.0761955
0.0762923
0.121063
0.0560318
0.0561286
0
0.553403
0.815694
0
0
0.479432
0.748498
0
0.55379
0
0.748595
0
0.47982
0
0.190492
0.280036
0.345068
0.165787
0.324904
0.210655
0.145624
0.190588
0.280326
0.345261
0.165981
0.325097
0.210752
0.145817
0.76847
0.589285
0.654221
0.813338
0.699089
0.923143
0.878275
0.589575
0.768954
0.654608
0.813725
0.69938
0.92353
0.878759
0
0.471683
0.740812
0.332576
0.601705
0.0638668
0.332995
0.10573
0.0623184
0.0624582
0.0160921
0.107207
0.0608413
0.0609811
0.1953
0.331167
0.151888
0.284801
0.196777
0.32969
0.150411
0.19544
0.331447
0.152168
0.285221
0.196917
0.32997
0.150691
0.640408
0.819551
0.86444
0.507355
0.552244
0.776276
0.731387
0.640828
0.82025
0.864999
0.507915
0.552664
0.776835
0.732086
0.28018
0.549102
0.434756
0.434853
0.414592
0.414689
0.300344
0.28501
0.420877
0.421017
0.55393
0.286487
0.4194
0.41954
0
0
0
0
0
0
0
0.125557
0.150166
0.150263
0.0359174
0.195034
0.0806887
0.0807855
0.215148
0.419038
0.239758
0.304693
0.284626
0.349561
0.17028
0.215245
0.419232
0.239951
0.304983
0.284723
0.349754
0.170474
0.459269
0.703486
0.5243
0.504137
0.748354
0.72819
0.683322
0.459656
0.524591
0.70397
0.504427
0.748741
0.728577
0.683806
0.108616
0.108756
0.153505
0.244623
0.154985
0.199734
0.199874
0
0.946876
0
0
0
0.511787
0.854417
0
0.947435
0
0.854697
0
0.512346
0
0.510378
0.464012
0.508901
0.732932
0.68952
0.734409
0.688043
0.510798
0.464571
0.509321
0.733492
0.69022
0.734969
0.688742
0.377465
0.198186
0.243075
0.334193
0.423694
0.468583
0.289304
0.377745
0.198465
0.243215
0.334333
0.424114
0.468863
0.289584
0.304837
0.508727
0.508823
0.573758
0.374314
0.439249
0.439346
0.467174
0.467314
0.332784
0.423902
0.692823
0.558293
0.558432
0
0
0
0
0
0
0
0.728334
0.972551
0.613989
0.593825
0.838042
0.817879
0.952388
0.600367
0.73328
0.59889
0.823061
0.958929
0.824538
0.957452
0.264464
0.264561
0.309332
0.468451
0.378811
0.423583
0.423679
0.600088
0.733141
0.598611
0.822642
0.958649
0.824119
0.957172
0
0
0
0
0
0.864913
0
0
0
0
0
0
0.8653
0
0.533336
0.354056
0.398924
0.558042
0.647587
0.692455
0.513174
0.53353
0.354249
0.399021
0.558139
0.647877
0.692648
0.513368
0.777456
0.598271
0.483926
0.822324
0.528794
0.752847
0.707979
0.598561
0.77794
0.484313
0.822712
0.529084
0.753234
0.708463
0.728431
0.972745
0.614183
0.594019
0.838333
0.818169
0.952581
0
0
0
0
0
0.860474
0
0.380562
0.516432
0.516572
0.290924
0.561321
0.335673
0.335813
0.470132
0.785281
0.606002
0.559633
0.650891
0.604522
0.425243
0.623025
0.623121
0.488612
0.647731
0.916652
0.782143
0.78224
0.470271
0.785561
0.606281
0.560052
0.651031
0.604801
0.425522
0.556676
0.735818
0.780707
0.602905
0.647794
0.871825
0.826936
0.557095
0.736517
0.781266
0.603464
0.648213
0.872384
0.827635
0.559841
0.874991
0.87513
0.828761
0.7406
0.694231
0.694371
)
;

boundaryField
{
    inlet
    {
        type            calculated;
        value           uniform 0;
    }
    wall
    {
        type            calculated;
        value           uniform 0;
    }
    outlet
    {
        type            calculated;
        value           uniform 0;
    }
    procBoundary1to0
    {
        type            processor;
        value           uniform 0;
    }
    procBoundary1to3
    {
        type            processor;
        value           uniform 0;
    }
}


// ************************************************************************* //
