/*--------------------------------*- C++ -*----------------------------------*\
| =========                 |                                                 |
| \\      /  F ield         | OpenFOAM: The Open Source CFD Toolbox           |
|  \\    /   O peration     | Version:  5.x                                   |
|   \\  /    A nd           | Web:      www.OpenFOAM.org                      |
|    \\/     M anipulation  |                                                 |
\*---------------------------------------------------------------------------*/
FoamFile
{
    version     2.0;
    format      ascii;
    class       volScalarField;
    location    "0.078";
    object      phiIB;
}
// * * * * * * * * * * * * * * * * * * * * * * * * * * * * * * * * * * * * * //

dimensions      [0 2 -1 0 0 0 0];

internalField   nonuniform List<scalar> 
1546
(
-0.000300769
-0.000300776
-0.000300797
-0.000300817
-0.000300899
-0.000300624
-0.000300628
-0.000300647
-0.000300666
-0.000300745
-0.000300605
-0.000300609
-0.000300627
-0.000300646
-0.000300724
-0.000300549
-0.000300552
-0.000300568
-0.000300586
-0.000300662
-0.000300553
-0.000300558
-0.000300573
-0.000300591
-0.000300665
-0.000610334
-0.000610333
-0.000610337
-0.000610353
-0.000610352
-0.00061029
-0.000610289
-0.000610293
-0.000610307
-0.000610305
-0.000610251
-0.000610249
-0.000610252
-0.000610266
-0.000610263
-0.000610222
-0.00061022
-0.00061022
-0.000610233
-0.000610228
-0.00061021
-0.000610206
-0.000610205
-0.000610216
-0.00061021
-0.0014001
-0.0014001
-0.00140014
-0.00140018
-0.00140028
-0.00139991
-0.00139992
-0.00139995
-0.00139999
-0.00140009
-0.00139983
-0.00139983
-0.00139986
-0.0013999
-0.0014
-0.00139974
-0.00139974
-0.00139976
-0.0013998
-0.00139989
-0.00139971
-0.00139971
-0.00139973
-0.00139977
-0.00139986
-0.00183583
-0.00183584
-0.00183588
-0.00183594
-0.00183603
-0.00183566
-0.00183566
-0.0018357
-0.00183576
-0.00183585
-0.00183555
-0.00183555
-0.00183558
-0.00183564
-0.00183573
-0.00183544
-0.00183544
-0.00183547
-0.00183553
-0.00183561
-0.0018354
-0.00183539
-0.00183542
-0.00183548
-0.00183556
-0.00257252
-0.00257253
-0.0025726
-0.0025727
-0.00257287
-0.00257223
-0.00257223
-0.0025723
-0.0025724
-0.00257257
-0.00257207
-0.00257207
-0.00257214
-0.00257223
-0.00257241
-0.0025719
-0.00257191
-0.00257197
-0.00257206
-0.00257223
-0.00257184
-0.00257184
-0.0025719
-0.00257199
-0.00257216
-0.00305811
-0.00305813
-0.00305823
-0.00305837
-0.00305861
-0.00305775
-0.00305776
-0.00305786
-0.003058
-0.00305823
-0.00305753
-0.00305755
-0.00305764
-0.00305778
-0.00305801
-0.00305732
-0.00305733
-0.00305742
-0.00305756
-0.00305779
-0.00305723
-0.00305725
-0.00305733
-0.00305747
-0.00305769
-0.00375335
-0.00375338
-0.00375353
-0.00375374
-0.00375409
-0.00375283
-0.00375286
-0.00375301
-0.00375321
-0.00375357
-0.00375254
-0.00375256
-0.00375271
-0.00375291
-0.00375326
-0.00375225
-0.00375227
-0.00375241
-0.00375261
-0.00375296
-0.00375214
-0.00375216
-0.00375229
-0.00375249
-0.00375283
-0.00427201
-0.00427207
-0.00427229
-0.00427258
-0.00427309
-0.00427131
-0.00427136
-0.00427158
-0.00427187
-0.00427238
-0.00427091
-0.00427095
-0.00427117
-0.00427146
-0.00427197
-0.00427052
-0.00427056
-0.00427077
-0.00427106
-0.00427156
-0.00427037
-0.00427041
-0.00427062
-0.0042709
-0.00427139
-0.00493597
-0.00493606
-0.00493638
-0.00493679
-0.00493751
-0.00493501
-0.00493509
-0.00493541
-0.00493582
-0.00493655
-0.00493446
-0.00493453
-0.00493485
-0.00493526
-0.00493599
-0.00493395
-0.00493401
-0.00493431
-0.00493472
-0.00493545
-0.00493376
-0.00493382
-0.00493411
-0.00493452
-0.00493523
-0.00547698
-0.0054771
-0.00547757
-0.00547815
-0.0054792
-0.00547563
-0.00547575
-0.00547621
-0.0054768
-0.00547786
-0.00547487
-0.00547499
-0.00547545
-0.00547604
-0.0054771
-0.00547417
-0.00547427
-0.00547472
-0.0054753
-0.00547636
-0.00547392
-0.00547401
-0.00547445
-0.00547503
-0.00547608
-0.00611581
-0.00611599
-0.00611664
-0.00611745
-0.0061189
-0.00611397
-0.00611414
-0.00611479
-0.00611562
-0.0061171
-0.00611294
-0.00611311
-0.00611375
-0.00611459
-0.00611608
-0.00611199
-0.00611215
-0.00611278
-0.00611361
-0.00611511
-0.00611165
-0.0061118
-0.00611243
-0.00611326
-0.00611474
-0.00666925
-0.00666949
-0.0066704
-0.00667152
-0.00667361
-0.00666665
-0.00666689
-0.0066678
-0.00666895
-0.00667108
-0.00666524
-0.00666547
-0.00666639
-0.00666755
-0.00666971
-0.00666397
-0.00666419
-0.00666507
-0.00666623
-0.0066684
-0.00666355
-0.00666375
-0.00666462
-0.00666577
-0.00666793
-0.0072855
-0.00728583
-0.00728705
-0.00728855
-0.0072914
-0.00728194
-0.00728228
-0.00728354
-0.0072851
-0.00728804
-0.00728003
-0.00728036
-0.00728163
-0.00728324
-0.00728624
-0.00727827
-0.00727862
-0.00727989
-0.00728151
-0.00728454
-0.00727765
-0.007278
-0.00727929
-0.00728091
-0.00728394
-0.00784011
-0.00784047
-0.00784206
-0.00784395
-0.00784789
-0.00783525
-0.00783563
-0.00783724
-0.00783924
-0.00784331
-0.00783276
-0.00783317
-0.00783484
-0.00783689
-0.00784107
-0.00783053
-0.00783093
-0.00783258
-0.00783468
-0.00783888
-0.00782983
-0.00783023
-0.00783184
-0.00783397
-0.00783819
-0.00843025
-0.00843063
-0.00843251
-0.00843465
-0.00843965
-0.00842395
-0.00842443
-0.00842643
-0.00842868
-0.00843392
-0.00842135
-0.00842177
-0.00842379
-0.00842603
-0.00843138
-0.00841825
-0.00841901
-0.0084211
-0.00842334
-0.00842879
-0.00841692
-0.00841792
-0.00842032
-0.0084225
-0.00842803
-0.00896787
-0.00896811
-0.00897008
-0.00897187
-0.00897817
-0.00896121
-0.00896138
-0.00896309
-0.00896472
-0.00897095
-0.00895963
-0.00895989
-0.00896158
-0.00896266
-0.00896871
-0.00895837
-0.00895753
-0.00895899
-0.00896015
-0.00896591
-0.00896051
-0.00895772
-0.00895814
-0.00895963
-0.00896529
-0.00950814
-0.00950786
-0.00950963
-0.00951063
-0.00951817
-0.0095017
-0.00950128
-0.00950227
-0.00950254
-0.00950953
-0.00950446
-0.0095021
-0.00950222
-0.00950193
-0.00950799
-0.00951766
-0.00950951
-0.00950102
-0.00949978
-0.00950539
-0.00952718
-0.00951717
-0.00950307
-0.00949957
-0.00950526
-0.00997598
-0.0099739
-0.00997557
-0.00997702
-0.00999091
-0.00997109
-0.00996691
-0.00996633
-0.00996564
-0.00997538
-0.00998155
-0.00997443
-0.00996771
-0.0099659
-0.00997343
-0.00998634
-0.00998045
-0.00997308
-0.00996492
-0.00997082
-0.00999047
-0.00998528
-0.00997896
-0.0099682
-0.00997215
-0.0103751
-0.0103746
-0.0103796
-0.0103909
-0.0104173
-0.0103641
-0.010362
-0.0103617
-0.0103672
-0.0103886
-0.0103598
-0.0103593
-0.0103602
-0.0103603
-0.0103763
-0.010352
-0.0103541
-0.0103571
-0.0103589
-0.0103695
-0.0103462
-0.0103503
-0.0103558
-0.0103592
-0.0103686
-0.0106707
-0.0106748
-0.0106915
-0.0107128
-0.0107468
-0.0106387
-0.0106422
-0.010652
-0.0106699
-0.0107105
-0.0106164
-0.0106222
-0.0106361
-0.0106499
-0.010687
-0.0105919
-0.0106008
-0.0106191
-0.0106371
-0.0106674
-0.0105777
-0.0105891
-0.0106108
-0.010631
-0.0106607
-0.0108609
-0.0108737
-0.0108979
-0.0109253
-0.0109669
-0.0107928
-0.0108096
-0.0108367
-0.0108746
-0.0109224
-0.0107304
-0.0107563
-0.0107903
-0.0108342
-0.0108926
-0.0106776
-0.0107144
-0.0107522
-0.0108029
-0.0108636
-0.0106119
-0.0106746
-0.0107234
-0.0107834
-0.0108484
-0.0110036
-0.0110111
-0.0110294
-0.0110513
-0.0111003
-0.0109087
-0.0109217
-0.01095
-0.0109878
-0.0110476
-0.0108531
-0.0108682
-0.0109027
-0.0109469
-0.0110227
-0.0108028
-0.0108261
-0.0108645
-0.0109147
-0.0110006
-0.0107977
-0.0107992
-0.010846
-0.0108984
-0.0109901
-0.0110181
-0.011025
-0.0110409
-0.0110662
-0.0111302
-0.0108671
-0.0109062
-0.010943
-0.0109896
-0.0110611
-0.0107313
-0.0108027
-0.0108556
-0.01094
-0.0110329
-0.0106507
-0.0107509
-0.0107977
-0.0108984
-0.0110118
-0.0104512
-0.0106478
-0.0107236
-0.010857
-0.0110034
-0.0111163
-0.0111089
-0.0111182
-0.0111259
-0.0111921
-0.0109768
-0.0109914
-0.0110132
-0.0110411
-0.0111213
-0.0109296
-0.0109412
-0.0109745
-0.0110097
-0.0111103
-0.0108371
-0.0109087
-0.0109374
-0.0109843
-0.0110971
-0.0108604
-0.0108334
-0.0109238
-0.0109671
-0.011104
-0.0109885
-0.0109963
-0.0110116
-0.011042
-0.0111223
-0.0108094
-0.0108451
-0.0108702
-0.0109346
-0.0110356
-0.0105981
-0.0107377
-0.0107819
-0.0108673
-0.0110019
-0.0105178
-0.0107075
-0.0107308
-0.0108358
-0.0109794
-0.00960308
-0.0105133
-0.0105885
-0.0107987
-0.0109705
-0.0110599
-0.0110626
-0.0110865
-0.0110987
-0.0111966
-0.0107915
-0.0108795
-0.0109174
-0.0109714
-0.0110929
-0.0106595
-0.0107941
-0.0108387
-0.0109139
-0.0110773
-0.0105221
-0.0109259
-0.0107884
-0.0108712
-0.0110467
-0.0105772
-0.0105176
-0.0106518
-0.0107791
-0.0110449
-0.0108697
-0.0108531
-0.010883
-0.0109099
-0.0110079
-0.0105678
-0.0106097
-0.0106887
-0.0107703
-0.0109019
-0.01038
-0.0104803
-0.010593
-0.0106858
-0.0108712
-0.0102767
-0.0102388
-0.0104711
-0.0105986
-0.0108312
-0.00915355
-0.00978478
-0.0103671
-0.0105535
-0.0108453
-0.0110324
-0.0109801
-0.0110064
-0.0109822
-0.0110873
-0.0108983
-0.010813
-0.0108602
-0.0108635
-0.0109754
-0.0108586
-0.0108594
-0.0108619
-0.0108578
-0.0109976
-0.0110245
-0.0107578
-0.0108498
-0.0108045
-0.010963
-0.0110211
-0.010858
-0.0108519
-0.010886
-0.0110158
-0.0106625
-0.0106084
-0.010639
-0.0106444
-0.0107186
-0.010528
-0.0105129
-0.0105262
-0.0105729
-0.0106365
-0.0104385
-0.0104312
-0.0104833
-0.0105227
-0.010628
-0.0102022
-0.0102943
-0.0104205
-0.0105018
-0.0105894
-0.0113165
-0.0107272
-0.0104213
-0.0105115
-0.0106364
-0.0107093
-0.0106704
-0.0107064
-0.0106862
-0.010787
-0.0105384
-0.0105344
-0.0105909
-0.0106071
-0.0106818
-0.0102319
-0.010427
-0.0105008
-0.0105887
-0.0107005
-0.00993436
-0.0102033
-0.0104192
-0.0105276
-0.0106563
-0.00918638
-0.0100883
-0.0102134
-0.0105283
-0.0106923
-0.0101684
-0.010143
-0.0101648
-0.0101704
-0.0102315
-0.0102293
-0.0101971
-0.010156
-0.0101797
-0.0101667
-0.0101308
-0.0101097
-0.0101287
-0.0101513
-0.0101588
-0.00986866
-0.0100494
-0.0101055
-0.0101891
-0.0101302
-0.00803667
-0.00967569
-0.010133
-0.0102121
-0.0101551
-0.0103764
-0.010342
-0.0103289
-0.0102927
-0.0103173
-0.0103465
-0.0103232
-0.0103356
-0.0102852
-0.0102917
-0.0106296
-0.0104666
-0.0103919
-0.010333
-0.0103255
-0.0104324
-0.0103228
-0.0104639
-0.0103183
-0.0103344
-0.0125233
-0.0108336
-0.010624
-0.0103376
-0.0103616
-0.00954275
-0.00956194
-0.00956155
-0.0095598
-0.00956593
-0.00961793
-0.00953711
-0.00958003
-0.00956315
-0.00955949
-0.00947892
-0.0096105
-0.00956293
-0.00957517
-0.00955931
-0.00973921
-0.00944548
-0.00961118
-0.00953258
-0.00955624
-0.00992363
-0.00972179
-0.00948164
-0.0096064
-0.00953657
-0.0095703
-0.00959144
-0.00958935
-0.00957254
-0.0095821
-0.00963455
-0.00963611
-0.00961392
-0.00959187
-0.00957378
-0.00958448
-0.0096802
-0.00960463
-0.00961196
-0.00958943
-0.00984529
-0.00982049
-0.00967691
-0.00963293
-0.00958906
-0.00947519
-0.00984596
-0.00957829
-0.00962975
-0.00956478
-0.00839188
-0.00841883
-0.00842751
-0.00840874
-0.00840581
-0.00839792
-0.00841494
-0.00844054
-0.00843089
-0.00841016
-0.00828628
-0.00838993
-0.00839648
-0.00843702
-0.00842798
-0.00839323
-0.00836262
-0.00839127
-0.00841386
-0.00841989
-0.00813993
-0.00839022
-0.00828692
-0.00839378
-0.00839168
-0.00761888
-0.00763702
-0.00764216
-0.00764855
-0.00766082
-0.00765204
-0.00765591
-0.00763671
-0.00764833
-0.00765056
-0.00763583
-0.00765823
-0.00762475
-0.00763644
-0.00764425
-0.00779944
-0.0077501
-0.00766036
-0.00765731
-0.00763955
-0.00777591
-0.00780004
-0.00763741
-0.00765351
-0.00762244
-0.00565442
-0.0056467
-0.00564518
-0.00566008
-0.00567895
-0.00567931
-0.00567128
-0.00565977
-0.00565727
-0.00566183
-0.00569773
-0.00570201
-0.00567701
-0.00565948
-0.00564722
-0.00578003
-0.00575124
-0.00570549
-0.00567312
-0.00565085
-0.00577513
-0.00577853
-0.00570013
-0.0056793
-0.00565842
-0.00457953
-0.00457215
-0.00455946
-0.00455138
-0.00455539
-0.00461803
-0.00460497
-0.00457948
-0.00456264
-0.00455339
-0.00470808
-0.00466818
-0.00460956
-0.00457975
-0.00456201
-0.00485479
-0.00478777
-0.00467109
-0.00460779
-0.00457711
-0.00492523
-0.00485504
-0.00471135
-0.00462117
-0.0045857
-0.00201083
-0.0020051
-0.00199466
-0.0019888
-0.00199194
-0.00206156
-0.00201896
-0.00199456
-0.00198641
-0.00198921
-0.00213496
-0.00210799
-0.00203655
-0.00199439
-0.0019948
-0.00213774
-0.00214112
-0.00210925
-0.00202054
-0.00200595
-0.00211599
-0.00213668
-0.00213466
-0.00206189
-0.00201109
-0.00104681
-0.00104238
-0.00104005
-0.00103623
-0.00104179
-0.00107757
-0.00106741
-0.00105094
-0.00104361
-0.00103783
-0.00111553
-0.00109337
-0.00106458
-0.00105034
-0.00104126
-0.00123325
-0.00116064
-0.00109518
-0.00106833
-0.00104509
-0.0013252
-0.00123235
-0.00111676
-0.00107749
-0.00104892
-0.00997711
-0.00757796
-0.00803277
-0.0132501
-0.010906
-0.0114009
-0.013304
-0.0109546
-0.0117842
-0.0125622
-0.00998654
-0.00938545
-0.0107993
-0.00997912
-0.00971239
-0.0101494
-0.00992809
-0.00929359
-0.00929999
-0.00930156
-0.00925459
-0.00942325
-0.00906019
-0.00917636
-0.00838242
-0.00959981
-0.00674681
-0.00841391
-0.0104834
-0.0115258
-0.011288
-0.0100274
-0.0102263
-0.00953406
-0.0100268
-0.0101873
-0.0108064
-0.0107409
-0.0104564
-0.0104875
-0.010052
-0.0102551
-0.0101829
-0.0107882
-0.0101892
-0.0102542
-0.0104792
-0.0100483
-0.0104568
-0.010849
-0.0112935
-0.0104184
-0.0104164
-0.0100197
-0.0110505
-0.0110559
-0.0104063
-0.0111496
-0.0108344
-0.00998376
-0.00997149
-0.0109195
-0.0106093
-0.0103949
-0.011163
-0.0104224
-0.010652
-0.00993947
-0.0109211
-0.00998169
-0.0111245
-0.0109868
-0.00974975
-0.0111402
-0.0107488
-0.0108234
-0.0112653
-0.011127
-0.0109893
-0.00973527
-0.0111344
-0.0107523
-0.0108157
-0.0112726
-0.0104969
-0.0101876
-0.0109729
-0.0117683
-0.0109554
-0.011917
-0.0117344
-0.0102645
-0.0113881
-0.0113785
-0.0116558
-0.0110749
-0.0109579
-0.0109704
-0.0112175
-0.0109402
-0.0115633
-0.0103296
-0.0112955
-0.00967201
-0.0120038
-0.0112138
-0.0109289
-0.0115454
-0.01032
-0.011289
-0.00966927
-0.0120023
-0.011163
-0.010205
-0.0103816
-0.0103503
-0.0108115
-0.0108231
-0.0111648
-0.0118155
-0.011063
-0.0110533
-0.00952848
-0.0114272
-0.0107377
-0.0107334
-0.0114766
-0.0119015
-0.0119128
-0.0118812
-0.0121181
-0.0117545
-0.0117657
-0.0117319
-0.0123271
-0.0120422
-0.0115391
-0.0121186
-0.011217
-0.011999
-0.0117389
-0.0123549
-0.0120539
-0.0115363
-0.0121248
-0.0112174
-0.012009
-0.0120316
-0.0120187
-0.0119461
-0.0124356
-0.012001
-0.0122683
-0.0122552
-0.0107523
-0.0122023
-0.01086
-0.0108194
-0.0107067
-0.0119962
-0.0109831
-0.0107442
-0.0121849
-0.0110018
-0.0109827
-0.0107036
-0.0119642
-0.01081
-0.0114685
-0.0125822
-0.0121586
-0.0125485
-0.0126183
-0.0124056
-0.0127256
-0.0114565
-0.0125595
-0.0121504
-0.0125377
-0.0125789
-0.0123851
-0.0126988
-0.011957
-0.0114191
-0.011431
-0.0104784
-0.0126341
-0.0111898
-0.0111324
-0.0115832
-0.0115744
-0.0123985
-0.0129623
-0.0109999
-0.0115204
-0.0115031
-0.0111979
-0.0105903
-0.0116104
-0.0116208
-0.011875
-0.0108438
-0.0108543
-0.0100378
-0.00923391
-0.00967293
-0.0105881
-0.0104796
-0.0111668
-0.0105515
-0.0100249
-0.00921016
-0.00986434
-0.0105694
-0.0104443
-0.0112011
-0.010573
-0.0119532
-0.0115063
-0.0129815
-0.0120222
-0.0112005
-0.0122317
-0.0113911
-0.0119521
-0.0115483
-0.0129846
-0.0120397
-0.0112189
-0.0122164
-0.0114063
-0.0110304
-0.0111164
-0.0113484
-0.0109148
-0.0112293
-0.0103755
-0.0105606
-0.0111204
-0.0110559
-0.0113477
-0.0109496
-0.0112023
-0.0103883
-0.0105723
-0.00919407
-0.00519379
-0.00914403
-0.0088219
-0.010191
-0.00722614
-0.00882573
-0.012481
-0.0109847
-0.0109779
-0.0115661
-0.0117949
-0.0120444
-0.0120339
-0.0131854
-0.0107358
-0.0125047
-0.0135964
-0.0135022
-0.0127024
-0.0129178
-0.0131762
-0.0107092
-0.012497
-0.0135586
-0.0135287
-0.0126779
-0.0128982
-0.0117301
-0.0104449
-0.0101025
-0.0113904
-0.0112714
-0.0109706
-0.0112143
-0.011733
-0.0104312
-0.0101129
-0.0113651
-0.0112552
-0.0109684
-0.0112023
-0.0122356
-0.0105549
-0.011483
-0.0114855
-0.0113675
-0.0113438
-0.0128745
-0.0138511
-0.0117026
-0.0116921
-0.0111698
-0.012507
-0.0119218
-0.01191
-0.0106066
-0.0109498
-0.010752
-0.0106632
-0.0106412
-0.0107386
-0.0106639
-0.00963859
-0.00728322
-0.00734545
-0.00926517
-0.00774644
-0.00943629
-0.00945909
-0.0100472
-0.00905453
-0.00689411
-0.00799933
-0.00736927
-0.00876252
-0.0101793
-0.0100575
-0.00908232
-0.00689127
-0.00805598
-0.00740911
-0.00884642
-0.0102085
-0.0110678
-0.0108243
-0.0111024
-0.0111507
-0.0106812
-0.0103513
-0.0103591
-0.0110678
-0.011125
-0.0108459
-0.0111406
-0.0106836
-0.0103714
-0.0103974
-0.00838717
-0.00839008
-0.0092157
-0.00681636
-0.00194833
-0.003747
-0.00375952
-0.010471
-0.00934489
-0.00978582
-0.00998233
-0.0103783
-0.0108448
-0.0101825
-0.0104651
-0.00932361
-0.0102662
-0.0101827
-0.0103738
-0.010823
-0.00997321
-0.0118635
-0.0116028
-0.011438
-0.0107075
-0.0105658
-0.0104916
-0.0109878
-0.0118525
-0.0115955
-0.0114207
-0.0107132
-0.0105535
-0.0104788
-0.0109764
-0.00982232
-0.0109106
-0.0104651
-0.00814798
-0.00984384
-0.0102288
-0.00725867
-0.00981695
-0.0109212
-0.0105461
-0.00811212
-0.00986489
-0.0102258
-0.00726084
-0.00866891
-0.0094521
-0.00942624
-0.00996257
-0.00732299
-0.0101291
-0.0101771
-0.0108158
-0.0107974
-0.00974076
-0.00866659
-0.0100067
-0.009975
-0.00998683
-0.0103274
-0.00993427
-0.010039
-0.0103
-0.0102497
-0.0102589
-0.0102948
-0.0105937
-0.0103193
-0.0108991
-0.0107075
-0.0104688
-0.0105073
-0.0104335
-0.0112368
-0.0108318
-0.0115878
-0.0107066
-0.0106379
-0.0108721
-0.0104745
-0.00683532
-0.00687937
-0.007311
-0.00832548
-0.00700848
-0.0074756
-0.00750131
-0.0112411
-0.0108356
-0.0115943
-0.0107224
-0.0106388
-0.0108836
-0.0104751
-0.00999898
-0.010179
-0.0101034
-0.0104603
-0.01047
-0.00918032
-0.00957105
-0.00998506
-0.010175
-0.00994239
-0.00954317
-0.0104564
-0.00917848
-0.0104632
-0.00878341
-0.00616442
-0.00681499
-0.0082728
-0.00921663
-0.0097166
-0.00760833
-0.00882683
-0.00617662
-0.00680121
-0.00828569
-0.00919761
-0.0097359
-0.00762375
-0.0097487
-0.00917839
-0.010344
-0.00998963
-0.0100162
-0.00974393
-0.00946974
-0.00917236
-0.00976318
-0.0103609
-0.00998098
-0.0100434
-0.00976547
-0.00946776
-0.0106016
-0.0103223
-0.0108897
-0.0106718
-0.0105115
-0.0105347
-0.0104309
-0.010849
-0.00994935
-0.010592
-0.00874575
-0.00935633
-0.00782377
-0.0087389
-0.00489501
-0.00658305
-0.00656697
-0.00355479
-0.00759902
-0.00510605
-0.00511814
-0.00649651
-0.00918574
-0.00842453
-0.00843161
-0.00872299
-0.00866367
-0.00562051
-0.00897292
-0.00899886
-0.00767961
-0.00845818
-0.0101697
-0.00950939
-0.00950348
-0.00650046
-0.00917313
-0.00841484
-0.00843409
-0.00874069
-0.00866515
-0.00560122
-0.0103824
-0.0101629
-0.0103072
-0.00980616
-0.00960989
-0.0101972
-0.0101552
-0.0103894
-0.0101555
-0.0103323
-0.00980834
-0.00959414
-0.0101706
-0.010153
-0.00762924
-0.00971697
-0.0097035
-0.00965102
-0.00971134
-0.00934726
-0.00934905
)
;

boundaryField
{
    inlet
    {
        type            fixedValue;
        value           uniform 0;
    }
    wall
    {
        type            zeroGradient;
    }
    outlet
    {
        type            fixedValue;
        value           uniform 0;
    }
    procBoundary1to0
    {
        type            processor;
        value           nonuniform List<scalar> 
320
(
-0.000300779
-0.000300637
-0.000300617
-0.000300564
-0.000300568
-0.000610344
-0.000610301
-0.000610262
-0.000610233
-0.00061022
-0.00140012
-0.00139994
-0.00139986
-0.00139977
-0.00139974
-0.00183586
-0.00183569
-0.00183558
-0.00183547
-0.00183543
-0.00257255
-0.00257226
-0.0025721
-0.00257195
-0.00257188
-0.00305815
-0.00305779
-0.00305758
-0.00305737
-0.00305729
-0.00375339
-0.00375288
-0.00375259
-0.00375231
-0.0037522
-0.00427206
-0.00427137
-0.00427097
-0.0042706
-0.00427045
-0.00493602
-0.00493508
-0.00493453
-0.00493403
-0.00493385
-0.00547703
-0.00547571
-0.00547496
-0.00547428
-0.00547403
-0.00611587
-0.00611405
-0.00611303
-0.00611211
-0.00611179
-0.00666931
-0.00666675
-0.00666536
-0.00666413
-0.00666372
-0.00728556
-0.00728205
-0.00728016
-0.00727845
-0.00727786
-0.00784019
-0.00783539
-0.00783294
-0.00783077
-0.00783011
-0.00843032
-0.00842411
-0.00842156
-0.00841858
-0.00841728
-0.00896801
-0.00896149
-0.00895989
-0.00895865
-0.00896075
-0.00950825
-0.00950192
-0.00950461
-0.00951784
-0.0095274
-0.00997628
-0.0099715
-0.00998203
-0.00998707
-0.00999136
-0.0103754
-0.0103649
-0.0103607
-0.0103534
-0.0103478
-0.0106711
-0.0106396
-0.0106177
-0.0105936
-0.0105798
-0.0108609
-0.0107937
-0.0107318
-0.0106798
-0.0106145
-0.0110039
-0.0109099
-0.0108549
-0.0108054
-0.010801
-0.0110179
-0.0108682
-0.0107327
-0.0106534
-0.0104532
-0.0111166
-0.0109785
-0.0109323
-0.0108408
-0.0108656
-0.0109879
-0.0108106
-0.010599
-0.0105217
-0.00959961
-0.0110596
-0.0107932
-0.0106608
-0.0105279
-0.0105844
-0.0108686
-0.0105688
-0.010383
-0.0102823
-0.00915612
-0.0110326
-0.0108997
-0.0108602
-0.0110301
-0.0110133
-0.0106609
-0.0105287
-0.0104367
-0.0102024
-0.0113188
-0.0107084
-0.010538
-0.0102315
-0.00992884
-0.00917881
-0.0101662
-0.0102286
-0.0101297
-0.00986467
-0.00804891
-0.0103739
-0.0103459
-0.0106294
-0.0104314
-0.01252
-0.00954016
-0.00961203
-0.0094788
-0.00973197
-0.00993388
-0.00956423
-0.00963319
-0.0095817
-0.00984468
-0.00948758
-0.00839109
-0.00839309
-0.00828414
-0.00838234
-0.00814066
-0.00761372
-0.00765069
-0.00762911
-0.00779708
-0.00777147
-0.00565158
-0.00567494
-0.00569538
-0.00577317
-0.00577292
-0.00457556
-0.0046178
-0.00470501
-0.00484976
-0.00492095
-0.00200618
-0.00205442
-0.00213324
-0.00213467
-0.00211515
-0.00104109
-0.00107074
-0.00110869
-0.00123321
-0.00132502
-0.00754667
-0.0113945
-0.0132368
-0.0117783
-0.0107974
-0.00999169
-0.0101422
-0.00929944
-0.00926287
-0.00903356
-0.00667392
-0.00837578
-0.0115346
-0.00955083
-0.0100295
-0.0108068
-0.0100529
-0.0104579
-0.0104168
-0.0110484
-0.0112899
-0.0111536
-0.0109147
-0.00999301
-0.0109855
-0.0112633
-0.0111355
-0.0101906
-0.0119258
-0.0117673
-0.011677
-0.0109757
-0.011391
-0.0115637
-0.0120014
-0.0103326
-0.0118763
-0.0117518
-0.0118949
-0.0120341
-0.0119913
-0.011533
-0.0120382
-0.0122725
-0.0120068
-0.0122024
-0.0119928
-0.0108193
-0.0126177
-0.0127262
-0.0125796
-0.0116018
-0.0108368
-0.0105834
-0.00923266
-0.0111729
-0.0105909
-0.0115112
-0.0113859
-0.0120098
-0.0113477
-0.0105613
-0.0110322
-0.00518627
-0.00722185
-0.00881823
-0.0115707
-0.0120485
-0.0109891
-0.0125138
-0.0129195
-0.0135904
-0.0104419
-0.011211
-0.0113895
-0.00925222
-0.00942653
-0.00726423
-0.00688756
-0.0101732
-0.00799292
-0.010825
-0.0103642
-0.0110728
-0.00837968
-0.00370879
-0.00193294
-0.00934839
-0.0108345
-0.00998189
-0.0116001
-0.010984
-0.0105634
-0.00984793
-0.00725999
-0.0109131
-0.00680007
-0.00743933
-0.00695328
-0.0101785
-0.00917055
-0.0104599
-0.0091924
-0.00760057
-0.00614042
-0.0103432
-0.00946651
-0.00975426
-0.00995804
-0.00782551
-0.00874312
-0.00355209
-0.00509404
-0.00657144
-0.00841919
-0.00562135
-0.00843801
-0.0101633
-0.0101603
-0.00981291
)
;
    }
    procBoundary1to3
    {
        type            processor;
        value           nonuniform List<scalar> 
320
(
-0.000300535
-0.000300539
-0.000300553
-0.00030057
-0.000300642
-0.000610197
-0.000610194
-0.000610192
-0.000610203
-0.000610194
-0.00139968
-0.00139967
-0.00139969
-0.00139973
-0.00139981
-0.00183536
-0.00183535
-0.00183538
-0.00183543
-0.00183551
-0.00257178
-0.00257179
-0.00257184
-0.00257193
-0.00257209
-0.00305717
-0.00305718
-0.00305726
-0.00305739
-0.00305761
-0.00375206
-0.00375208
-0.0037522
-0.00375239
-0.00375273
-0.00427028
-0.00427031
-0.00427051
-0.00427078
-0.00427127
-0.00493364
-0.0049337
-0.00493398
-0.00493437
-0.00493507
-0.00547377
-0.00547386
-0.00547428
-0.00547485
-0.00547587
-0.00611148
-0.00611162
-0.00611222
-0.00611303
-0.00611448
-0.00666333
-0.00666352
-0.00666435
-0.00666549
-0.0066676
-0.0072774
-0.00727772
-0.00727896
-0.00728055
-0.00728352
-0.00782949
-0.00782987
-0.00783142
-0.00783351
-0.00783766
-0.00841641
-0.00841739
-0.00841968
-0.00842184
-0.00842723
-0.0089602
-0.00895718
-0.00895727
-0.00895865
-0.00896415
-0.00952684
-0.00951682
-0.0095023
-0.00949833
-0.00950354
-0.00998932
-0.00998406
-0.00997766
-0.00996671
-0.0099704
-0.0103439
-0.0103479
-0.0103527
-0.0103558
-0.0103649
-0.0105749
-0.0105861
-0.0106076
-0.0106276
-0.0106572
-0.0106077
-0.0106702
-0.0107182
-0.0107782
-0.0108429
-0.0107933
-0.0107947
-0.0108409
-0.010893
-0.0109836
-0.0104459
-0.0106417
-0.0107157
-0.0108485
-0.0109921
-0.0108539
-0.0108277
-0.010915
-0.0109596
-0.0110925
-0.00959221
-0.0104995
-0.0105765
-0.0107871
-0.0109538
-0.00994483
-0.010524
-0.0106367
-0.0107695
-0.0110262
-0.00520719
-0.00933012
-0.0103502
-0.0105381
-0.0108228
-0.0101805
-0.0121273
-0.0108447
-0.010873
-0.0109925
-0.0115193
-0.0107864
-0.0104075
-0.0104996
-0.0106177
-0.00906748
-0.0101703
-0.0101939
-0.0105192
-0.0106728
-0.00760469
-0.00920857
-0.0101026
-0.0102127
-0.010135
-0.0117891
-0.0111529
-0.0105993
-0.0103278
-0.0103473
-0.0101337
-0.00971345
-0.00945588
-0.00959462
-0.00951594
-0.0094868
-0.00983572
-0.00957168
-0.00962226
-0.00954961
-0.00814312
-0.00838208
-0.00828459
-0.00839076
-0.00838607
-0.00777462
-0.00780045
-0.00763424
-0.00765568
-0.00761918
-0.00577871
-0.00577772
-0.0057035
-0.00568244
-0.00565995
-0.0049229
-0.00485289
-0.00471172
-0.00462628
-0.00458559
-0.00211667
-0.00213524
-0.00213415
-0.00205715
-0.00200815
-0.00132605
-0.00123348
-0.00111102
-0.00107257
-0.00104499
-0.0114056
-0.0133143
-0.0080186
-0.0108036
-0.0099766
-0.0125636
-0.00931651
-0.0092568
-0.00993317
-0.00680325
-0.00842524
-0.00919181
-0.00952996
-0.0100095
-0.0112903
-0.0100536
-0.0104417
-0.0101912
-0.0104206
-0.0110576
-0.0112974
-0.01096
-0.00997365
-0.0104203
-0.0109932
-0.0112764
-0.0111385
-0.0119074
-0.0117332
-0.0109379
-0.011652
-0.010963
-0.011376
-0.0115414
-0.0120201
-0.0103334
-0.0118875
-0.0117689
-0.011916
-0.0120521
-0.0120145
-0.0115419
-0.0120078
-0.0122448
-0.0119926
-0.012005
-0.0107906
-0.0110021
-0.0125919
-0.0126891
-0.0125644
-0.0116243
-0.0108516
-0.010594
-0.0111939
-0.0105528
-0.00988617
-0.0113517
-0.0105795
-0.011061
-0.0115334
-0.0113924
-0.0120426
-0.00722358
-0.00884778
-0.00915575
-0.0115589
-0.0120253
-0.0109639
-0.0124634
-0.0128892
-0.0135664
-0.0104425
-0.0112199
-0.0113619
-0.00927511
-0.00946093
-0.00735619
-0.00688177
-0.0102017
-0.00806743
-0.0108499
-0.0104409
-0.0110426
-0.00838223
-0.00375297
-0.00194863
-0.0108476
-0.0099672
-0.0102577
-0.0115841
-0.0109959
-0.0105837
-0.00984492
-0.00727835
-0.0109058
-0.00691115
-0.00753898
-0.00705871
-0.00919096
-0.0104682
-0.00995069
-0.0103627
-0.00948853
-0.00976735
-0.0092202
-0.00763001
-0.00620284
-0.00782605
-0.00873273
-0.0105767
-0.0035466
-0.0051043
-0.00657481
-0.00842904
-0.00558401
-0.00842098
-0.0101747
-0.0101468
-0.00979545
)
;
    }
}


// ************************************************************************* //
