/*--------------------------------*- C++ -*----------------------------------*\
| =========                 |                                                 |
| \\      /  F ield         | OpenFOAM: The Open Source CFD Toolbox           |
|  \\    /   O peration     | Version:  5.x                                   |
|   \\  /    A nd           | Web:      www.OpenFOAM.org                      |
|    \\/     M anipulation  |                                                 |
\*---------------------------------------------------------------------------*/
FoamFile
{
    version     2.0;
    format      ascii;
    class       volScalarField;
    location    "0.06";
    object      p;
}
// * * * * * * * * * * * * * * * * * * * * * * * * * * * * * * * * * * * * * //

dimensions      [0 2 -2 0 0 0 0];

internalField   nonuniform List<scalar> 
160
(
1.21192e-07
1.41375e-07
1.45969e-07
1.44465e-07
3.76914e-07
4.3807e-07
4.47761e-07
4.45049e-07
6.18875e-07
7.34207e-07
7.41269e-07
7.31138e-07
8.45879e-07
1.03494e-06
1.02141e-06
9.88304e-07
1.10619e-06
1.3951e-06
1.32637e-06
1.2073e-06
1.30797e-06
1.23541e-06
1.27095e-06
1.3613e-06
2.21531e-06
3.10676e-06
2.6058e-06
1.74585e-06
2.69521e-06
1.56462e-06
1.93798e-06
1.66569e-06
4.23167e-06
2.85412e-06
1.8082e-06
1.61749e-06
3.43296e-06
3.25364e-06
2.50244e-06
2.03653e-06
1.41375e-07
1.89713e-07
1.8815e-07
1.83412e-07
4.3807e-07
6.09909e-07
5.86589e-07
5.72702e-07
7.34207e-07
1.17102e-06
1.0694e-06
1.00829e-06
1.03494e-06
2.09412e-06
1.72576e-06
1.52067e-06
1.3951e-06
3.80727e-06
2.81645e-06
2.16442e-06
1.23541e-06
7.31518e-06
4.69387e-06
3.03829e-06
3.10676e-06
2.45931e-05
1.35943e-05
4.6036e-06
1.56462e-06
7.47154e-06
4.00984e-06
2.94238e-06
2.85412e-06
-2.19232e-05
-8.96012e-06
-6.49217e-07
3.25364e-06
-8.42296e-06
-3.41345e-06
-3.28446e-07
1.45969e-07
1.8815e-07
1.91218e-07
1.8841e-07
4.47761e-07
5.86589e-07
5.87443e-07
5.79172e-07
7.41269e-07
1.0694e-06
1.04031e-06
9.98054e-07
1.02141e-06
1.72576e-06
1.58086e-06
1.43752e-06
1.32637e-06
2.81645e-06
2.40586e-06
1.90151e-06
1.27095e-06
4.69387e-06
3.60279e-06
2.36884e-06
2.6058e-06
1.35943e-05
9.77471e-06
3.41969e-06
1.93798e-06
4.00984e-06
3.04447e-06
2.18468e-06
1.8082e-06
-8.96012e-06
-5.02931e-06
7.20171e-08
2.50244e-06
-3.41345e-06
-1.97861e-06
4.16836e-07
1.44465e-07
1.83412e-07
1.8841e-07
1.93605e-07
4.45049e-07
5.72702e-07
5.79172e-07
5.96749e-07
7.31138e-07
1.00829e-06
9.98054e-07
1.014e-06
9.88304e-07
1.52067e-06
1.43752e-06
1.44378e-06
1.2073e-06
2.16442e-06
1.90151e-06
1.87662e-06
1.3613e-06
3.03829e-06
2.36884e-06
2.29847e-06
1.74585e-06
4.6036e-06
3.41969e-06
2.66217e-06
1.66569e-06
2.94238e-06
2.18468e-06
2.22199e-06
1.61749e-06
-6.49217e-07
7.20171e-08
1.43901e-06
2.03653e-06
-3.28446e-07
4.16836e-07
8.80216e-07
)
;

boundaryField
{
    inlet
    {
        type            zeroGradient;
    }
    outlet
    {
        type            totalPressure;
        rho             rho;
        psi             none;
        gamma           1;
        p0              uniform 0;
        value           nonuniform List<scalar> 
16
(
-2.54986e-13
-1.18663e-13
-9.4008e-14
-1.2965e-13
-1.18663e-13
0
0
-9.25307e-15
-9.4008e-14
0
0
-6.73662e-16
-1.2965e-13
-9.25307e-15
-6.73662e-16
-3.22886e-16
)
;
    }
    walls
    {
        type            zeroGradient;
    }
    procBoundary0to1
    {
        type            processor;
        value           nonuniform List<scalar> 
16
(
2.49349e-06
2.12616e-06
1.71131e-06
1.9382e-06
2.12616e-06
-7.96914e-07
1.52202e-07
6.60417e-07
1.71131e-06
1.52202e-07
1.05892e-07
1.02808e-06
1.9382e-06
6.60417e-07
1.02808e-06
9.82343e-07
)
;
    }
}


// ************************************************************************* //
