/*--------------------------------*- C++ -*----------------------------------*\
| =========                 |                                                 |
| \\      /  F ield         | OpenFOAM: The Open Source CFD Toolbox           |
|  \\    /   O peration     | Version:  5.x                                   |
|   \\  /    A nd           | Web:      www.OpenFOAM.org                      |
|    \\/     M anipulation  |                                                 |
\*---------------------------------------------------------------------------*/
FoamFile
{
    version     2.0;
    format      ascii;
    class       surfaceScalarField;
    location    "0.06";
    object      phi;
}
// * * * * * * * * * * * * * * * * * * * * * * * * * * * * * * * * * * * * * //

dimensions      [0 3 -1 0 0 0 0];

internalField   nonuniform List<scalar> 
384
(
-5.31182e-13
4.78434e-12
-5.31182e-13
-1.83756e-13
2.86145e-12
-1.02487e-12
1.26181e-13
2.60935e-12
-9.50452e-13
3.3986e-12
-8.55633e-13
-1.64021e-12
5.78913e-12
-1.64021e-12
-5.17086e-13
2.67429e-12
-3.62186e-12
3.86953e-13
2.62579e-12
-3.22922e-12
4.2432e-12
-2.85844e-12
-3.5553e-12
7.72004e-12
-3.5553e-12
-8.28221e-13
2.02353e-12
-9.17458e-12
1.29679e-12
2.47917e-12
-7.66658e-12
6.06281e-12
-6.26155e-12
-6.36224e-12
1.07144e-11
-6.36224e-12
-9.74397e-13
9.00084e-13
-2.19147e-11
2.87077e-12
2.45506e-12
-1.69554e-11
9.37025e-12
-1.1964e-11
-1.19146e-11
1.56325e-11
-1.19146e-11
-1.04041e-12
-1.39206e-12
-5.3699e-11
7.3458e-12
1.58087e-12
-3.89499e-11
1.5176e-11
-2.31173e-11
-1.70152e-11
1.75116e-11
-1.70152e-11
-9.43521e-13
-3.78852e-13
-1.37208e-10
1.2205e-11
3.30844e-12
-9.09625e-11
2.37473e-11
-4.1024e-11
-3.66282e-11
3.02015e-11
-3.66282e-11
3.27464e-12
1.87543e-11
-3.70258e-10
3.42451e-11
2.16841e-11
-2.33634e-10
4.12649e-11
-6.62993e-11
-1.99846e-11
1.20399e-11
-1.99846e-11
1.06751e-12
-4.49874e-11
-5.13372e-10
2.69675e-11
-3.63919e-12
-3.01833e-10
4.42703e-11
-7.82432e-11
2.58896e-12
2.67651e-11
2.58896e-12
2.27961e-13
-1.10964e-10
-6.9249e-11
1.72066e-11
-2.72058e-11
-1.30701e-10
2.08755e-11
-1.81268e-11
3.91407e-11
3.91407e-11
4.36392e-12
5.22957e-10
-2.08522e-11
2.9952e-10
7.86429e-11
-1.02487e-12
2.86145e-12
-1.83756e-13
-2.23762e-13
-2.34216e-12
-2.23762e-13
2.52931e-13
-1.71036e-12
-2.74726e-13
-6.6717e-14
-3.42744e-13
-3.62186e-12
2.67429e-12
-5.17086e-13
-6.33975e-13
-8.31795e-12
-6.33975e-13
8.7852e-13
-5.61738e-12
-8.34704e-13
-1.73949e-12
-9.98034e-13
-9.17458e-12
2.02353e-12
-8.28221e-13
-8.43699e-13
-2.49797e-11
-8.43699e-13
3.29229e-12
-1.6121e-11
-1.29897e-12
-5.27547e-12
-1.71851e-12
-2.19147e-11
9.00084e-13
-9.74397e-13
-2.58929e-13
-6.82913e-11
-2.58929e-13
9.81002e-12
-4.16887e-11
-1.45666e-12
-1.14687e-11
-2.21717e-12
-5.3699e-11
-1.39206e-12
-1.04041e-12
3.73369e-12
-1.83157e-10
3.73369e-12
2.97987e-11
-1.05971e-10
-7.32891e-13
-2.08315e-11
-2.42758e-12
-1.37208e-10
-3.78852e-13
-9.43521e-13
2.45329e-11
-5.06638e-10
2.45329e-11
8.58919e-11
-2.64697e-10
6.40472e-12
-2.56165e-11
-1.16991e-12
-3.70258e-10
1.87543e-11
3.27464e-12
1.0323e-10
-1.45361e-09
1.0323e-10
2.67864e-10
-6.93191e-10
3.02262e-11
2.1012e-11
2.57483e-12
-5.13372e-10
-4.49874e-11
1.06751e-12
1.44394e-10
-2.76915e-09
1.44394e-10
4.05924e-10
-1.29711e-09
4.05586e-11
9.75873e-11
9.0381e-12
-6.9249e-11
-1.10964e-10
2.27961e-13
-6.47709e-11
-2.7781e-09
-6.47709e-11
1.07615e-10
-1.52973e-09
-7.04741e-11
5.82399e-11
-5.68993e-12
5.22957e-10
4.36392e-12
-1.56086e-10
-1.56086e-10
-4.05491e-10
-4.88526e-11
-1.36869e-11
-9.50452e-13
2.60935e-12
1.26181e-13
-2.74726e-13
-1.71036e-12
2.52931e-13
1.85016e-13
-1.71022e-12
1.85016e-13
-1.6789e-13
-5.69795e-14
-3.22922e-12
2.62579e-12
3.86953e-13
-8.34704e-13
-5.61738e-12
8.7852e-13
6.78419e-13
-4.73646e-12
6.78419e-13
-1.05667e-12
-7.47765e-14
-7.66658e-12
2.47917e-12
1.29679e-12
-1.29897e-12
-1.6121e-11
3.29229e-12
2.59774e-12
-1.25299e-11
2.59774e-12
-2.65768e-12
3.74173e-13
-1.69554e-11
2.45506e-12
2.87077e-12
-1.45666e-12
-4.16887e-11
9.81002e-12
7.76946e-12
-3.09821e-11
7.76946e-12
-4.55104e-12
1.67462e-12
-3.89499e-11
1.58087e-12
7.3458e-12
-7.32891e-13
-1.05971e-10
2.97987e-11
2.36292e-11
-7.97063e-11
2.36292e-11
-5.98642e-12
5.77363e-12
-9.09625e-11
3.30844e-12
1.2205e-11
6.40472e-12
-2.64697e-10
8.58919e-11
6.23117e-11
-1.9152e-10
6.23117e-11
-1.44043e-12
1.39225e-11
-2.33634e-10
2.16841e-11
3.42451e-11
3.02262e-11
-6.93191e-10
2.67864e-10
1.93334e-10
-5.17737e-10
1.93334e-10
3.06729e-11
3.12528e-11
-3.01833e-10
-3.63919e-12
2.69675e-11
4.05586e-11
-1.29711e-09
4.05924e-10
2.58925e-10
-9.54469e-10
2.58925e-10
6.71339e-11
3.93496e-11
-1.30701e-10
-2.72058e-11
1.72066e-11
-7.04741e-11
-1.52973e-09
1.07615e-10
1.80144e-10
-1.45571e-09
1.80144e-10
-1.87846e-12
1.11687e-11
2.9952e-10
-2.08522e-11
-4.88526e-11
-4.05491e-10
-2.451e-10
-2.451e-10
-5.05986e-11
-8.55633e-13
3.3986e-12
-3.42744e-13
-6.6717e-14
-5.69795e-14
-1.6789e-13
5.40927e-14
-2.85844e-12
4.2432e-12
-9.98034e-13
-1.73949e-12
-7.47765e-14
-1.05667e-12
-2.1623e-13
-6.26155e-12
6.06281e-12
-1.71851e-12
-5.27547e-12
3.74173e-13
-2.65768e-12
-3.20588e-13
-1.1964e-11
9.37025e-12
-2.21717e-12
-1.14687e-11
1.67462e-12
-4.55104e-12
6.2925e-13
-2.31173e-11
1.5176e-11
-2.42758e-12
-2.08315e-11
5.77363e-12
-5.98642e-12
4.54785e-12
-4.1024e-11
2.37473e-11
-1.16991e-12
-2.56165e-11
1.39225e-11
-1.44043e-12
1.59724e-11
-6.62993e-11
4.12649e-11
2.57483e-12
2.1012e-11
3.12528e-11
3.06729e-11
4.1399e-11
-7.82432e-11
4.42703e-11
9.0381e-12
9.75873e-11
3.93496e-11
6.71339e-11
7.04908e-11
-1.81268e-11
2.08755e-11
-5.68993e-12
5.82399e-11
1.11687e-11
-1.87846e-12
6.43984e-11
7.86429e-11
-1.36869e-11
-5.05986e-11
)
;

boundaryField
{
    inlet
    {
        type            calculated;
        value           nonuniform 0();
    }
    outlet
    {
        type            calculated;
        value           nonuniform List<scalar> 
16
(
-4.4471e-12
-2.9186e-12
-2.62776e-12
-3.13248e-12
-2.9186e-12
7.39948e-13
5.57931e-13
-3.99806e-13
-2.62776e-12
5.57931e-13
7.90724e-13
-1.1366e-13
-3.13248e-12
-3.99806e-13
-1.1366e-13
-1.79767e-13
)
;
    }
    walls
    {
        type            calculated;
        value           nonuniform List<scalar> 
160
(
3.62561e-13
1.13782e-12
2.58984e-12
4.86507e-12
9.45555e-12
1.60756e-11
3.02832e-11
2.90654e-11
-9.95159e-12
-4.06162e-11
7.34595e-13
2.6859e-12
7.09827e-12
1.76504e-11
4.51169e-11
1.20123e-10
3.11222e-10
5.56062e-10
1.37586e-10
-5.45304e-10
6.58927e-13
2.30874e-12
5.68818e-12
1.31344e-11
3.14379e-11
7.60864e-11
1.84288e-10
3.01257e-10
1.37289e-10
-2.90081e-10
5.80403e-13
1.9954e-12
4.54313e-12
9.14035e-12
1.86566e-11
3.47184e-11
5.68731e-11
7.93697e-11
3.05007e-11
-7.57481e-11
1.35295e-13
4.05385e-13
1.19562e-12
2.38695e-12
6.00081e-12
9.93928e-12
2.61537e-11
2.28357e-11
2.82275e-11
-1.60215e-11
2.06554e-13
6.90889e-13
2.28524e-12
6.25641e-12
1.84718e-11
5.08229e-11
1.52361e-10
2.42068e-10
1.34526e-10
-2.27581e-10
1.80798e-13
6.43946e-13
2.10605e-12
5.77101e-12
1.68634e-11
4.26733e-11
1.32543e-10
1.92152e-10
2.32298e-10
-1.63402e-10
5.84629e-15
6.03863e-14
4.26348e-13
1.19972e-12
3.81432e-12
8.21019e-12
1.85396e-11
2.48037e-11
1.4215e-11
-3.02046e-11
3.62561e-13
1.13782e-12
2.58984e-12
4.86507e-12
9.45555e-12
1.60756e-11
3.02832e-11
2.90654e-11
-9.95159e-12
-4.06162e-11
7.34595e-13
2.6859e-12
7.09827e-12
1.76504e-11
4.51169e-11
1.20123e-10
3.11222e-10
5.56062e-10
1.37586e-10
-5.45304e-10
6.58927e-13
2.30874e-12
5.68818e-12
1.31344e-11
3.14379e-11
7.60864e-11
1.84288e-10
3.01257e-10
1.37289e-10
-2.90081e-10
5.80403e-13
1.9954e-12
4.54313e-12
9.14035e-12
1.86566e-11
3.47184e-11
5.68731e-11
7.93697e-11
3.05007e-11
-7.57481e-11
1.35295e-13
4.05385e-13
1.19562e-12
2.38695e-12
6.00081e-12
9.93928e-12
2.61537e-11
2.28357e-11
2.82275e-11
-1.60215e-11
2.06554e-13
6.90889e-13
2.28524e-12
6.25641e-12
1.84718e-11
5.08229e-11
1.52361e-10
2.42068e-10
1.34526e-10
-2.27581e-10
1.80798e-13
6.43946e-13
2.10605e-12
5.77101e-12
1.68634e-11
4.26733e-11
1.32543e-10
1.92152e-10
2.32298e-10
-1.63402e-10
5.84629e-15
6.03863e-14
4.26348e-13
1.19972e-12
3.81432e-12
8.21019e-12
1.85396e-11
2.48037e-11
1.4215e-11
-3.02046e-11
)
;
    }
    procBoundary0to1
    {
        type            processor;
        value           nonuniform List<scalar> 
16
(
2.97161e-11
-5.38397e-11
-1.14284e-11
1.31499e-11
-5.38397e-11
-1.42002e-09
-9.31949e-10
-2.73403e-11
-1.14284e-11
-9.31949e-10
-1.06321e-09
-4.66651e-11
1.31499e-11
-2.73403e-11
-4.66651e-11
2.36104e-11
)
;
    }
}


// ************************************************************************* //
