/*--------------------------------*- C++ -*----------------------------------*\
| =========                 |                                                 |
| \\      /  F ield         | OpenFOAM: The Open Source CFD Toolbox           |
|  \\    /   O peration     | Version:  5.x                                   |
|   \\  /    A nd           | Web:      www.OpenFOAM.org                      |
|    \\/     M anipulation  |                                                 |
\*---------------------------------------------------------------------------*/
FoamFile
{
    version     2.0;
    format      ascii;
    class       volVectorField;
    location    "0.06";
    object      U;
}
// * * * * * * * * * * * * * * * * * * * * * * * * * * * * * * * * * * * * * //

dimensions      [0 1 -1 0 0 0 0];

internalField   nonuniform List<vector> 
160
(
(-6.20017e-08 7.08898e-07 -6.20017e-08)
(-7.64469e-08 4.64213e-07 -1.27111e-07)
(9.55544e-09 4.1849e-07 -1.13784e-07)
(2.19447e-08 4.98892e-07 -1.00568e-07)
(-1.94128e-07 7.89867e-07 -1.94128e-07)
(-2.31398e-07 4.21869e-07 -4.63731e-07)
(3.64132e-08 3.93886e-07 -3.96857e-07)
(6.5397e-08 5.61685e-07 -3.44471e-07)
(-4.37149e-07 1.02872e-06 -4.37149e-07)
(-4.86344e-07 4.17046e-07 -1.22212e-06)
(1.60158e-07 4.57157e-07 -9.75007e-07)
(1.933e-07 7.76407e-07 -7.8163e-07)
(-8.15745e-07 1.32025e-06 -8.15745e-07)
(-8.27566e-07 1.91927e-07 -3.03355e-06)
(4.1545e-07 2.86692e-07 -2.24081e-06)
(3.8845e-07 1.0833e-06 -1.56758e-06)
(-1.56994e-06 2.03267e-06 -1.56994e-06)
(-1.54851e-06 3.00931e-07 -7.6958e-06)
(1.07566e-06 6.41385e-07 -5.32478e-06)
(9.83643e-07 1.82032e-06 -3.17406e-06)
(-2.55777e-06 2.21043e-06 -2.55777e-06)
(-2.27996e-06 -1.25092e-06 -2.04222e-05)
(1.99559e-06 -6.6417e-07 -1.28508e-05)
(1.57244e-06 2.74693e-06 -5.8861e-06)
(-5.02134e-06 4.28129e-06 -5.02134e-06)
(-4.47829e-06 2.2019e-06 -5.40443e-05)
(5.13628e-06 2.72558e-06 -3.16591e-05)
(4.3544e-06 4.92933e-06 -9.664e-06)
(-4.42727e-06 3.40047e-06 -4.42727e-06)
(-3.86652e-06 6.61894e-07 -9.01378e-05)
(4.63317e-06 2.06425e-06 -4.86108e-05)
(3.70747e-06 6.92043e-06 -1.29512e-05)
(1.86424e-06 2.13092e-06 1.86424e-06)
(-1.37333e-06 -1.65981e-05 -1.71151e-05)
(1.62549e-06 -3.2892e-06 -1.98368e-05)
(4.55406e-06 5.49461e-06 -4.43252e-06)
(6.534e-06 4.57729e-06 6.534e-06)
(5.17782e-06 -1.77361e-05 8.9558e-05)
(-4.10323e-06 -4.45183e-06 4.7583e-05)
(-2.47144e-06 2.26809e-06 1.25867e-05)
(-1.27111e-07 4.64213e-07 -7.64469e-08)
(-1.28449e-07 -1.26481e-07 -1.28449e-07)
(3.32002e-08 -9.36617e-08 -1.27155e-07)
(3.39872e-08 5.95186e-08 -1.17606e-07)
(-4.63731e-07 4.21869e-07 -2.31398e-07)
(-4.35777e-07 -6.93921e-07 -4.35777e-07)
(1.47071e-07 -4.86291e-07 -4.26028e-07)
(1.13289e-07 -1.22993e-07 -3.7875e-07)
(-1.22212e-06 4.17046e-07 -4.86344e-07)
(-1.02553e-06 -2.20183e-06 -1.02553e-06)
(5.84799e-07 -1.42791e-06 -9.54367e-07)
(3.77724e-07 -4.51089e-07 -7.8902e-07)
(-3.03355e-06 1.91927e-07 -8.27566e-07)
(-2.25918e-06 -6.43002e-06 -2.25918e-06)
(1.86119e-06 -4.17512e-06 -1.99084e-06)
(1.04159e-06 -1.32946e-06 -1.39879e-06)
(-7.6958e-06 3.00931e-07 -1.54851e-06)
(-5.31008e-06 -1.74452e-05 -5.31008e-06)
(5.58301e-06 -1.02144e-05 -4.41145e-06)
(3.08444e-06 -2.51592e-06 -2.5443e-06)
(-2.04222e-05 -1.25092e-06 -2.27996e-06)
(-1.25541e-05 -4.87261e-05 -1.25541e-05)
(1.65818e-05 -2.77752e-05 -9.73272e-06)
(8.45911e-06 -3.80991e-06 -4.14527e-06)
(-5.40443e-05 2.2019e-06 -4.47829e-06)
(-3.11531e-05 -7.90063e-05 -3.11531e-05)
(4.99029e-05 -3.87913e-05 -2.48809e-05)
(2.61558e-05 -2.26484e-06 -6.53528e-06)
(-9.01378e-05 6.61894e-07 -3.86652e-06)
(-4.79899e-05 -0.000376535 -4.79899e-05)
(8.30806e-05 -0.000186677 -3.55329e-05)
(3.89419e-05 7.6429e-06 -7.80463e-06)
(-1.71151e-05 -1.65981e-05 -1.37333e-06)
(-2.3504e-05 -0.000511831 -2.3504e-05)
(1.51668e-05 -0.000251526 -3.64359e-05)
(1.98805e-05 1.68168e-05 -3.88846e-06)
(8.9558e-05 -1.77361e-05 5.17782e-06)
(4.6148e-05 -0.000311797 4.6148e-05)
(-8.22797e-05 -0.00021818 3.21231e-05)
(-3.70231e-05 -3.2084e-07 7.54485e-06)
(-1.13784e-07 4.1849e-07 9.55544e-09)
(-1.27155e-07 -9.36617e-08 3.32002e-08)
(1.74959e-08 -1.29252e-07 1.74959e-08)
(2.94841e-08 1.54235e-08 -1.56922e-08)
(-3.96857e-07 3.93886e-07 3.64132e-08)
(-4.26028e-07 -4.86291e-07 1.47071e-07)
(8.42417e-08 -4.43764e-07 8.42417e-08)
(1.04667e-07 -1.0456e-07 -2.13828e-08)
(-9.75007e-07 4.57157e-07 1.60158e-07)
(-9.54367e-07 -1.42791e-06 5.84799e-07)
(3.81061e-07 -1.1237e-06 3.81061e-07)
(3.45326e-07 -2.29274e-07 7.01683e-08)
(-2.24081e-06 2.86692e-07 4.1545e-07)
(-1.99084e-06 -4.17512e-06 1.86119e-06)
(1.25415e-06 -3.23452e-06 1.25415e-06)
(9.51714e-07 -6.5795e-07 3.91435e-07)
(-5.32478e-06 6.41385e-07 1.07566e-06)
(-4.41145e-06 -1.02144e-05 5.58301e-06)
(3.81898e-06 -7.228e-06 3.81898e-06)
(2.7979e-06 -8.84939e-07 1.30774e-06)
(-1.28508e-05 -6.6417e-07 1.99559e-06)
(-9.73272e-06 -2.77752e-05 1.65818e-05)
(1.04513e-05 -2.16022e-05 1.04513e-05)
(7.07179e-06 -1.20624e-06 3.18832e-06)
(-3.16591e-05 2.72558e-06 5.13628e-06)
(-2.48809e-05 -3.87913e-05 4.99029e-05)
(2.99386e-05 -2.66481e-05 2.99386e-05)
(2.24637e-05 1.31098e-06 6.47563e-06)
(-4.86108e-05 2.06425e-06 4.63317e-06)
(-3.55329e-05 -0.000186677 8.30806e-05)
(4.54422e-05 -0.000142723 4.54422e-05)
(3.09144e-05 6.67125e-06 9.42101e-06)
(-1.98368e-05 -3.2892e-06 1.62549e-06)
(-3.64359e-05 -0.000251526 1.51668e-05)
(2.1284e-05 -0.000176753 2.1284e-05)
(3.61587e-05 1.03604e-05 2.89025e-06)
(4.7583e-05 -4.45183e-06 -4.10323e-06)
(3.21231e-05 -0.00021818 -8.22797e-05)
(-4.32829e-05 -0.000267957 -4.32829e-05)
(-2.66181e-05 -1.05297e-05 -1.02009e-05)
(-1.00568e-07 4.98892e-07 2.19447e-08)
(-1.17606e-07 5.95186e-08 3.39872e-08)
(-1.56922e-08 1.54235e-08 2.94841e-08)
(-9.20568e-11 2.56109e-08 -9.20568e-11)
(-3.44471e-07 5.61685e-07 6.5397e-08)
(-3.7875e-07 -1.22993e-07 1.13289e-07)
(-2.13828e-08 -1.0456e-07 1.04667e-07)
(6.19088e-09 -3.20022e-08 6.19088e-09)
(-7.8163e-07 7.76407e-07 1.933e-07)
(-7.8902e-07 -4.51089e-07 3.77724e-07)
(7.01683e-08 -2.29274e-07 3.45326e-07)
(6.5066e-08 -3.4835e-08 6.5066e-08)
(-1.56758e-06 1.0833e-06 3.8845e-07)
(-1.39879e-06 -1.32946e-06 1.04159e-06)
(3.91435e-07 -6.5795e-07 9.51714e-07)
(1.90718e-07 -8.10705e-08 1.90718e-07)
(-3.17406e-06 1.82032e-06 9.83643e-07)
(-2.5443e-06 -2.51592e-06 3.08444e-06)
(1.30774e-06 -8.84939e-07 2.7979e-06)
(6.15206e-07 2.66776e-07 6.15206e-07)
(-5.8861e-06 2.74693e-06 1.57244e-06)
(-4.14527e-06 -3.80991e-06 8.45911e-06)
(3.18832e-06 -1.20624e-06 7.07179e-06)
(1.32753e-06 1.33623e-06 1.32753e-06)
(-9.664e-06 4.92933e-06 4.3544e-06)
(-6.53528e-06 -2.26484e-06 2.61558e-05)
(6.47563e-06 1.31098e-06 2.24637e-05)
(3.11591e-06 3.96236e-06 3.11591e-06)
(-1.29512e-05 6.92043e-06 3.70747e-06)
(-7.80463e-06 7.6429e-06 3.89419e-05)
(9.42101e-06 6.67125e-06 3.09144e-05)
(3.96122e-06 8.51476e-06 3.96122e-06)
(-4.43252e-06 5.49461e-06 4.55406e-06)
(-3.88846e-06 1.68168e-05 1.98805e-05)
(2.89025e-06 1.03604e-05 3.61587e-05)
(2.00446e-06 1.19117e-05 2.00446e-06)
(1.25867e-05 2.26809e-06 -2.47144e-06)
(7.54485e-06 -3.2084e-07 -3.70231e-05)
(-1.02009e-05 -1.05297e-05 -2.66181e-05)
(-4.92424e-06 6.74289e-06 -4.92424e-06)
)
;

boundaryField
{
    inlet
    {
        type            fixedValue;
        value           nonuniform 0();
    }
    outlet
    {
        type            zeroGradient;
    }
    walls
    {
        type            fixedValue;
        value           uniform (0 0 0);
    }
    procBoundary0to1
    {
        type            processor;
        value           nonuniform List<vector> 
16
(
(5.99564e-06 3.60646e-06 5.99564e-06)
(8.37449e-06 -3.06445e-06 6.76537e-05)
(-5.75469e-06 -5.15918e-07 4.67531e-05)
(-7.66929e-06 1.46304e-06 1.17766e-05)
(6.76537e-05 -3.06445e-06 8.37449e-06)
(4.97803e-05 -0.00010525 4.97803e-05)
(-6.28873e-05 -5.89274e-05 5.51426e-05)
(-4.24132e-05 -7.68179e-06 8.63984e-06)
(4.67531e-05 -5.15918e-07 -5.75469e-06)
(5.51426e-05 -5.89274e-05 -6.28873e-05)
(-4.70328e-05 -4.9039e-05 -4.70328e-05)
(-5.29282e-05 -4.45264e-06 -8.78645e-06)
(1.17766e-05 1.46304e-06 -7.66929e-06)
(8.63984e-06 -7.68179e-06 -4.24132e-05)
(-8.78645e-06 -4.45264e-06 -5.29282e-05)
(-5.17274e-06 1.51688e-06 -5.17274e-06)
)
;
    }
}


// ************************************************************************* //
