/*--------------------------------*- C++ -*----------------------------------*\
| =========                 |                                                 |
| \\      /  F ield         | OpenFOAM: The Open Source CFD Toolbox           |
|  \\    /   O peration     | Version:  5.x                                   |
|   \\  /    A nd           | Web:      www.OpenFOAM.org                      |
|    \\/     M anipulation  |                                                 |
\*---------------------------------------------------------------------------*/
FoamFile
{
    version     2.0;
    format      ascii;
    class       surfaceScalarField;
    location    "0.09";
    object      phi;
}
// * * * * * * * * * * * * * * * * * * * * * * * * * * * * * * * * * * * * * //

dimensions      [0 3 -1 0 0 0 0];

internalField   nonuniform List<scalar> 
784
(
-1.48218e-12
-5.85524e-12
-1.48218e-12
-6.19673e-13
-1.1553e-11
-4.47601e-12
-3.245e-14
-1.1627e-11
-3.83911e-12
-1.02351e-11
-3.65884e-12
-4.46682e-12
-4.01967e-12
-4.46682e-12
-1.59074e-12
-1.1745e-11
-1.68946e-11
3.65736e-13
-1.09293e-11
-1.37249e-11
-7.63902e-12
-1.1738e-11
-8.59143e-12
-9.07239e-13
-8.59143e-12
-2.18496e-12
-1.26849e-11
-4.15697e-11
2.45882e-12
-1.03178e-11
-3.11322e-11
-2.40427e-12
-2.39126e-11
-1.53121e-11
4.72487e-12
-1.53121e-11
-1.8523e-12
-1.43068e-11
-1.00125e-10
7.15941e-12
-8.62029e-12
-6.85999e-11
7.17838e-12
-4.34888e-11
-1.94681e-11
9.06251e-12
-1.94681e-11
-1.51906e-12
-1.11536e-11
-2.22674e-10
1.35219e-11
-5.36598e-12
-1.42905e-10
1.90372e-11
-7.24742e-11
-3.67263e-11
1.24902e-12
-3.67263e-11
3.07193e-12
-3.96174e-11
-6.35615e-10
3.58481e-11
-1.26752e-11
-3.71604e-10
3.34388e-11
-1.21275e-10
-1.58952e-11
-1.73957e-11
-1.58952e-11
3.41226e-12
-1.69515e-10
-5.43994e-10
3.62546e-11
-7.76703e-11
-3.21139e-10
2.45028e-11
-1.07126e-10
7.50917e-12
3.77549e-12
7.50917e-12
2.26702e-11
-2.17715e-10
3.33409e-11
2.61208e-11
-1.01093e-10
-1.97489e-11
1.34265e-11
-1.71286e-11
-2.35173e-12
2.66796e-11
-2.35173e-12
1.56801e-11
-1.73701e-10
3.3439e-10
3.99219e-11
-6.99171e-11
1.05977e-10
1.70511e-11
5.55803e-11
3.83403e-11
3.47815e-11
3.83403e-11
8.08896e-12
-7.50218e-11
5.27643e-10
-1.85084e-11
-2.6454e-11
3.24964e-10
1.72473e-11
1.18892e-10
5.13264e-11
1.96902e-11
5.13264e-11
9.97593e-12
-2.17922e-11
4.10306e-10
-4.5839e-11
-1.74257e-11
3.39076e-10
1.32689e-11
1.06043e-10
1.68773e-11
1.59211e-11
1.68773e-11
6.4076e-12
-7.68391e-12
1.48815e-10
-1.05835e-11
-1.04824e-11
1.11528e-10
1.08273e-11
5.79432e-11
1.44285e-11
9.22039e-12
1.44285e-11
4.58417e-12
3.68086e-13
8.88073e-11
-1.33413e-11
-2.96453e-12
7.24875e-11
7.93943e-12
4.17661e-11
5.2902e-12
6.566e-12
5.2902e-12
2.67307e-12
9.90714e-13
3.4295e-11
-2.98916e-12
-1.55295e-12
2.85937e-11
5.77075e-12
2.21763e-11
4.60706e-12
4.01467e-12
4.60706e-12
1.88709e-12
1.75921e-12
1.8997e-11
-3.12593e-12
4.38281e-13
1.68737e-11
3.65761e-12
1.45925e-11
2.01112e-12
2.69732e-12
2.01112e-12
1.2554e-12
1.19279e-12
8.71956e-12
-3.3459e-13
2.85653e-13
8.32375e-12
2.29758e-12
8.10801e-12
1.66675e-12
1.68086e-12
1.66675e-12
9.80711e-13
9.77248e-13
4.59322e-12
-3.77333e-13
5.47041e-13
4.59204e-12
1.29798e-12
4.97868e-12
8.95855e-13
1.04492e-12
8.95855e-13
7.10424e-13
5.59445e-13
2.48607e-12
2.51714e-13
2.77981e-13
2.67023e-12
6.9973e-13
2.86124e-12
7.14908e-13
5.5642e-13
7.14908e-13
5.68259e-13
3.05829e-13
1.40396e-12
2.02524e-13
1.70088e-13
1.55727e-12
3.13054e-13
1.76856e-12
4.36633e-13
4.36633e-13
4.25439e-13
8.03617e-13
3.05075e-13
9.21642e-13
1.00195e-12
-4.47601e-12
-1.1553e-11
-6.19673e-13
-9.9188e-13
-3.75913e-11
-9.9188e-13
3.59799e-13
-3.09859e-11
-1.27893e-12
-2.59148e-11
-1.56002e-12
-1.68946e-11
-1.1745e-11
-1.59074e-12
-2.33509e-12
-6.67103e-11
-2.33509e-12
3.37642e-12
-4.70943e-11
-3.32801e-12
-3.21121e-11
-3.99454e-12
-4.15697e-11
-1.26849e-11
-2.18496e-12
-2.14088e-12
-1.45568e-10
-2.14088e-12
1.39921e-11
-8.97708e-11
-4.58874e-12
-4.309e-11
-6.2901e-12
-1.00125e-10
-1.43068e-11
-1.8523e-12
4.88747e-12
-3.55593e-10
4.88747e-12
4.70422e-11
-1.97075e-10
-3.45078e-12
-5.58293e-11
-7.46955e-12
-2.22674e-10
-1.11536e-11
-1.51906e-12
3.22101e-11
-8.65361e-10
3.22101e-11
1.25633e-10
-4.36437e-10
3.03368e-12
-6.18903e-11
-6.847e-12
-6.35615e-10
-3.96174e-11
3.07193e-12
1.71232e-10
-2.47906e-09
1.71232e-10
4.51656e-10
-1.1376e-09
4.91397e-11
1.77327e-11
-9.96577e-13
-5.43994e-10
-1.69515e-10
3.41226e-12
1.28683e-10
-3.82441e-09
1.28683e-10
4.34367e-10
-1.7975e-09
3.30769e-11
8.20451e-11
1.08703e-13
3.33409e-11
-2.17715e-10
2.26702e-11
-6.56248e-11
-3.62648e-09
-6.56248e-11
-1.15956e-11
-1.85723e-09
-1.40501e-11
4.89699e-11
-1.21489e-11
3.3439e-10
-1.73701e-10
1.56801e-11
-1.10243e-10
-2.73721e-09
-1.10243e-10
-2.03226e-10
-1.59712e-09
-6.11504e-11
-2.95702e-11
-1.04938e-11
5.27643e-10
-7.50218e-11
8.08896e-12
-1.05631e-10
-1.47066e-09
-1.05631e-10
-3.89439e-10
-9.58907e-10
-2.94436e-11
-7.77501e-11
-7.2539e-13
4.10306e-10
-2.17922e-11
9.97593e-12
-3.75065e-11
-5.75038e-10
-3.75065e-11
-3.18147e-10
-3.64693e-10
2.55024e-11
-6.77597e-11
8.95713e-12
1.48815e-10
-7.68391e-12
6.4076e-12
-9.01247e-13
-2.75606e-10
-9.01247e-13
-7.81277e-11
-1.88233e-10
1.22946e-11
-4.3565e-11
1.24359e-11
8.88073e-11
3.68086e-13
4.58417e-12
4.33828e-12
-1.06668e-10
4.33828e-12
-4.91669e-11
-7.34866e-11
1.12465e-11
-2.56663e-11
1.13724e-11
3.4295e-11
9.90714e-13
2.67307e-12
5.63645e-12
-4.93507e-11
5.63645e-12
-1.00796e-11
-3.66719e-11
7.49503e-12
-1.48405e-11
9.48731e-12
1.8997e-11
1.75921e-12
1.88709e-12
4.19527e-12
-1.97471e-11
4.19527e-12
-5.38166e-12
-1.55735e-11
5.35227e-12
-7.85632e-12
7.10648e-12
8.71956e-12
1.19279e-12
1.2554e-12
3.17892e-12
-8.66586e-12
3.17892e-12
-4.33945e-13
-7.46172e-12
3.8248e-12
-4.38239e-12
4.91518e-12
4.59322e-12
9.77248e-13
9.80711e-13
2.03873e-12
-3.55688e-12
2.03873e-12
5.85652e-14
-3.38698e-12
2.49746e-12
-2.37456e-12
3.30533e-12
2.48607e-12
5.59445e-13
7.10424e-13
1.46161e-12
-1.50798e-12
1.46161e-12
5.98804e-13
-1.62472e-12
1.77077e-12
-1.30665e-12
2.17405e-12
1.40396e-12
3.05829e-13
5.68259e-13
9.68732e-13
-6.37534e-13
9.68732e-13
5.05447e-13
-7.78977e-13
1.17481e-12
-7.04278e-13
1.46445e-12
8.03617e-13
4.25439e-13
6.69181e-13
6.69181e-13
4.62159e-13
7.96123e-13
9.19881e-13
-3.83911e-12
-1.1627e-11
-3.245e-14
-1.27893e-12
-3.09859e-11
3.59799e-13
-4.9347e-14
-2.86364e-11
-4.9347e-14
-2.46455e-11
-7.82135e-13
-1.37249e-11
-1.09293e-11
3.65736e-13
-3.32801e-12
-4.70943e-11
3.37642e-12
1.84292e-12
-3.89783e-11
1.84292e-12
-2.6971e-11
-9.75218e-13
-3.11322e-11
-1.03178e-11
2.45882e-12
-4.58874e-12
-8.97708e-11
1.39921e-11
9.15427e-12
-6.64643e-11
9.15427e-12
-3.02354e-11
6.26863e-13
-6.85999e-11
-8.62029e-12
7.15941e-12
-3.45078e-12
-1.97075e-10
4.70422e-11
3.13368e-11
-1.36039e-10
3.13368e-11
-3.03891e-11
5.89769e-12
-1.42905e-10
-5.36598e-12
1.35219e-11
3.03368e-12
-4.36437e-10
1.25633e-10
8.42451e-11
-2.98462e-10
8.42451e-11
-2.16404e-11
1.75038e-11
-3.71604e-10
-1.26752e-11
3.58481e-11
4.91397e-11
-1.1376e-09
4.51656e-10
2.84361e-10
-7.68905e-10
2.84361e-10
3.01624e-11
4.50489e-11
-3.21139e-10
-7.76703e-11
3.62546e-11
3.30769e-11
-1.7975e-09
4.34367e-10
2.75865e-10
-1.25448e-09
2.75865e-10
5.16518e-11
4.31363e-11
-1.97489e-11
-1.01093e-10
2.61208e-11
-1.40501e-11
-1.85723e-09
-1.15956e-11
2.58863e-11
-1.33435e-09
2.58863e-11
2.07148e-11
9.85547e-13
1.05977e-10
-6.99171e-11
3.99219e-11
-6.11504e-11
-1.59712e-09
-2.03226e-10
-1.8437e-11
-1.41978e-09
-1.8437e-11
-5.24005e-11
-1.94913e-11
3.24964e-10
-2.6454e-11
-1.85084e-11
-2.94436e-11
-9.58907e-10
-3.89439e-10
-2.4231e-10
-9.94048e-10
-2.4231e-10
-7.7028e-11
-5.15809e-11
3.39076e-10
-1.74257e-11
-4.5839e-11
2.55024e-11
-3.64693e-10
-3.18147e-10
-2.9416e-10
-3.54724e-10
-2.9416e-10
-4.21215e-11
-4.39431e-11
1.11528e-10
-1.04824e-11
-1.05835e-11
1.22946e-11
-1.88233e-10
-7.81277e-11
-6.8184e-11
-1.93767e-10
-6.8184e-11
-2.74452e-11
-6.92566e-12
7.24875e-11
-2.96453e-12
-1.33413e-11
1.12465e-11
-7.34866e-11
-4.91669e-11
-4.92269e-11
-7.28204e-11
-4.92269e-11
-1.57976e-11
-2.77028e-12
2.85937e-11
-1.55295e-12
-2.98916e-12
7.49503e-12
-3.66719e-11
-1.00796e-11
-9.92567e-12
-3.7979e-11
-9.92567e-12
-1.03959e-11
4.72561e-12
1.68737e-11
4.38281e-13
-3.12593e-12
5.35227e-12
-1.55735e-11
-5.38166e-12
-5.56139e-12
-1.61516e-11
-5.56139e-12
-6.3377e-12
3.56471e-12
8.32375e-12
2.85653e-13
-3.3459e-13
3.8248e-12
-7.46172e-12
-4.33945e-13
-1.74943e-13
-8.15215e-12
-1.74943e-13
-4.16431e-12
3.50597e-12
4.59204e-12
5.47041e-13
-3.77333e-13
2.49746e-12
-3.38698e-12
5.85652e-14
3.95224e-13
-3.94767e-12
3.95224e-13
-2.60995e-12
2.35634e-12
2.67023e-12
2.77981e-13
2.51714e-13
1.77077e-12
-1.62472e-12
5.98804e-13
8.10416e-13
-2.02695e-12
8.10416e-13
-1.6398e-12
1.69954e-12
1.55727e-12
1.70088e-13
2.02524e-13
1.17481e-12
-7.78977e-13
5.05447e-13
6.802e-13
-1.03774e-12
6.802e-13
-9.65014e-13
1.15293e-12
9.21642e-13
3.05075e-13
7.96123e-13
4.62159e-13
5.62917e-13
5.62917e-13
7.5965e-13
-3.65884e-12
-1.02351e-11
-1.56002e-12
-2.59148e-11
-7.82135e-13
-2.46455e-11
-2.47746e-11
-1.1738e-11
-7.63902e-12
-3.99454e-12
-3.21121e-11
-9.75218e-13
-2.6971e-11
-2.50299e-11
-2.39126e-11
-2.40427e-12
-6.2901e-12
-4.309e-11
6.26863e-13
-3.02354e-11
-2.26061e-11
-4.34888e-11
7.17838e-12
-7.46955e-12
-5.58293e-11
5.89769e-12
-3.03891e-11
-1.48358e-11
-7.24742e-11
1.90372e-11
-6.847e-12
-6.18903e-11
1.75038e-11
-2.16404e-11
3.68435e-12
-1.21275e-10
3.34388e-11
-9.96577e-13
1.77327e-11
4.50489e-11
3.01624e-11
4.46652e-11
-1.07126e-10
2.45028e-11
1.08703e-13
8.20451e-11
4.31363e-11
5.16518e-11
7.93488e-11
-1.71286e-11
1.34265e-11
-1.21489e-11
4.89699e-11
9.85547e-13
2.07148e-11
9.33943e-11
5.55803e-11
1.70511e-11
-1.04938e-11
-2.95702e-11
-1.94913e-11
-5.24005e-11
6.74687e-11
1.18892e-10
1.72473e-11
-7.2539e-13
-7.77501e-11
-5.15809e-11
-7.7028e-11
2.39204e-11
1.06043e-10
1.32689e-11
8.95713e-12
-6.77597e-11
-4.39431e-11
-4.21215e-11
1.28652e-12
5.79432e-11
1.08273e-11
1.24359e-11
-4.3565e-11
-6.92566e-12
-2.74452e-11
-6.96184e-12
4.17661e-11
7.93943e-12
1.13724e-11
-2.56663e-11
-2.77028e-12
-1.57976e-11
-1.06585e-11
2.21763e-11
5.77075e-12
9.48731e-12
-1.48405e-11
4.72561e-12
-1.03959e-11
-9.59113e-12
1.45925e-11
3.65761e-12
7.10648e-12
-7.85632e-12
3.56471e-12
-6.3377e-12
-7.58045e-12
8.10801e-12
2.29758e-12
4.91518e-12
-4.38239e-12
3.50597e-12
-4.16431e-12
-5.40877e-12
4.97868e-12
1.29798e-12
3.30533e-12
-2.37456e-12
2.35634e-12
-2.60995e-12
-3.6217e-12
2.86124e-12
6.9973e-13
2.17405e-12
-1.30665e-12
1.69954e-12
-1.6398e-12
-2.31421e-12
1.76856e-12
3.13054e-13
1.46445e-12
-7.04278e-13
1.15293e-12
-9.65014e-13
-1.35381e-12
1.00195e-12
9.19881e-13
7.5965e-13
)
;

boundaryField
{
    inlet
    {
        type            calculated;
        value           nonuniform List<scalar> 
16
(
2.17996e-13
5.14926e-14
-2.1718e-14
1.04364e-13
5.14926e-14
-3.68663e-13
-4.46438e-13
-3.99454e-13
-2.1718e-14
-4.46438e-13
-5.71325e-13
-5.45433e-13
1.04364e-13
-3.99454e-13
-5.45433e-13
-7.22459e-13
)
;
    }
    outlet
    {
        type            calculated;
        value           nonuniform List<scalar> 
16
(
6.48483e-12
1.14598e-11
1.18193e-11
1.10316e-11
1.14598e-11
3.06231e-11
2.7074e-11
2.40011e-11
1.18193e-11
2.7074e-11
2.61773e-11
2.38618e-11
1.10316e-11
2.40011e-11
2.38618e-11
2.42673e-11
)
;
    }
    walls
    {
        type            calculated;
        value           nonuniform List<scalar> 
320
(
1.16738e-12
3.54904e-12
7.03522e-12
1.24961e-11
1.72993e-11
4.0633e-11
2.52175e-11
-1.80948e-11
-9.1003e-12
-4.23913e-11
-4.37808e-11
-1.49928e-11
-1.10782e-11
-3.96301e-12
-3.33139e-12
-1.35244e-12
-1.15851e-12
-5.77883e-13
-4.70662e-13
-2.67423e-13
3.70671e-12
1.42105e-11
3.61031e-11
8.8287e-11
2.01572e-10
6.24281e-10
6.54584e-10
-3.01967e-13
-3.96437e-10
-5.96071e-10
-4.22185e-10
-1.52453e-10
-8.7015e-11
-3.23005e-11
-1.70455e-11
-7.39741e-12
-3.69164e-12
-1.88284e-12
-1.0037e-12
-5.38088e-13
3.05961e-12
1.10708e-11
2.58769e-11
5.78907e-11
1.2461e-10
3.46138e-10
3.53292e-10
3.97206e-11
-1.61394e-10
-3.41829e-10
-2.9229e-10
-1.0148e-10
-6.20799e-11
-2.43431e-11
-1.38519e-11
-6.58112e-12
-3.49539e-12
-1.94246e-12
-1.08364e-12
-6.09474e-13
2.80406e-12
9.20564e-12
1.94703e-11
3.68642e-11
6.48254e-11
1.15718e-10
1.17181e-10
3.45562e-11
-5.78063e-11
-1.22424e-10
-1.01958e-10
-5.41273e-11
-3.79916e-11
-1.91257e-11
-1.20609e-11
-6.32273e-12
-3.71359e-12
-2.03199e-12
-1.20609e-12
-6.48004e-13
2.57624e-14
3.02019e-13
1.66637e-12
4.20131e-12
9.31186e-12
2.7004e-11
3.51356e-11
1.97696e-11
3.85234e-11
-1.51726e-11
-4.59457e-11
-1.19578e-11
-1.42279e-11
-3.87111e-12
-3.54432e-12
-7.59835e-13
-6.42824e-13
2.07122e-14
2.67307e-14
1.59813e-13
1.74721e-13
1.83031e-12
7.34753e-12
2.37622e-11
6.60669e-11
2.51754e-10
2.6282e-10
1.64999e-11
-5.86116e-11
-2.21642e-10
-2.31052e-10
-5.68151e-11
-3.66718e-11
-8.21643e-12
-4.87982e-12
-7.15054e-13
-2.75917e-13
2.18086e-13
2.07187e-13
2.3941e-13
-4.3546e-14
1.14906e-12
5.50175e-12
1.81232e-11
5.11457e-11
1.86513e-10
2.11348e-10
4.36888e-11
6.36758e-11
-1.66827e-10
-2.76166e-10
-6.34988e-11
-4.67319e-11
-1.05656e-11
-6.07782e-12
-9.39117e-13
-2.10143e-13
3.14788e-13
3.16925e-13
3.03571e-13
-5.28435e-13
-8.476e-13
-5.85015e-13
2.01254e-12
8.24368e-12
2.45585e-11
2.57946e-11
-6.03724e-12
-6.52852e-12
-2.98067e-11
-3.26262e-11
-2.80148e-12
-9.21961e-13
4.19195e-12
2.55937e-12
2.42013e-12
1.46281e-12
1.04579e-12
6.72735e-13
4.43974e-13
1.16738e-12
3.54904e-12
7.03522e-12
1.24961e-11
1.72993e-11
4.0633e-11
2.52175e-11
-1.80948e-11
-9.1003e-12
-4.23913e-11
-4.37808e-11
-1.49928e-11
-1.10782e-11
-3.96301e-12
-3.33139e-12
-1.35244e-12
-1.15851e-12
-5.77883e-13
-4.70662e-13
-2.67423e-13
3.70671e-12
1.42105e-11
3.61031e-11
8.8287e-11
2.01572e-10
6.24281e-10
6.54584e-10
-3.01967e-13
-3.96437e-10
-5.96071e-10
-4.22185e-10
-1.52453e-10
-8.7015e-11
-3.23005e-11
-1.70455e-11
-7.39741e-12
-3.69164e-12
-1.88284e-12
-1.0037e-12
-5.38088e-13
3.05961e-12
1.10708e-11
2.58769e-11
5.78907e-11
1.2461e-10
3.46138e-10
3.53292e-10
3.97206e-11
-1.61394e-10
-3.41829e-10
-2.9229e-10
-1.0148e-10
-6.20799e-11
-2.43431e-11
-1.38519e-11
-6.58112e-12
-3.49539e-12
-1.94246e-12
-1.08364e-12
-6.09474e-13
2.80406e-12
9.20564e-12
1.94703e-11
3.68642e-11
6.48254e-11
1.15718e-10
1.17181e-10
3.45562e-11
-5.78063e-11
-1.22424e-10
-1.01958e-10
-5.41273e-11
-3.79916e-11
-1.91257e-11
-1.20609e-11
-6.32273e-12
-3.71359e-12
-2.03199e-12
-1.20609e-12
-6.48004e-13
2.57624e-14
3.02019e-13
1.66637e-12
4.20131e-12
9.31186e-12
2.7004e-11
3.51356e-11
1.97696e-11
3.85234e-11
-1.51726e-11
-4.59457e-11
-1.19578e-11
-1.42279e-11
-3.87111e-12
-3.54432e-12
-7.59835e-13
-6.42824e-13
2.07122e-14
2.67307e-14
1.59813e-13
1.74721e-13
1.83031e-12
7.34753e-12
2.37622e-11
6.60669e-11
2.51754e-10
2.6282e-10
1.64999e-11
-5.86116e-11
-2.21642e-10
-2.31052e-10
-5.68151e-11
-3.66718e-11
-8.21643e-12
-4.87982e-12
-7.15054e-13
-2.75917e-13
2.18086e-13
2.07187e-13
2.3941e-13
-4.3546e-14
1.14906e-12
5.50175e-12
1.81232e-11
5.11457e-11
1.86513e-10
2.11348e-10
4.36888e-11
6.36758e-11
-1.66827e-10
-2.76166e-10
-6.34988e-11
-4.67319e-11
-1.05656e-11
-6.07782e-12
-9.39117e-13
-2.10143e-13
3.14788e-13
3.16925e-13
3.03571e-13
-5.28435e-13
-8.476e-13
-5.85015e-13
2.01254e-12
8.24368e-12
2.45585e-11
2.57946e-11
-6.03724e-12
-6.52852e-12
-2.98067e-11
-3.26262e-11
-2.80148e-12
-9.21961e-13
4.19195e-12
2.55937e-12
2.42013e-12
1.46281e-12
1.04579e-12
6.72735e-13
4.43974e-13
)
;
    }
}


// ************************************************************************* //
