/*--------------------------------*- C++ -*----------------------------------*\
| =========                 |                                                 |
| \\      /  F ield         | OpenFOAM: The Open Source CFD Toolbox           |
|  \\    /   O peration     | Version:  5.x                                   |
|   \\  /    A nd           | Web:      www.OpenFOAM.org                      |
|    \\/     M anipulation  |                                                 |
\*---------------------------------------------------------------------------*/
FoamFile
{
    version     2.0;
    format      ascii;
    class       volVectorField;
    location    "0.09";
    object      Us;
}
// * * * * * * * * * * * * * * * * * * * * * * * * * * * * * * * * * * * * * //

dimensions      [0 1 -1 0 0 0 0];

internalField   nonuniform List<vector> 
320
(
(-1.9937e-16 -4.79103e-13 -1.9937e-16)
(-2.08455e-15 -5.00935e-12 -2.08455e-15)
(-1.95658e-15 -4.70182e-12 -1.95658e-15)
(-5.66332e-17 -1.36094e-13 -5.66332e-17)
(-1.02742e-14 -2.46897e-11 -1.02742e-14)
(-1.25662e-13 -3.01976e-10 -1.25662e-13)
(-1.19431e-13 -2.87003e-10 -1.19431e-13)
(-3.41186e-15 -8.19898e-12 -3.41186e-15)
(-5.03115e-13 -1.20903e-09 -5.03115e-13)
(-7.38634e-12 -1.775e-08 -7.38634e-12)
(-7.10822e-12 -1.70816e-08 -7.10822e-12)
(-2.00478e-13 -4.81765e-10 -2.00478e-13)
(-2.21714e-11 -5.32798e-08 -2.21714e-11)
(-4.06946e-10 -9.77925e-07 -4.06946e-10)
(-3.96609e-10 -9.53083e-07 -3.96609e-10)
(-1.10457e-11 -2.65437e-08 -1.10457e-11)
(-8.14175e-10 -1.95653e-06 -8.14175e-10)
(-1.99255e-08 -4.78825e-05 -1.99255e-08)
(-1.96702e-08 -4.72691e-05 -1.96702e-08)
(-5.41245e-10 -1.30066e-06 -5.41245e-10)
(-1.99346e-08 -4.79044e-05 -1.99346e-08)
(-7.31636e-07 -0.00175818 -7.31636e-07)
(-7.31765e-07 -0.00175849 -7.31765e-07)
(-1.99363e-08 -4.79086e-05 -1.99363e-08)
(-5.39342e-10 -1.29608e-06 -5.39342e-10)
(-1.97986e-08 -4.75775e-05 -1.97986e-08)
(-1.97987e-08 -4.75779e-05 -1.97987e-08)
(-5.3942e-10 -1.29627e-06 -5.3942e-10)
(-7.20365e-12 -1.7311e-08 -7.20365e-12)
(-2.64437e-10 -6.35463e-07 -2.64437e-10)
(-2.679e-10 -6.43785e-07 -2.679e-10)
(-1.09476e-11 -2.63079e-08 -1.09476e-11)
(-9.62183e-14 -2.3122e-10 -9.62183e-14)
(-3.53205e-12 -8.48781e-09 -3.53205e-12)
(-3.62454e-12 -8.71007e-09 -3.62454e-12)
(-1.97498e-13 -4.74603e-10 -1.97498e-13)
(-1.28465e-15 -3.08711e-12 -1.28465e-15)
(-4.71664e-14 -1.13345e-10 -4.71664e-14)
(-4.9019e-14 -1.17797e-10 -4.9019e-14)
(-3.33915e-15 -8.02426e-12 -3.33915e-15)
(0 0 0)
(0 0 0)
(0 0 0)
(0 0 0)
(0 0 0)
(0 0 0)
(0 0 0)
(0 0 0)
(0 0 0)
(0 0 0)
(0 0 0)
(0 0 0)
(0 0 0)
(0 0 0)
(0 0 0)
(0 0 0)
(0 0 0)
(0 0 0)
(0 0 0)
(0 0 0)
(0 0 0)
(0 0 0)
(0 0 0)
(0 0 0)
(0 0 0)
(0 0 0)
(0 0 0)
(0 0 0)
(0 0 0)
(0 0 0)
(0 0 0)
(0 0 0)
(0 0 0)
(0 0 0)
(0 0 0)
(0 0 0)
(0 0 0)
(0 0 0)
(0 0 0)
(0 0 0)
(-2.08455e-15 -5.00935e-12 -2.08455e-15)
(-2.54514e-14 -6.11617e-11 -2.54514e-14)
(-2.41854e-14 -5.81196e-11 -2.41854e-14)
(-6.90125e-16 -1.65843e-12 -6.90125e-16)
(-1.25662e-13 -3.01976e-10 -1.25662e-13)
(-1.84565e-12 -4.43524e-09 -1.84565e-12)
(-1.77612e-12 -4.26817e-09 -1.77612e-12)
(-5.00112e-14 -1.20181e-10 -5.00112e-14)
(-7.38634e-12 -1.775e-08 -7.38634e-12)
(-1.35617e-10 -3.25899e-07 -1.35617e-10)
(-1.32167e-10 -3.17608e-07 -1.32167e-10)
(-3.6729e-12 -8.82628e-09 -3.6729e-12)
(-4.06946e-10 -9.77925e-07 -4.06946e-10)
(-9.9618e-09 -2.3939e-05 -9.9618e-09)
(-9.83341e-09 -2.36305e-05 -9.83341e-09)
(-2.69699e-10 -6.48109e-07 -2.69699e-10)
(-1.99255e-08 -4.78825e-05 -1.99255e-08)
(-7.31496e-07 -0.00175784 -7.31496e-07)
(-7.31502e-07 -0.00175786 -7.31502e-07)
(-1.98005e-08 -4.75822e-05 -1.98005e-08)
(-7.31636e-07 -0.00175818 -7.31636e-07)
(-5.36856e-05 -0.129011 -5.36856e-05)
(-5.36856e-05 -0.129011 -5.36856e-05)
(-7.31901e-07 -0.00175882 -7.31901e-07)
(-1.97986e-08 -4.75775e-05 -1.97986e-08)
(-7.31756e-07 -0.00175847 -7.31756e-07)
(-7.31636e-07 -0.00175818 -7.31636e-07)
(-1.96756e-08 -4.7282e-05 -1.96756e-08)
(-2.64437e-10 -6.35463e-07 -2.64437e-10)
(-9.71145e-09 -2.33374e-05 -9.71145e-09)
(-9.83524e-09 -2.36349e-05 -9.83524e-09)
(-3.96728e-10 -9.53369e-07 -3.96728e-10)
(-3.53205e-12 -8.48781e-09 -3.53205e-12)
(-1.28885e-10 -3.09721e-07 -1.28885e-10)
(-1.32191e-10 -3.17667e-07 -1.32191e-10)
(-7.11041e-12 -1.70869e-08 -7.11041e-12)
(-4.71664e-14 -1.13345e-10 -4.71664e-14)
(-1.71018e-12 -4.10971e-09 -1.71018e-12)
(-1.77613e-12 -4.26818e-09 -1.77613e-12)
(-1.19442e-13 -2.87028e-10 -1.19442e-13)
(0 0 0)
(0 0 0)
(0 0 0)
(0 0 0)
(0 0 0)
(0 0 0)
(0 0 0)
(0 0 0)
(0 0 0)
(0 0 0)
(0 0 0)
(0 0 0)
(0 0 0)
(0 0 0)
(0 0 0)
(0 0 0)
(0 0 0)
(0 0 0)
(0 0 0)
(0 0 0)
(0 0 0)
(0 0 0)
(0 0 0)
(0 0 0)
(0 0 0)
(0 0 0)
(0 0 0)
(0 0 0)
(0 0 0)
(0 0 0)
(0 0 0)
(0 0 0)
(0 0 0)
(0 0 0)
(0 0 0)
(0 0 0)
(0 0 0)
(0 0 0)
(0 0 0)
(0 0 0)
(-1.95658e-15 -4.70182e-12 -1.95658e-15)
(-2.41854e-14 -5.81196e-11 -2.41854e-14)
(-2.30032e-14 -5.52786e-11 -2.30032e-14)
(-6.55823e-16 -1.576e-12 -6.55823e-16)
(-1.19431e-13 -2.87003e-10 -1.19431e-13)
(-1.77612e-12 -4.26817e-09 -1.77612e-12)
(-1.71053e-12 -4.11055e-09 -1.71053e-12)
(-4.81299e-14 -1.1566e-10 -4.81299e-14)
(-7.10822e-12 -1.70816e-08 -7.10822e-12)
(-1.32167e-10 -3.17608e-07 -1.32167e-10)
(-1.28886e-10 -3.09722e-07 -1.28886e-10)
(-3.57969e-12 -8.60228e-09 -3.57969e-12)
(-3.96609e-10 -9.53083e-07 -3.96609e-10)
(-9.83341e-09 -2.36305e-05 -9.83341e-09)
(-9.71141e-09 -2.33373e-05 -9.71141e-09)
(-2.66243e-10 -6.39804e-07 -2.66243e-10)
(-1.96702e-08 -4.72691e-05 -1.96702e-08)
(-7.31502e-07 -0.00175786 -7.31502e-07)
(-7.31753e-07 -0.00175846 -7.31753e-07)
(-1.98023e-08 -4.75864e-05 -1.98023e-08)
(-7.31765e-07 -0.00175849 -7.31765e-07)
(-5.36856e-05 -0.129011 -5.36856e-05)
(-5.36856e-05 -0.129011 -5.36856e-05)
(-7.31904e-07 -0.00175883 -7.31904e-07)
(-1.97987e-08 -4.75779e-05 -1.97987e-08)
(-7.31636e-07 -0.00175818 -7.31636e-07)
(-7.3176e-07 -0.00175848 -7.3176e-07)
(-1.99329e-08 -4.79003e-05 -1.99329e-08)
(-2.679e-10 -6.43785e-07 -2.679e-10)
(-9.83524e-09 -2.36349e-05 -9.83524e-09)
(-9.96545e-09 -2.39478e-05 -9.96545e-09)
(-4.07101e-10 -9.78296e-07 -4.07101e-10)
(-3.62454e-12 -8.71007e-09 -3.62454e-12)
(-1.32191e-10 -3.17667e-07 -1.32191e-10)
(-1.35668e-10 -3.26022e-07 -1.35668e-10)
(-7.38922e-12 -1.77569e-08 -7.38922e-12)
(-4.9019e-14 -1.17797e-10 -4.9019e-14)
(-1.77613e-12 -4.26818e-09 -1.77613e-12)
(-1.84603e-12 -4.43616e-09 -1.84603e-12)
(-1.25685e-13 -3.02031e-10 -1.25685e-13)
(0 0 0)
(0 0 0)
(0 0 0)
(0 0 0)
(0 0 0)
(0 0 0)
(0 0 0)
(0 0 0)
(0 0 0)
(0 0 0)
(0 0 0)
(0 0 0)
(0 0 0)
(0 0 0)
(0 0 0)
(0 0 0)
(0 0 0)
(0 0 0)
(0 0 0)
(0 0 0)
(0 0 0)
(0 0 0)
(0 0 0)
(0 0 0)
(0 0 0)
(0 0 0)
(0 0 0)
(0 0 0)
(0 0 0)
(0 0 0)
(0 0 0)
(0 0 0)
(0 0 0)
(0 0 0)
(0 0 0)
(0 0 0)
(0 0 0)
(0 0 0)
(0 0 0)
(0 0 0)
(-5.66332e-17 -1.36094e-13 -5.66332e-17)
(-6.90125e-16 -1.65843e-12 -6.90125e-16)
(-6.55823e-16 -1.576e-12 -6.55823e-16)
(-1.89583e-17 -4.55584e-14 -1.89583e-17)
(-3.41186e-15 -8.19898e-12 -3.41186e-15)
(-5.00112e-14 -1.20181e-10 -5.00112e-14)
(-4.81299e-14 -1.1566e-10 -4.81299e-14)
(-1.37291e-15 -3.29921e-12 -1.37291e-15)
(-2.00478e-13 -4.81765e-10 -2.00478e-13)
(-3.6729e-12 -8.82628e-09 -3.6729e-12)
(-3.57969e-12 -8.60228e-09 -3.57969e-12)
(-1.00777e-13 -2.42174e-10 -1.00777e-13)
(-1.10457e-11 -2.65437e-08 -1.10457e-11)
(-2.69699e-10 -6.48109e-07 -2.69699e-10)
(-2.66243e-10 -6.39804e-07 -2.66243e-10)
(-7.3974e-12 -1.77766e-08 -7.3974e-12)
(-5.41245e-10 -1.30066e-06 -5.41245e-10)
(-1.98005e-08 -4.75822e-05 -1.98005e-08)
(-1.98023e-08 -4.75864e-05 -1.98023e-08)
(-5.42998e-10 -1.30487e-06 -5.42998e-10)
(-1.99363e-08 -4.79086e-05 -1.99363e-08)
(-7.31901e-07 -0.00175882 -7.31901e-07)
(-7.31904e-07 -0.00175883 -7.31904e-07)
(-1.9942e-08 -4.79223e-05 -1.9942e-08)
(-5.3942e-10 -1.29627e-06 -5.3942e-10)
(-1.96756e-08 -4.7282e-05 -1.96756e-08)
(-1.99329e-08 -4.79003e-05 -1.99329e-08)
(-8.1448e-10 -1.95726e-06 -8.1448e-10)
(-1.09476e-11 -2.63079e-08 -1.09476e-11)
(-3.96728e-10 -9.53369e-07 -3.96728e-10)
(-4.07101e-10 -9.78296e-07 -4.07101e-10)
(-2.21798e-11 -5.32999e-08 -2.21798e-11)
(-1.97498e-13 -4.74603e-10 -1.97498e-13)
(-7.11041e-12 -1.70869e-08 -7.11041e-12)
(-7.38922e-12 -1.77569e-08 -7.38922e-12)
(-5.03308e-13 -1.20949e-09 -5.03308e-13)
(-3.33915e-15 -8.02426e-12 -3.33915e-15)
(-1.19442e-13 -2.87028e-10 -1.19442e-13)
(-1.25685e-13 -3.02031e-10 -1.25685e-13)
(-1.02755e-14 -2.46928e-11 -1.02755e-14)
(0 0 0)
(0 0 0)
(0 0 0)
(0 0 0)
(0 0 0)
(0 0 0)
(0 0 0)
(0 0 0)
(0 0 0)
(0 0 0)
(0 0 0)
(0 0 0)
(0 0 0)
(0 0 0)
(0 0 0)
(0 0 0)
(0 0 0)
(0 0 0)
(0 0 0)
(0 0 0)
(0 0 0)
(0 0 0)
(0 0 0)
(0 0 0)
(0 0 0)
(0 0 0)
(0 0 0)
(0 0 0)
(0 0 0)
(0 0 0)
(0 0 0)
(0 0 0)
(0 0 0)
(0 0 0)
(0 0 0)
(0 0 0)
(0 0 0)
(0 0 0)
(0 0 0)
(0 0 0)
)
;

boundaryField
{
    inlet
    {
        type            zeroGradient;
    }
    outlet
    {
        type            zeroGradient;
    }
    walls
    {
        type            zeroGradient;
    }
}


// ************************************************************************* //
