ITEM: TIMESTEP
0
ITEM: NUMBER OF ATOMS
2
ITEM: BOX BOUNDS ff ff ff
0 1
0 1
0 4
ITEM: ATOMS id type x y z ix iy iz vx vy vz fx fy fz omegax omegay omegaz radius 
2 1 0.5 0.5 3.16 0 0 0 0 0 0 0 0 -3.58846 0 0 0 0.0835 
1 1 0.5 0.5 3.5 0 0 0 0 0 0 0 0 -3.58846 0 0 0 0.0835 
ITEM: TIMESTEP
100
ITEM: NUMBER OF ATOMS
2
ITEM: BOX BOUNDS ff ff ff
0 1
0 1
0 4
ITEM: ATOMS id type x y z ix iy iz vx vy vz fx fy fz omegax omegay omegaz radius 
2 1 0.5 0.5 3.15848 0 0 0 -1.0106e-06 -1.0106e-06 -0.823314 9.82638e-06 9.82638e-06 -0.7916 0 0 0 0.0835 
1 1 0.5 0.5 3.49814 0 0 0 3.15461e-07 3.15461e-07 -0.93627 -8.26194e-06 -8.26194e-06 -0.765248 0 0 0 0.0835 
ITEM: TIMESTEP
200
ITEM: NUMBER OF ATOMS
2
ITEM: BOX BOUNDS ff ff ff
0 1
0 1
0 4
ITEM: ATOMS id type x y z ix iy iz vx vy vz fx fy fz omegax omegay omegaz radius 
2 1 0.5 0.5 3.15503 0 0 0 1.57834e-07 1.49683e-07 -1.46226 -1.13033e-05 -1.13283e-05 -0.747424 0 0 0 0.0835 
1 1 0.5 0.5 3.49438 0 0 0 1.34359e-06 1.31576e-06 -1.56337 -2.02954e-05 -2.03031e-05 -0.732911 0 0 0 0.0835 
ITEM: TIMESTEP
300
ITEM: NUMBER OF ATOMS
2
ITEM: BOX BOUNDS ff ff ff
0 1
0 1
0 4
ITEM: ATOMS id type x y z ix iy iz vx vy vz fx fy fz omegax omegay omegaz radius 
2 1 0.5 0.5 3.14974 0 0 0 8.0058e-07 7.87998e-07 -2.05727 -8.98636e-06 -9.0093e-06 -0.703274 0 0 0 0.0835 
1 1 0.5 0.5 3.4888 0 0 0 1.91635e-06 1.91749e-06 -2.14542 -3.80006e-05 -3.80036e-05 -0.680499 0 0 0 0.0835 
ITEM: TIMESTEP
400
ITEM: NUMBER OF ATOMS
2
ITEM: BOX BOUNDS ff ff ff
0 1
0 1
0 4
ITEM: ATOMS id type x y z ix iy iz vx vy vz fx fy fz omegax omegay omegaz radius 
2 1 0.5 0.5 3.14271 0 0 0 -1.11955e-06 -1.05606e-06 -2.62384 -2.00673e-05 -1.9966e-05 -0.676517 0 0 0 0.0835 
1 1 0.5 0.5 3.48154 0 0 0 3.42184e-07 3.88884e-07 -2.69579 4.76424e-06 4.74669e-06 -0.670513 0 0 0 0.0835 
ITEM: TIMESTEP
500
ITEM: NUMBER OF ATOMS
2
ITEM: BOX BOUNDS ff ff ff
0 1
0 1
0 4
ITEM: ATOMS id type x y z ix iy iz vx vy vz fx fy fz omegax omegay omegaz radius 
2 1 0.5 0.5 3.13404 0 0 0 1.7483e-06 1.95303e-06 -3.15189 -1.63258e-05 -1.64028e-05 -0.620091 0 0 0 0.0835 
1 1 0.5 0.5 3.47265 0 0 0 2.55216e-06 2.69231e-06 -3.21961 5.52791e-05 5.52597e-05 -0.620104 0 0 0 0.0835 
ITEM: TIMESTEP
600
ITEM: NUMBER OF ATOMS
2
ITEM: BOX BOUNDS ff ff ff
0 1
0 1
0 4
ITEM: ATOMS id type x y z ix iy iz vx vy vz fx fy fz omegax omegay omegaz radius 
2 1 0.5 0.5 3.12382 0 0 0 3.34556e-07 4.61397e-07 -3.65992 -2.43009e-05 -2.44103e-05 -0.614225 0 0 0 0.0835 
1 1 0.5 0.5 3.46224 0 0 0 8.65265e-06 8.74935e-06 -3.71379 5.29471e-05 5.28792e-05 -0.563096 0 0 0 0.0835 
ITEM: TIMESTEP
700
ITEM: NUMBER OF ATOMS
2
ITEM: BOX BOUNDS ff ff ff
0 1
0 1
0 4
ITEM: ATOMS id type x y z ix iy iz vx vy vz fx fy fz omegax omegay omegaz radius 
2 1 0.5 0.5 3.1121 0 0 0 1.30061e-05 1.30564e-05 -4.14025 8.25283e-05 8.24506e-05 -0.546968 0 0 0 0.0835 
1 1 0.5 0.5 3.45039 0 0 0 3.49956e-07 3.88941e-07 -4.17884 -3.5811e-05 -3.58622e-05 -0.536691 0 0 0 0.0835 
ITEM: TIMESTEP
800
ITEM: NUMBER OF ATOMS
2
ITEM: BOX BOUNDS ff ff ff
0 1
0 1
0 4
ITEM: ATOMS id type x y z ix iy iz vx vy vz fx fy fz omegax omegay omegaz radius 
2 1 0.5 0.5 3.09901 0 0 0 7.58045e-06 7.59138e-06 -4.58739 -3.1074e-06 -3.27614e-06 -0.528741 0 0 0 0.0835 
1 1 0.5 0.5 3.4372 0 0 0 3.11475e-06 3.12738e-06 -4.6154 1.19985e-05 1.19668e-05 -0.504468 0 0 0 0.0835 
ITEM: TIMESTEP
900
ITEM: NUMBER OF ATOMS
2
ITEM: BOX BOUNDS ff ff ff
0 1
0 1
0 4
ITEM: ATOMS id type x y z ix iy iz vx vy vz fx fy fz omegax omegay omegaz radius 
2 1 0.5 0.5 3.0846 0 0 0 5.07874e-06 5.0564e-06 -5.01252 2.92911e-05 2.85964e-05 -0.491392 0 0 0 0.0835 
1 1 0.5 0.5 3.42273 0 0 0 5.34547e-06 5.50793e-06 -5.0226 0.000110963 0.000110018 -0.493117 0 0 0 0.0835 
ITEM: TIMESTEP
1000
ITEM: NUMBER OF ATOMS
2
ITEM: BOX BOUNDS ff ff ff
0 1
0 1
0 4
ITEM: ATOMS id type x y z ix iy iz vx vy vz fx fy fz omegax omegay omegaz radius 
2 1 0.5 0.5 3.06896 0 0 0 1.16609e-05 1.17129e-05 -5.41166 1.36094e-05 1.36403e-05 -0.495039 0 0 0 0.0835 
1 1 0.5 0.5 3.40709 0 0 0 -5.71075e-06 -5.6243e-06 -5.39537 -0.000114915 -0.000114892 -0.443568 0 0 0 0.0835 
ITEM: TIMESTEP
1100
ITEM: NUMBER OF ATOMS
2
ITEM: BOX BOUNDS ff ff ff
0 1
0 1
0 4
ITEM: ATOMS id type x y z ix iy iz vx vy vz fx fy fz omegax omegay omegaz radius 
1 1 0.5 0.5 3.39037 0 0 0 -2.06118e-05 -2.03751e-05 -5.75298 -1.44497e-05 -1.47615e-05 -0.443672 0 0 0 0.0835 
2 1 0.5 0.5 3.05217 0 0 0 -2.917e-06 -2.82511e-06 -5.77358 2.68351e-05 2.66348e-05 -0.443286 0 0 0 0.0835 
ITEM: TIMESTEP
1200
ITEM: NUMBER OF ATOMS
2
ITEM: BOX BOUNDS ff ff ff
0 1
0 1
0 4
ITEM: ATOMS id type x y z ix iy iz vx vy vz fx fy fz omegax omegay omegaz radius 
1 1 0.5 0.5 3.37263 0 0 0 -5.05784e-05 -5.1068e-05 -6.06966 7.59283e-06 -1.33635e-06 -0.357909 0 0 0 0.0835 
2 1 0.5 0.5 3.03432 0 0 0 -8.763e-06 -1.0975e-05 -6.1152 -3.6686e-05 -4.81963e-05 -0.373481 0 0 0 0.0835 
ITEM: TIMESTEP
1300
ITEM: NUMBER OF ATOMS
2
ITEM: BOX BOUNDS ff ff ff
0 1
0 1
0 4
ITEM: ATOMS id type x y z ix iy iz vx vy vz fx fy fz omegax omegay omegaz radius 
1 1 0.5 0.5 3.35397 0 0 0 -5.66947e-05 -5.65355e-05 -6.36215 1.40071e-05 1.71621e-05 -0.350751 0 0 0 0.0835 
2 1 0.5 0.5 3.0155 0 0 0 -2.96088e-05 -3.04336e-05 -6.43458 -5.25745e-05 -5.3136e-05 -0.390076 0 0 0 0.0835 
ITEM: TIMESTEP
1400
ITEM: NUMBER OF ATOMS
2
ITEM: BOX BOUNDS ff ff ff
0 1
0 1
0 4
ITEM: ATOMS id type x y z ix iy iz vx vy vz fx fy fz omegax omegay omegaz radius 
1 1 0.499999 0.499999 3.33447 0 0 0 -9.68648e-05 -9.69983e-05 -6.62789 1.67209e-05 1.65358e-05 -0.268693 0 0 0 0.0835 
2 1 0.5 0.5 2.99578 0 0 0 -1.99286e-05 -2.10931e-05 -6.70918 -3.17951e-05 -3.29155e-05 -0.338345 0 0 0 0.0835 
ITEM: TIMESTEP
1500
ITEM: NUMBER OF ATOMS
2
ITEM: BOX BOUNDS ff ff ff
0 1
0 1
0 4
ITEM: ATOMS id type x y z ix iy iz vx vy vz fx fy fz omegax omegay omegaz radius 
2 1 0.5 0.5 2.97525 0 0 0 -4.03599e-05 -4.22445e-05 -6.97516 1.94204e-05 1.96532e-05 -0.317097 0 0 0 0.0835 
1 1 0.499999 0.499999 3.31421 0 0 0 -0.000187853 -0.00018814 -6.87788 0.000103116 0.000103121 -0.27534 0 0 0 0.0835 
ITEM: TIMESTEP
1600
ITEM: NUMBER OF ATOMS
2
ITEM: BOX BOUNDS ff ff ff
0 1
0 1
0 4
ITEM: ATOMS id type x y z ix iy iz vx vy vz fx fy fz omegax omegay omegaz radius 
2 1 0.5 0.5 2.95396 0 0 0 -6.45743e-05 -6.66318e-05 -7.20766 -0.000183849 -0.00018475 -0.24237 0 0 0 0.0835 
1 1 0.499998 0.499998 3.29325 0 0 0 -0.000229291 -0.000229607 -7.09794 6.45769e-07 5.28446e-07 -0.292556 0 0 0 0.0835 
ITEM: TIMESTEP
1700
ITEM: NUMBER OF ATOMS
2
ITEM: BOX BOUNDS ff ff ff
0 1
0 1
0 4
ITEM: ATOMS id type x y z ix iy iz vx vy vz fx fy fz omegax omegay omegaz radius 
2 1 0.5 0.5 2.932 0 0 0 -6.32297e-05 -6.8665e-05 -7.42143 -2.74267e-05 -4.44442e-05 -0.220481 0 0 0 0.0835 
1 1 0.499997 0.499997 3.27165 0 0 0 -0.000286838 -0.000288164 -7.29963 0.000344652 0.000331232 -0.23266 0 0 0 0.0835 
ITEM: TIMESTEP
1800
ITEM: NUMBER OF ATOMS
2
ITEM: BOX BOUNDS ff ff ff
0 1
0 1
0 4
ITEM: ATOMS id type x y z ix iy iz vx vy vz fx fy fz omegax omegay omegaz radius 
2 1 0.499999 0.499999 2.90943 0 0 0 -9.03004e-05 -9.43066e-05 -7.61961 3.76115e-05 3.79662e-05 -0.166711 0 0 0 0.0835 
1 1 0.499996 0.499996 3.24944 0 0 0 -0.000315293 -0.000315675 -7.49724 -0.000299831 -0.000299263 -0.228328 0 0 0 0.0835 
ITEM: TIMESTEP
1900
ITEM: NUMBER OF ATOMS
2
ITEM: BOX BOUNDS ff ff ff
0 1
0 1
0 4
ITEM: ATOMS id type x y z ix iy iz vx vy vz fx fy fz omegax omegay omegaz radius 
2 1 0.499999 0.499999 2.88632 0 0 0 -0.000106265 -0.000111973 -7.79451 -0.000336623 -0.000332045 -0.197136 0 0 0 0.0835 
1 1 0.499995 0.499995 3.22668 0 0 0 -0.000633641 -0.000634769 -7.67515 -0.00029262 -0.000291814 -0.226348 0 0 0 0.0835 
ITEM: TIMESTEP
2000
ITEM: NUMBER OF ATOMS
2
ITEM: BOX BOUNDS ff ff ff
0 1
0 1
0 4
ITEM: ATOMS id type x y z ix iy iz vx vy vz fx fy fz omegax omegay omegaz radius 
2 1 0.499999 0.499999 2.8627 0 0 0 -0.000104831 -0.000110736 -7.95626 -2.65507e-05 -2.81568e-05 -0.147789 0 0 0 0.0835 
1 1 0.499994 0.499994 3.20338 0 0 0 -0.000644183 -0.000645392 -7.85222 -0.000121489 -0.000119892 -0.225462 0 0 0 0.0835 
ITEM: TIMESTEP
2100
ITEM: NUMBER OF ATOMS
2
ITEM: BOX BOUNDS ff ff ff
0 1
0 1
0 4
ITEM: ATOMS id type x y z ix iy iz vx vy vz fx fy fz omegax omegay omegaz radius 
2 1 0.499999 0.499998 2.83863 0 0 0 -0.000132382 -0.000139137 -8.09771 4.58208e-05 7.77303e-05 -0.190862 0 0 0 0.0835 
1 1 0.499991 0.499991 3.17955 0 0 0 -0.000764678 -0.000765802 -8.02587 0.000247043 0.000251986 -0.250978 0 0 0 0.0835 
ITEM: TIMESTEP
2200
ITEM: NUMBER OF ATOMS
2
ITEM: BOX BOUNDS ff ff ff
0 1
0 1
0 4
ITEM: ATOMS id type x y z ix iy iz vx vy vz fx fy fz omegax omegay omegaz radius 
2 1 0.499998 0.499998 2.81415 0 0 0 -0.000168291 -0.000177347 -8.22882 -5.46792e-05 -5.54363e-05 -0.156656 0 0 0 0.0835 
1 1 0.499989 0.499989 3.15522 0 0 0 -0.000742094 -0.000744339 -8.19341 -0.000110294 -0.000111828 -0.212407 0 0 0 0.0835 
ITEM: TIMESTEP
2300
ITEM: NUMBER OF ATOMS
2
ITEM: BOX BOUNDS ff ff ff
0 1
0 1
0 4
ITEM: ATOMS id type x y z ix iy iz vx vy vz fx fy fz omegax omegay omegaz radius 
2 1 0.499998 0.499997 2.78931 0 0 0 -0.000184197 -0.000195394 -8.33931 7.07736e-05 4.65774e-05 -0.165128 0 0 0 0.0835 
1 1 0.499987 0.499987 3.13038 0 0 0 -0.000563884 -0.000566618 -8.36163 0.00044527 0.000442394 -0.211695 0 0 0 0.0835 
ITEM: TIMESTEP
2400
ITEM: NUMBER OF ATOMS
2
ITEM: BOX BOUNDS ff ff ff
0 1
0 1
0 4
ITEM: ATOMS id type x y z ix iy iz vx vy vz fx fy fz omegax omegay omegaz radius 
2 1 0.499997 0.499997 2.76414 0 0 0 -0.000185056 -0.000196302 -8.4463 -1.68376e-05 -2.07056e-05 -0.0922211 0 0 0 0.0835 
1 1 0.499984 0.499984 3.10503 0 0 0 -0.00122763 -0.00123036 -8.53127 -0.000316622 -0.000318488 -0.201426 0 0 0 0.0835 
ITEM: TIMESTEP
2500
ITEM: NUMBER OF ATOMS
2
ITEM: BOX BOUNDS ff ff ff
0 1
0 1
0 4
ITEM: ATOMS id type x y z ix iy iz vx vy vz fx fy fz omegax omegay omegaz radius 
2 1 0.499996 0.499996 2.73867 0 0 0 -0.000175353 -0.000188403 -8.54175 8.61241e-05 0.000121367 -0.147324 0 0 0 0.0835 
1 1 0.49998 0.49998 3.07915 0 0 0 -0.00157987 -0.00158234 -8.70922 0.000385026 0.000388567 -0.228949 0 0 0 0.0835 
ITEM: TIMESTEP
2600
ITEM: NUMBER OF ATOMS
2
ITEM: BOX BOUNDS ff ff ff
0 1
0 1
0 4
ITEM: ATOMS id type x y z ix iy iz vx vy vz fx fy fz omegax omegay omegaz radius 
2 1 0.499996 0.499996 2.71291 0 0 0 -0.00016201 -0.000177757 -8.6348 -4.43149e-05 -4.38698e-05 -0.111827 0 0 0 0.0835 
1 1 0.499976 0.499976 3.05278 0 0 0 -0.00127848 -0.00128085 -8.88226 -9.23824e-05 -9.15574e-05 -0.236199 0 0 0 0.0835 
ITEM: TIMESTEP
2700
ITEM: NUMBER OF ATOMS
2
ITEM: BOX BOUNDS ff ff ff
0 1
0 1
0 4
ITEM: ATOMS id type x y z ix iy iz vx vy vz fx fy fz omegax omegay omegaz radius 
2 1 0.499995 0.499995 2.68691 0 0 0 -0.000178338 -0.000196483 -8.71281 -0.000122806 -0.000120515 -0.106653 0 0 0 0.0835 
1 1 0.499972 0.499972 3.02586 0 0 0 -0.00103494 -0.00103752 -9.05962 -4.45125e-05 -4.43475e-05 -0.236563 0 0 0 0.0835 
ITEM: TIMESTEP
2800
ITEM: NUMBER OF ATOMS
2
ITEM: BOX BOUNDS ff ff ff
0 1
0 1
0 4
ITEM: ATOMS id type x y z ix iy iz vx vy vz fx fy fz omegax omegay omegaz radius 
2 1 0.499995 0.499995 2.66066 0 0 0 -0.000167897 -0.000186576 -8.78862 -4.26117e-05 -4.49452e-05 -0.0685649 0 0 0 0.0835 
1 1 0.499967 0.499967 2.99841 0 0 0 -0.00183595 -0.00183837 -9.24425 -0.000185108 -0.000184735 -0.242494 0 0 0 0.0835 
ITEM: TIMESTEP
2900
ITEM: NUMBER OF ATOMS
2
ITEM: BOX BOUNDS ff ff ff
0 1
0 1
0 4
ITEM: ATOMS id type x y z ix iy iz vx vy vz fx fy fz omegax omegay omegaz radius 
2 1 0.499994 0.499994 2.6342 0 0 0 -0.000146578 -0.000168491 -8.85962 -4.3628e-05 -5.13066e-05 -0.00845015 0 0 0 0.0835 
1 1 0.499962 0.499962 2.97039 0 0 0 -0.00176244 -0.0017644 -9.42267 -0.000193551 -0.000195024 -0.234909 0 0 0 0.0835 
ITEM: TIMESTEP
3000
ITEM: NUMBER OF ATOMS
2
ITEM: BOX BOUNDS ff ff ff
0 1
0 1
0 4
ITEM: ATOMS id type x y z ix iy iz vx vy vz fx fy fz omegax omegay omegaz radius 
2 1 0.499994 0.499993 2.60752 0 0 0 -0.000170076 -0.000193537 -8.92258 1.16039e-06 6.50906e-06 0.00661122 0 0 0 0.0835 
1 1 0.499956 0.499956 2.94183 0 0 0 -0.0019029 -0.00190415 -9.61851 -0.00170566 -0.00170458 -0.252919 0 0 0 0.0835 
ITEM: TIMESTEP
3100
ITEM: NUMBER OF ATOMS
2
ITEM: BOX BOUNDS ff ff ff
0 1
0 1
0 4
ITEM: ATOMS id type x y z ix iy iz vx vy vz fx fy fz omegax omegay omegaz radius 
2 1 0.499993 0.499993 2.58067 0 0 0 -0.000194641 -0.000220455 -8.98084 8.15361e-06 1.37807e-05 -0.0696323 0 0 0 0.0835 
1 1 0.499951 0.499951 2.91269 0 0 0 -0.00235747 -0.00235866 -9.80935 -0.000640952 -0.000639229 -0.238538 0 0 0 0.0835 
ITEM: TIMESTEP
3200
ITEM: NUMBER OF ATOMS
2
ITEM: BOX BOUNDS ff ff ff
0 1
0 1
0 4
ITEM: ATOMS id type x y z ix iy iz vx vy vz fx fy fz omegax omegay omegaz radius 
2 1 0.499993 0.499992 2.55362 0 0 0 -0.000190021 -0.000217004 -9.03419 -0.000234979 -0.000233542 -0.0400988 0 0 0 0.0835 
1 1 0.499944 0.499944 2.88297 0 0 0 -0.0024165 -0.00241726 -10.0121 -0.000168805 -0.000157667 -0.236419 0 0 0 0.0835 
ITEM: TIMESTEP
3300
ITEM: NUMBER OF ATOMS
2
ITEM: BOX BOUNDS ff ff ff
0 1
0 1
0 4
ITEM: ATOMS id type x y z ix iy iz vx vy vz fx fy fz omegax omegay omegaz radius 
2 1 0.499992 0.499992 2.52641 0 0 0 -0.000103778 -0.000134701 -9.09978 0.000454849 0.000450898 -0.0882633 0 0 0 0.0835 
1 1 0.499937 0.499937 2.85261 0 0 0 -0.00223922 -0.0022387 -10.2174 0.000512748 0.000513371 -0.307767 0 0 0 0.0835 
