/*--------------------------------*- C++ -*----------------------------------*\
| =========                 |                                                 |
| \\      /  F ield         | OpenFOAM: The Open Source CFD Toolbox           |
|  \\    /   O peration     | Version:  5.x                                   |
|   \\  /    A nd           | Web:      www.OpenFOAM.org                      |
|    \\/     M anipulation  |                                                 |
\*---------------------------------------------------------------------------*/
FoamFile
{
    version     2.0;
    format      ascii;
    class       volScalarField;
    location    "0.084";
    object      interFace;
}
// * * * * * * * * * * * * * * * * * * * * * * * * * * * * * * * * * * * * * //

dimensions      [0 0 0 0 0 0 0];

internalField   nonuniform List<scalar> 
1560
(
0
0
0
0
0
0
0
0
0
0
0
0
0
0
0
0
0
0
0
0
0
0
0
0
0
0
0
0
0
0
0
0
0
0
0
0
0
0
0
0
0
0
0
0
0
0
0
0
0
0
0
0
0
0
0
0
0
0
0
0
0
0
0
0
0
0
0
0
0
0
0
0
0
0
0
0
0
0
0
0
0
0
0
0
0
0
0
0
0
0
0
0
0
0
0
0
0
0
0
0
0
0
0
0
0
0
0
0
0
0
0
0
0
0
0
0
0
0
0
0
0
0
0
0
0
0
0
0
0
0
0
0
0
0
0
0
0
0
0
0
0
0
0
0
0
0
0
0
0
0
0
0
0
0
0
0
0
0
0
0
0
0
0
0
0
0
0
0
0
0
0
0
0
0
0
0
0
0
0
0
0
0
0
0
0
0
0
0
0
0
0
0
0
0
0
0
0
0
0
0
0
0
0
0
0
0
0
0
0
0
0
0
0
0
0
0
0
0
0
0
0
0
0
0
0
0
0
0
0
0
0
0
0
0
0
0
0
0
0
0
0
0
0
0
0
0
0
0
0
0
0
0
0
0
0
0
0
0
0
0
0
0
0
0
0
0
0
0
0
0
0
0
0
0
0
0
0
0
0
0
0
0
0
0
0
0
0
0
0
0
0
0
0
0
0
0
0
0
0
0
0
0
0
0
0
0
0
0
0
0
0
0
0
0
0
0
0
0
0
0
0
0
0
0
0
0
0
0
0
0
0
0
0
0
0
0
0
0
0
0
0
0
0
0
0
0
0
0
0
0
0
0
0
0
0
0
0
0
0
0
0
0
0
0
0
0
0
0
0
0
0
0
0
0
0
0
0
0
0
0
0
0
0
0
0
0
0
0
0
0
0
0
0
0
0
0
0
0
0
0
0
0
0
0
0
0
0
0
0
0
0
0
0
0
0
0
0
0
0
0
0
0
0
0
0
0
0
0
0
0
0
0
0
0
0
0
0
0
0
0
0
0
0
0
0
0
0
0
0
0
0
0
0
0
0
0
0
0
0
0
0
0
0
0
0
0
0
0
0
0
0
0
0
0
0
0
0
0
0
0
0
0
0
0
0
0
0
0
0
0
0
0
0
0
0
0
0
0
0
0
0
0
0
0
0
0
0
0
0
0
0
0
0
0
0
0
0
0
0
0
0
0
0
0
0
0
0
0
0
0
0
0
0
0
0
0
0
0
0
0
0
0
0
0
0
0
0
0
0
0
0
0
0
0
0
0
0
0
0
0
0
0
0
0
0
0
0
0
0
0
0
0
0
0
0
0
0
0
0
0
0
0
0
0
0
0
0
0
0
0
0
0
0
0
0
0
0
0
0
0
0
0
0
0
0
0
0
0
0
0
0
0
0
0
0
0
0
0
0
0
0
0
0
0
0
0
0
0
0
0
0
0
0
0
0
0
0
0
0
0
0
0
0
0
0
0
0
0
0
0
0
0
0
0
0.423387
0
0
0
0
0.854468
0
0
0
0
0
0
0
0
0
0
0
0
0
0
0
0
0
0
0
0.328321
0
0
0
0
0.849044
0
0
0
0
0
0
0
0
0
0
0
0
0
0
0
0
0
0
0
0
0
0
0
0
0
0
0
0
0
0
0
0
0
0
0
0
0
0
0
0
0
0
0
0
0.629339
0
0
0
0
0
0
0
0
0
0
0
0
0
0
0
0
0
0
0
0
0
0
0
0
0.280052
0
0
0
0
0.728453
0
0
0
0
0
0
0
0
0
0
0
0
0
0
0
0
0
0
0
0.647893
0
0
0
0
0
0
0
0
0
0
0
0
0
0
0
0
0
0
0
0
0
0
0
0
0
0
0
0
0
0
0
0
0
0
0
0
0
0
0
0
0
0
0
0
0
0
0
0
0
0
0
0
0
0
0
0
0
0
0
0
0
0
0
0
0
0
0
0
0
0
0
0
0
0
0
0
0
0
0
0
0
0
0
0
0
0
0
0
0
0
0
0
0
0
0
0
0
0
0
0
0
0
0
0
0
0
0
0
0
0
0
0
0
0
0
0
0
0
0
0
0
0
0
0
0
0
0
0
0
0
0
0
0
0
0
0
0
0
0
0
0
0
0
0
0
0
0
0
0
0
0
0
0
0
0
0
0
0
0
0
0
0
0
0
0
0
0
0
0
0
0
0
0
0
0
0
0
0
0
0
0
0
0
0
0
0
0
0
0
0
0
0
0
0
0
0
0
0
0
0
0
0
0
0
0
0
0
0
0
0
0
0
0
0
0
0
0
0
0
0
0.0112667
0.549122
0.280337
0.488702
0.219917
0.757772
0.488987
0.379108
0.916964
0.648178
0
0
0
0
0.360554
0.898409
0.629624
0.300143
0.0313577
0.569213
0.300428
0.843474
0
0
0.889228
0.710038
0
0.889418
0
0
0
0
0
0
0
0
0
0
0
0
0
0
0.0596147
0.597461
0.328755
0.727638
0.458931
0.996778
0.728072
0.672764
0.423883
0.423978
0.58312
0.468752
0.627894
0.627989
0.762359
0.513478
0.692763
0.851905
0.558347
0.896775
0.717489
0.762454
0.513668
0.692953
0.85219
0.558442
0.896965
0.717679
0.503679
0.503824
0.548572
0.370646
0.281005
0.325753
0.325898
0.507531
0
0.848754
0
0.935538
0
0
0.50811
0
0
0
0.936117
0
0
0.593248
0.77253
0.638141
0.460215
0.549712
0.594604
0.415322
0.593538
0.77282
0.638286
0.46036
0.550146
0.594894
0.415612
0.852049
0.782453
0.782548
0
0.648037
0.986465
0.98656
0.862244
0.862389
0.727855
0.549929
0.818852
0.684318
0.684463
0.19519
0.105546
0.264691
0.264786
0.309561
0.150321
0.150416
0.459288
0
0.728358
0
0.667938
0
0.907788
0.459668
0
0
0.907979
0.668318
0
0
0.284785
0.374331
0.354287
0.533572
0.419201
0.399156
0.239916
0.28488
0.374617
0.354477
0.533762
0.419391
0.399251
0.240106
0.15468
0.692527
0.423821
0.284857
0.0161503
0.553997
0.285291
0.237541
0.104363
0.104508
0.1479
0.149256
0.192648
0.192793
0.32711
0.193932
0.373214
0.416606
0.238825
0.461499
0.282217
0.327254
0.194221
0.373503
0.41704
0.238969
0.461788
0.282506
0.374476
0.643402
0.623262
0.623357
0.508891
0.508986
0.488846
0.416823
0.462927
0.463072
0.685746
0.328538
0.551212
0.551357
0.12564
0.0560412
0.0561362
0.0359962
0.100911
0.0807707
0.0808658
0.215235
0.145636
0.324921
0.304781
0.190506
0.349651
0.170366
0.21533
0.145826
0.325111
0.305066
0.190601
0.349841
0.170556
0.553568
0.891995
0.712808
0.598437
0.936864
0.822494
0.777624
0.553948
0.713093
0.89247
0.598722
0.937245
0.822874
0.778099
0.0608986
0.0610432
0.105791
0.107148
0.0175064
0.0622547
0.0623993
0.602596
0
0.854179
0
0.464067
0
0.733207
0.603175
0
0
0.733352
0.464645
0
0
0.552424
0.595816
0.640709
0.864739
0.731561
0.776454
0.819846
0.552858
0.596395
0.641143
0.865318
0.732285
0.777033
0.82057
0.150467
0.32975
0.19536
0.196716
0.286213
0.331106
0.151823
0.150757
0.330039
0.195505
0.196861
0.286647
0.331395
0.152113
0.304925
0.414611
0.414706
0.573852
0.280196
0.439341
0.439436
0.419463
0.419608
0.285074
0.28643
0.555353
0.420819
0.420964
0
0
0
0
0
0
0
0.0761322
0.0762272
0.121002
0.185913
0.0962692
0.141044
0.141139
0.848954
0
0
0
0.479379
0
0.748449
0.849334
0
0
0.748544
0.479759
0
0
0.165727
0.345012
0.210597
0.275508
0.365054
0.409924
0.230639
0.165917
0.345202
0.210692
0.275603
0.365339
0.410114
0.230829
0.683345
0.504158
0.484018
0.728214
0.528887
0.752944
0.708074
0.504443
0.68382
0.484398
0.728594
0.529172
0.753324
0.708549
0.859748
0
0
0.559204
0.290498
0.828345
0.559638
0.153324
0.199429
0.199573
0.0636831
0.244321
0.108431
0.108576
0.242893
0.288997
0.46828
0.332389
0.33389
0.377282
0.198
0.434702
0.434797
0.300287
0.365198
0.634125
0.499614
0.499709
0.243038
0.289287
0.468569
0.332823
0.334035
0.377572
0.198289
0.508959
0.688097
0.73299
0.465423
0.510316
0.734346
0.689453
0.509393
0.68882
0.733568
0.466001
0.51075
0.734925
0.690176
0.332606
0.557993
0.558138
0.60153
0.423604
0.466996
0.46714
0.594038
0.952605
0.753183
0.818189
0.618767
0.842919
0.977334
0.593848
0.952415
0.753088
0.817904
0.618577
0.842634
0.977144
0.295645
0.405328
0.405423
0.206001
0.450198
0.250776
0.250871
0
0
0
0
0
0
0
0.598673
0.957237
0.822703
0.734563
0.600029
0.824059
0.958593
0.598962
0.957527
0.823137
0.734708
0.600318
0.824493
0.958883
0.38524
0.494923
0.674209
0.474786
0.539793
0.519656
0.340371
0.385335
0.495113
0.674399
0.475071
0.539888
0.519846
0.340561
0.703436
0.524248
0.748305
0.54429
0.58916
0.813217
0.768347
0.524534
0.703911
0.748685
0.544671
0.589445
0.813597
0.768822
0.335246
0.335391
0.380139
0.560777
0.471136
0.515885
0.516029
0
0
0
0
0.946387
0
0
0
0
0
0
0.946966
0
0
0.47493
0.763899
0.763994
0.743857
0.629483
0.609346
0.609441
0.647489
0.511599
0.556492
0.780523
0.826627
0.87152
0.73563
0.647923
0.512178
0.556926
0.781101
0.82735
0.872098
0.736353
0.424815
0.604097
0.469708
0.650346
0.739843
0.784736
0.605453
0.425104
0.604387
0.469853
0.650491
0.740277
0.785025
0.605743
0.693811
0.693955
0.559421
0.74006
0
0.874449
0.874594
0
0
0
0
0
0
0
0.613939
0.972506
0.837995
0.813361
0.67885
0.902907
0
0.614129
0.972696
0.83828
0.813456
0.67904
0.903192
0
)
;

boundaryField
{
    inlet
    {
        type            calculated;
        value           uniform 0;
    }
    wall
    {
        type            calculated;
        value           uniform 0;
    }
    outlet
    {
        type            calculated;
        value           uniform 0;
    }
    procBoundary2to0
    {
        type            processor;
        value           uniform 0;
    }
    procBoundary2to3
    {
        type            processor;
        value           uniform 0;
    }
}


// ************************************************************************* //
