/*--------------------------------*- C++ -*----------------------------------*\
| =========                 |                                                 |
| \\      /  F ield         | OpenFOAM: The Open Source CFD Toolbox           |
|  \\    /   O peration     | Version:  5.x                                   |
|   \\  /    A nd           | Web:      www.OpenFOAM.org                      |
|    \\/     M anipulation  |                                                 |
\*---------------------------------------------------------------------------*/
FoamFile
{
    version     2.0;
    format      ascii;
    class       surfaceScalarField;
    location    "0.084";
    object      phi;
}
// * * * * * * * * * * * * * * * * * * * * * * * * * * * * * * * * * * * * * //

dimensions      [0 3 -1 0 0 0 0];

internalField   nonuniform List<scalar> 
4324
(
-5.54511e-07
6.38107e-09
5.236e-09
-4.94572e-07
-1.07823e-08
-1.78572e-07
-4.19324e-07
-1.77521e-08
-1.95866e-07
-2.92711e-07
-3.25083e-08
-2.49899e-07
-4.1108e-08
-2.36764e-07
-5.61553e-07
1.2643e-07
2.35506e-09
-5.02609e-07
1.13522e-07
-1.83228e-07
-4.27955e-07
1.07857e-07
-2.00242e-07
-3.01066e-07
9.49766e-08
-2.54343e-07
8.7193e-08
-2.40376e-07
-5.71621e-07
2.20898e-07
3.13522e-08
-5.14096e-07
2.11204e-07
-1.55189e-07
-4.40715e-07
2.06665e-07
-1.72171e-07
-3.14638e-07
1.9613e-07
-2.2721e-07
1.89366e-07
-2.13435e-07
-5.75685e-07
2.97519e-07
5.05049e-08
-5.18581e-07
2.90381e-07
-1.36262e-07
-4.45792e-07
2.86573e-07
-1.52681e-07
-3.1983e-07
2.77863e-07
-2.07678e-07
2.71835e-07
-1.93249e-07
-5.82668e-07
1.77853e-07
-5.27434e-07
-9.67947e-09
-4.56482e-07
-2.66409e-08
-3.32137e-07
-8.30991e-08
-7.00755e-08
-3.78143e-08
-8.57739e-08
-1.89822e-08
-8.86584e-08
-8.24508e-08
-1.59007e-07
-1.3836e-07
-8.41307e-08
-1.75797e-07
-1.45793e-07
-8.72191e-08
-2.70442e-07
-9.22202e-08
-2.83803e-07
-3.72486e-08
-5.82475e-08
-1.36601e-08
-8.98472e-08
-5.7846e-08
-1.55211e-07
-1.41589e-07
-6.01809e-08
-1.72428e-07
-1.50483e-07
-6.40151e-08
-2.68619e-07
-6.89749e-08
-2.82576e-07
-3.81775e-08
-6.3747e-08
4.90835e-08
-9.26199e-08
-6.45994e-08
-9.39682e-08
-1.4619e-07
-6.68828e-08
-1.11878e-07
-1.56614e-07
-7.05527e-08
-2.10221e-07
-7.48089e-08
-2.25502e-07
-3.91149e-08
-5.97884e-08
5.92386e-08
-9.46133e-08
-6.08787e-08
-8.44593e-08
-1.49126e-07
-6.25275e-08
-1.02501e-07
-1.6031e-07
-6.53801e-08
-2.01642e-07
-6.83471e-08
-2.17215e-07
-4.07168e-08
1.64435e-07
-9.74977e-08
2.02604e-08
-1.53093e-07
1.74702e-09
-1.65253e-07
-9.8796e-08
-1.15504e-07
-4.68006e-07
8.57151e-09
-4.87618e-08
-4.41079e-07
-7.21898e-09
-3.04265e-07
-3.99067e-07
-1.32433e-08
-3.37316e-07
-2.91044e-07
-2.87247e-08
-5.00451e-07
-3.76878e-08
-5.20425e-07
-4.74436e-07
1.23428e-07
-4.11546e-08
-4.49057e-07
1.11562e-07
-2.99347e-07
-4.07998e-07
1.06204e-07
-3.32914e-07
-3.00162e-07
9.29424e-08
-4.98097e-07
8.46164e-08
-5.18501e-07
-4.83781e-07
1.91952e-07
7.09992e-08
-4.6033e-07
1.82933e-07
-1.88765e-07
-4.21158e-07
1.78491e-07
-2.23314e-07
-3.14789e-07
1.67681e-07
-3.91303e-07
1.60571e-07
-4.1376e-07
-4.87571e-07
2.49613e-07
9.30746e-08
-4.64831e-07
2.43231e-07
-1.67472e-07
-4.26327e-07
2.39664e-07
-2.02155e-07
-3.20392e-07
2.31268e-07
-3.7114e-07
2.25339e-07
-3.93975e-07
-4.93837e-07
2.88194e-07
-4.73263e-07
2.748e-08
-4.36813e-07
-7.90727e-09
-3.3293e-07
-1.78677e-07
-2.03399e-07
-3.53476e-07
-2.31219e-08
-9.11765e-08
-3.48867e-07
-2.80542e-08
-4.10885e-07
-3.3045e-07
-3.16914e-08
-4.57352e-07
-2.54488e-07
-4.07456e-08
-6.78005e-07
-4.75492e-08
-7.14503e-07
-3.56608e-07
7.68589e-08
-8.0208e-08
-3.53266e-07
7.17818e-08
-4.025e-07
-3.36203e-07
6.82095e-08
-4.49856e-07
-2.61195e-07
5.9555e-08
-6.73385e-07
5.27812e-08
-7.10296e-07
-3.60823e-07
1.30623e-07
7.97636e-08
-3.5984e-07
1.26521e-07
-2.4446e-07
-3.45226e-07
1.23388e-07
-2.93082e-07
-2.72446e-07
1.16033e-07
-5.20534e-07
1.10097e-07
-5.60609e-07
-3.62849e-07
1.78891e-07
1.07878e-07
-3.62743e-07
1.75981e-07
-2.1701e-07
-3.49016e-07
1.73451e-07
-2.65921e-07
-2.77023e-07
1.67669e-07
-4.94743e-07
1.62793e-07
-5.35637e-07
-3.65994e-07
3.65597e-07
-3.68075e-07
4.14345e-08
-3.56666e-07
-8.06371e-09
-2.8704e-07
-2.38912e-07
-2.82104e-07
-6.35231e-07
5.29619e-08
-1.57672e-07
-5.98002e-07
3.63123e-08
-6.25794e-07
-5.38362e-07
2.92974e-08
-6.95867e-07
-3.81445e-07
1.04005e-08
-1.01778e-06
-4.58441e-09
-1.06822e-06
-6.43277e-07
2.20814e-07
-1.39299e-07
-6.07624e-07
2.08501e-07
-6.10313e-07
-5.49219e-07
2.02422e-07
-6.81361e-07
-3.91313e-07
1.86245e-07
-1.00712e-06
1.75025e-07
-1.06036e-06
-6.52786e-07
3.11934e-07
1.00547e-07
-6.20384e-07
3.03331e-07
-3.71663e-07
-5.65377e-07
2.98385e-07
-4.44023e-07
-4.11323e-07
2.85629e-07
-7.73944e-07
2.76456e-07
-8.30235e-07
-6.56788e-07
3.87331e-07
1.45415e-07
-6.25438e-07
3.82086e-07
-3.27084e-07
-5.7154e-07
3.78208e-07
-3.99614e-07
-4.18508e-07
3.68766e-07
-7.30884e-07
3.61328e-07
-7.88005e-07
-6.61955e-07
5.25908e-07
-6.33873e-07
5.63648e-08
-5.83573e-07
-1.63608e-08
-4.34734e-07
-3.48916e-07
-4.0871e-07
-7.71444e-07
8.23273e-08
-2.54374e-07
-7.22749e-07
6.83451e-08
-9.01984e-07
-6.43365e-07
6.18396e-08
-1.00368e-06
-4.45369e-07
4.34708e-08
-1.44721e-06
3.22541e-08
-1.52089e-06
-7.78229e-07
2.97238e-07
-2.25611e-07
-7.3135e-07
2.87154e-07
-8.75968e-07
-6.53958e-07
2.81725e-07
-9.7861e-07
-4.57448e-07
2.66077e-07
-1.42622e-06
2.55399e-07
-1.50227e-06
-7.86212e-07
4.13161e-07
1.1603e-07
-7.43021e-07
4.0694e-07
-5.34604e-07
-6.69822e-07
4.0267e-07
-6.38135e-07
-4.77443e-07
3.9052e-07
-1.09074e-06
3.8133e-07
-1.17099e-06
-7.89182e-07
5.08605e-07
1.82114e-07
-7.47195e-07
5.054e-07
-4.67496e-07
-6.75407e-07
5.0215e-07
-5.70847e-07
-4.84499e-07
4.93162e-07
-1.0244e-06
4.85515e-07
-1.10567e-06
-7.92522e-07
7.21508e-07
-7.54218e-07
7.80565e-08
-6.87131e-07
-2.42208e-08
-5.01427e-07
-4.78337e-07
-5.62389e-07
-1.10306e-06
1.78552e-07
-3.95535e-07
-1.0254e-06
1.5729e-07
-1.31009e-06
-9.01858e-07
1.47939e-07
-1.46009e-06
-6.02985e-07
1.2049e-07
-2.08625e-06
1.03849e-07
-2.19084e-06
-1.11313e-06
4.8356e-07
-3.49053e-07
-1.03789e-06
4.7183e-07
-1.26571e-06
-9.16993e-07
4.64783e-07
-1.41632e-06
-6.20157e-07
4.44158e-07
-2.0467e-06
4.29245e-07
-2.15364e-06
-1.12176e-06
6.43267e-07
1.41228e-07
-1.05201e-06
6.38706e-07
-7.71185e-07
-9.37646e-07
6.33707e-07
-9.21383e-07
-6.48292e-07
6.19196e-07
-1.55509e-06
6.06844e-07
-1.66626e-06
-1.12526e-06
7.68933e-07
2.42283e-07
-1.05715e-06
7.69693e-07
-6.66552e-07
-9.44941e-07
7.66272e-07
-8.15578e-07
-6.58223e-07
7.57008e-07
-1.44889e-06
7.47219e-07
-1.5607e-06
-1.12446e-06
1.00732e-06
-1.06196e-06
1.12874e-07
-9.5725e-07
-3.251e-08
-6.80572e-07
-6.6207e-07
-7.76373e-07
-1.5161e-06
2.92452e-07
-6.06087e-07
-1.4016e-06
2.69407e-07
-1.89597e-06
-1.21597e-06
2.60109e-07
-2.12097e-06
-7.90787e-07
2.28733e-07
-2.99549e-06
2.10269e-07
-3.14774e-06
-1.52593e-06
7.25177e-07
-5.31479e-07
-1.41416e-06
7.13174e-07
-1.8212e-06
-1.23184e-06
7.07274e-07
-2.04576e-06
-8.09614e-07
6.83702e-07
-2.92387e-06
6.67828e-07
-3.07816e-06
-1.53546e-06
9.51099e-07
1.69015e-07
-1.4296e-06
9.48509e-07
-1.11233e-06
-1.25572e-06
9.45347e-07
-1.33329e-06
-8.42153e-07
9.29653e-07
-2.21456e-06
9.16784e-07
-2.37265e-06
-1.53678e-06
1.12423e-06
3.23232e-07
-1.43275e-06
1.1269e-06
-9.4892e-07
-1.26174e-06
1.12548e-06
-1.16668e-06
-8.51705e-07
1.1152e-06
-2.04443e-06
1.10475e-06
-2.20222e-06
-1.53417e-06
1.41538e-06
-1.43591e-06
1.67126e-07
-1.27502e-06
-4.12447e-08
-8.7692e-07
-9.11477e-07
-1.06924e-06
-2.09414e-06
4.67267e-07
-8.97608e-07
-1.93415e-06
4.43734e-07
-2.71781e-06
-1.66674e-06
4.33044e-07
-3.05784e-06
-1.05965e-06
3.95291e-07
-4.29168e-06
3.71132e-07
-4.5159e-06
-2.1048e-06
1.0598e-06
-7.79276e-07
-1.94853e-06
1.05995e-06
-2.59361e-06
-1.68614e-06
1.05562e-06
-2.93067e-06
-1.08432e-06
1.03469e-06
-4.16503e-06
1.0155e-06
-4.39083e-06
-2.103e-06
1.36362e-06
2.1121e-07
-1.95592e-06
1.37973e-06
-1.57914e-06
-1.70723e-06
1.37999e-06
-1.90629e-06
-1.12378e-06
1.37175e-06
-3.13502e-06
1.35723e-06
-3.36126e-06
-2.10052e-06
1.58625e-06
4.46069e-07
-1.95588e-06
1.61086e-06
-1.32462e-06
-1.71197e-06
1.61342e-06
-1.64395e-06
-1.13505e-06
1.61355e-06
-2.86309e-06
1.60258e-06
-3.08657e-06
-2.0759e-06
1.97918e-06
-1.9406e-06
2.57293e-07
-1.71382e-06
-4.19447e-08
-1.1618e-06
-1.23896e-06
-1.45656e-06
-2.97238e-06
7.3603e-07
-1.33422e-06
-2.74319e-06
7.08571e-07
-3.91602e-06
-2.33721e-06
7.00732e-07
-4.4464e-06
-1.45474e-06
6.54719e-07
-6.18097e-06
6.29735e-07
-6.52406e-06
-2.98001e-06
1.59851e-06
-1.1441e-06
-2.75471e-06
1.59889e-06
-3.70916e-06
-2.3552e-06
1.60145e-06
-4.23084e-06
-1.48004e-06
1.57428e-06
-5.9597e-06
1.55625e-06
-6.2995e-06
-2.98083e-06
2.04057e-06
2.67221e-07
-2.76398e-06
2.06315e-06
-2.26017e-06
-2.38283e-06
2.07265e-06
-2.75856e-06
-1.52748e-06
2.06298e-06
-4.47899e-06
2.05136e-06
-4.81354e-06
-2.96902e-06
2.35103e-06
6.30868e-07
-2.75474e-06
2.38035e-06
-1.85603e-06
-2.38048e-06
2.39251e-06
-2.33799e-06
-1.53563e-06
2.39053e-06
-4.03542e-06
2.38291e-06
-4.36175e-06
-2.93956e-06
2.81302e-06
-2.73259e-06
4.01905e-07
-2.38145e-06
-3.85434e-08
-1.56527e-06
-1.70106e-06
-2.0102e-06
-4.13301e-06
1.09913e-06
-1.91627e-06
-3.8317e-06
1.09293e-06
-5.58468e-06
-3.253e-06
1.08997e-06
-6.41829e-06
-1.99163e-06
1.04977e-06
-8.89261e-06
1.01978e-06
-9.4279e-06
-4.13171e-06
2.27398e-06
-1.61543e-06
-3.83561e-06
2.32898e-06
-5.24122e-06
-3.26869e-06
2.34543e-06
-6.05314e-06
-2.02264e-06
2.34888e-06
-8.50478e-06
2.33387e-06
-9.03326e-06
-4.0854e-06
2.86894e-06
3.65731e-07
-3.80238e-06
2.96168e-06
-3.17581e-06
-3.2652e-06
2.99062e-06
-3.94084e-06
-2.06726e-06
3.02118e-06
-6.34914e-06
3.01694e-06
-6.85416e-06
-4.05424e-06
3.26068e-06
9.24525e-07
-3.77417e-06
3.36367e-06
-2.53801e-06
-3.24996e-06
3.39535e-06
-3.26685e-06
-2.07175e-06
3.43683e-06
-5.6292e-06
3.43743e-06
-6.11333e-06
-3.95107e-06
3.97085e-06
-3.68343e-06
6.52261e-07
-3.19993e-06
4.23147e-09
-2.08708e-06
-2.27855e-06
-2.71949e-06
-5.92191e-06
1.68468e-06
-2.78326e-06
-5.51193e-06
1.67931e-06
-8.01032e-06
-4.63259e-06
1.69465e-06
-9.36206e-06
-2.80376e-06
1.64294e-06
-1.28533e-05
1.62492e-06
-1.37281e-05
-5.90211e-06
3.40579e-06
-2.29794e-06
-5.49602e-06
3.47131e-06
-7.43923e-06
-4.62973e-06
3.52014e-06
-8.74482e-06
-2.82154e-06
3.51288e-06
-1.21828e-05
3.51459e-06
-1.30185e-05
-5.85759e-06
4.2811e-06
5.11793e-07
-5.45985e-06
4.40137e-06
-4.50352e-06
-4.63822e-06
4.46981e-06
-5.71205e-06
-2.87537e-06
4.5049e-06
-9.10391e-06
4.52049e-06
-9.88816e-06
-5.78861e-06
4.82103e-06
1.3882e-06
-5.39245e-06
4.94245e-06
-3.47516e-06
-4.58992e-06
5.01339e-06
-4.61287e-06
-2.86092e-06
5.05505e-06
-7.90827e-06
5.07616e-06
-8.64896e-06
-5.66632e-06
5.70093e-06
-5.27206e-06
1.0578e-06
-4.52625e-06
7.65513e-08
-2.86888e-06
-3.10077e-06
-3.75243e-06
-8.40042e-06
2.48085e-06
-3.89135e-06
-7.93052e-06
2.57279e-06
-1.13912e-05
-6.67076e-06
2.62194e-06
-1.36265e-05
-3.99253e-06
2.62779e-06
-1.87071e-05
2.60878e-06
-2.01446e-05
-8.32979e-06
4.83867e-06
-3.11322e-06
-7.86191e-06
5.09108e-06
-1.04253e-05
-6.6426e-06
5.20204e-06
-1.25441e-05
-4.01486e-06
5.33062e-06
-1.75133e-05
5.36273e-06
-1.89049e-05
-8.13362e-06
6.02139e-06
8.17817e-07
-7.67007e-06
6.36525e-06
-6.24115e-06
-6.51286e-06
6.51716e-06
-8.18429e-06
-4.01936e-06
6.70233e-06
-1.2969e-05
6.77183e-06
-1.42446e-05
-7.9867e-06
6.66929e-06
2.18674e-06
-7.5209e-06
7.00558e-06
-4.5812e-06
-6.40506e-06
7.15502e-06
-6.36649e-06
-3.97287e-06
7.33909e-06
-1.09771e-05
7.40908e-06
-1.21386e-05
-7.64945e-06
8.17816e-06
-7.18089e-06
1.79911e-06
-6.1636e-06
3.12208e-07
-3.90378e-06
-4.05638e-06
-5.02882e-06
-1.21266e-05
3.75844e-06
-5.47974e-06
-1.15674e-05
3.89335e-06
-1.6272e-05
-9.66703e-06
4.03276e-06
-2.00386e-05
-5.80332e-06
4.04276e-06
-2.72905e-05
4.11797e-06
-2.98558e-05
-1.19707e-05
7.22333e-06
-4.21376e-06
-1.14054e-05
7.54844e-06
-1.46456e-05
-9.51701e-06
7.81387e-06
-1.82135e-05
-5.72386e-06
7.92478e-06
-2.51884e-05
8.07129e-06
-2.7529e-05
-1.17491e-05
8.96763e-06
1.33938e-06
-1.11735e-05
9.43537e-06
-8.70355e-06
-9.41297e-06
9.75731e-06
-1.18882e-05
-5.71583e-06
9.98656e-06
-1.87279e-05
1.01479e-05
-2.07859e-05
-1.14521e-05
9.81159e-06
3.51766e-06
-1.08567e-05
1.02371e-05
-5.97824e-06
-9.15098e-06
1.05437e-05
-8.85845e-06
-5.58072e-06
1.07569e-05
-1.53177e-05
1.09216e-05
-1.7189e-05
-1.10228e-05
1.19274e-05
-1.03858e-05
3.04729e-06
-8.82814e-06
7.3372e-07
-5.44543e-06
-5.36105e-06
-6.85216e-06
-1.78137e-05
5.63116e-06
-7.26864e-06
-1.76922e-05
6.14942e-06
-2.29362e-05
-1.50858e-05
6.56953e-06
-2.96771e-05
-9.23924e-06
7.05798e-06
-4.09331e-05
7.44685e-06
-4.62445e-05
-1.74097e-05
1.0462e-05
-5.20626e-06
-1.71912e-05
1.14194e-05
-2.01341e-05
-1.46878e-05
1.20269e-05
-2.61742e-05
-8.98733e-06
1.28385e-05
-3.66693e-05
1.3328e-05
-4.11226e-05
-1.67275e-05
1.28287e-05
2.56766e-06
-1.6366e-05
1.40012e-05
-1.16467e-05
-1.38895e-05
1.47392e-05
-1.7077e-05
-8.55019e-06
1.55608e-05
-2.67894e-05
1.60853e-05
-3.0485e-05
-1.60933e-05
1.36923e-05
6.01031e-06
-1.56438e-05
1.47002e-05
-7.12665e-06
-1.32972e-05
1.53467e-05
-1.18124e-05
-8.14431e-06
1.60065e-05
-2.09161e-05
1.6417e-05
-2.3988e-05
-1.50822e-05
1.76232e-05
-1.44779e-05
5.46421e-06
-1.23629e-05
1.88409e-06
-7.6813e-06
-6.53548e-06
-8.86299e-06
-2.64381e-05
8.60284e-06
-9.22072e-06
-2.76171e-05
9.79411e-06
-3.20507e-05
-2.57454e-05
1.13684e-05
-4.35292e-05
-1.72062e-05
1.26083e-05
-6.31191e-05
1.42916e-05
-7.72951e-05
-2.55915e-05
1.57476e-05
-5.87105e-06
-2.62101e-05
1.74001e-05
-2.71214e-05
-2.34712e-05
1.97443e-05
-3.7289e-05
-1.52917e-05
2.12587e-05
-5.3499e-05
2.32237e-05
-6.36904e-05
-2.45638e-05
1.91517e-05
5.04216e-06
-2.48244e-05
2.10638e-05
-1.50497e-05
-2.14329e-05
2.29063e-05
-2.36305e-05
-1.33115e-05
2.43757e-05
-3.80278e-05
2.57529e-05
-4.45455e-05
-2.32386e-05
1.99687e-05
1.04826e-05
-2.30716e-05
2.15141e-05
-7.74399e-06
-1.95891e-05
2.29004e-05
-1.52889e-05
-1.19611e-05
2.39094e-05
-2.80779e-05
2.48341e-05
-3.31858e-05
-2.16803e-05
2.63502e-05
-2.11534e-05
9.82589e-06
-1.80066e-05
4.24556e-06
-1.0929e-05
-7.48725e-06
-1.11167e-05
-4.13559e-05
1.38141e-05
-9.89305e-06
-4.94097e-05
1.70648e-05
-4.14964e-05
-4.46289e-05
2.04744e-05
-6.93646e-05
-2.68497e-05
2.27914e-05
-0.000104794
2.36477e-05
-0.000127164
-3.86e-05
2.36265e-05
-4.31956e-06
-4.41574e-05
2.87297e-05
-3.32288e-05
-4.21613e-05
3.21958e-05
-5.10064e-05
-2.60241e-05
3.89194e-05
-8.57641e-05
4.13508e-05
-0.000105393
-3.60567e-05
2.78347e-05
1.08223e-05
-3.81374e-05
3.23583e-05
-1.65976e-05
-3.5047e-05
3.63471e-05
-3.08721e-05
-2.3714e-05
4.20203e-05
-5.24616e-05
4.68944e-05
-7.11545e-05
-3.30938e-05
2.78927e-05
1.88703e-05
-3.45815e-05
3.1169e-05
-5.06683e-06
-3.10516e-05
3.43063e-05
-1.67779e-05
-1.97155e-05
3.68075e-05
-3.42011e-05
3.92168e-05
-4.27432e-05
-2.98306e-05
3.9372e-05
-3.00904e-05
1.81098e-05
-2.60872e-05
9.96364e-06
-1.6278e-05
-6.20002e-06
-1.18462e-05
-6.27349e-05
2.08007e-05
-8.22855e-06
-6.85184e-05
2.5719e-05
-6.20277e-05
-5.63642e-05
2.78488e-05
-0.000110073
-3.47935e-05
2.95755e-05
-0.000157133
3.16927e-05
-0.000193132
-5.60567e-05
3.40892e-05
2.33786e-07
-6.58484e-05
4.19187e-05
-3.96369e-05
-5.34621e-05
4.90086e-05
-8.45525e-05
-3.28214e-05
5.02869e-05
-0.000127116
5.33234e-05
-0.000157821
-5.12523e-05
3.89403e-05
2.03744e-05
-5.59943e-05
4.64862e-05
-1.64231e-05
-5.23133e-05
5.41688e-05
-3.97133e-05
-3.11516e-05
6.25414e-05
-8.58778e-05
6.5369e-05
-0.000111812
-4.61608e-05
3.75431e-05
3.1978e-05
-4.92741e-05
4.3791e-05
7.41744e-07
-4.48089e-05
4.9354e-05
-1.64282e-05
-2.90437e-05
5.37358e-05
-4.11606e-05
6.08104e-05
-6.45053e-05
-3.98836e-05
5.44576e-05
-4.17212e-05
3.11583e-05
-3.69019e-05
1.93827e-05
-2.39932e-05
-1.72204e-06
-1.02379e-05
-8.54154e-05
2.7418e-05
-6.58333e-06
-9.2736e-05
3.47947e-05
-8.98346e-05
-7.95522e-05
3.97171e-05
-0.000163428
-5.39015e-05
4.42241e-05
-0.000228175
5.0757e-05
-0.000297011
-7.87065e-05
4.52734e-05
7.76571e-06
-8.45344e-05
5.86408e-05
-5.76551e-05
-7.14057e-05
6.31722e-05
-0.000121136
-4.73151e-05
6.81624e-05
-0.000175145
7.63157e-05
-0.000228443
-7.15352e-05
5.28763e-05
3.3254e-05
-7.97079e-05
6.45282e-05
-1.41376e-05
-6.60768e-05
7.76458e-05
-6.78179e-05
-4.27618e-05
8.15118e-05
-0.000122542
8.97008e-05
-0.000164781
-6.11894e-05
5.20158e-05
4.77722e-05
-6.72665e-05
5.85835e-05
1.27635e-05
-6.07214e-05
6.885e-05
-1.41775e-05
-3.69503e-05
7.59916e-05
-5.94116e-05
8.29554e-05
-9.15496e-05
-5.46133e-05
7.66834e-05
-5.61136e-05
4.71619e-05
-4.8992e-05
3.21833e-05
-3.1197e-05
5.45083e-06
-8.7328e-06
-0.000118275
3.64078e-05
-5.9884e-06
-0.000132559
4.67572e-05
-0.000122936
-0.000117292
5.66733e-05
-0.000236128
-7.83118e-05
6.54753e-05
-0.000334115
7.42299e-05
-0.00044883
-0.000107145
6.03192e-05
1.58415e-05
-0.000118929
7.55205e-05
-7.46344e-05
-0.000103646
8.94112e-05
-0.000169158
-6.95596e-05
9.97367e-05
-0.000243492
0.000113565
-0.000334662
-9.66958e-05
7.3265e-05
4.62091e-05
-0.000107682
8.68961e-05
-1.45272e-05
-9.31318e-05
0.000104369
-9.7326e-05
-6.06213e-05
0.000115373
-0.000170689
0.00012922
-0.00023763
-8.40273e-05
7.31602e-05
6.83292e-05
-9.04248e-05
8.08496e-05
2.52076e-05
-7.93634e-05
9.37713e-05
-1.46408e-05
-5.07944e-05
0.000104017
-7.66237e-05
0.00011544
-0.000124977
-7.62462e-05
0.000109496
-7.66507e-05
6.7391e-05
-6.42806e-05
4.51971e-05
-4.04693e-05
1.30023e-05
-8.47505e-06
-0.000176218
5.86164e-05
-1.6198e-06
-0.000220501
7.4444e-05
-0.000153454
-0.00021358
0.000102135
-0.000345598
-0.000159985
0.000121011
-0.000510326
0.000155358
-0.000762717
-0.000152029
9.56201e-05
2.91963e-05
-0.000184836
0.000111399
-7.87824e-05
-0.000172123
0.000145866
-0.000225602
-0.00012578
0.000167355
-0.00033618
0.000209153
-0.000511069
-0.000142423
0.000111503
7.39477e-05
-0.000164782
0.000129013
-9.78193e-06
-0.000150385
0.000160796
-0.000126653
-0.000106985
0.000180457
-0.000227191
0.000216492
-0.000347011
-0.000120491
0.000104897
0.000109972
-0.000133173
0.000116662
5.02398e-05
-0.000116096
0.000138832
-9.75331e-06
-7.94275e-05
0.000147773
-8.06081e-05
0.000172353
-0.000155256
-0.000108613
0.000164844
-0.000115646
0.00010884
-0.00010046
7.30758e-05
-6.43781e-05
2.65339e-05
-4.17357e-06
-0.000264203
8.18645e-05
1.37813e-05
-0.000340366
0.000112976
-0.000190943
-0.000341354
0.000155671
-0.000501157
-0.00026153
0.000199329
-0.000791396
0.000256136
-0.00127948
-0.000222782
0.000130259
5.93832e-05
-0.000279226
0.000163397
-7.27598e-05
-0.000269961
0.000220543
-0.000299739
-0.000205041
0.000264547
-0.000466318
0.0003366
-0.000792959
-0.000200688
0.000149265
0.0001197
-0.000240575
0.000181968
1.15346e-05
-0.000225429
0.000236339
-0.000157595
-0.000161016
0.000274623
-0.00030168
0.000336452
-0.000503134
-0.000163467
0.00013818
0.000170222
-0.000186599
0.000159374
9.59651e-05
-0.000168653
0.00019706
1.15801e-05
-0.000118425
0.000218772
-7.49853e-05
0.000261346
-0.000193616
-0.000142042
0.000237475
-0.000153486
0.000168775
-0.000134861
0.000118621
-8.63366e-05
5.5853e-05
1.15462e-05
-0.000429082
0.000142645
6.69535e-05
-0.000626264
0.000186516
-0.000180595
-0.000737314
0.000310821
-0.000701276
-0.000680503
0.000415104
-0.00126571
0.000674835
-0.00263214
-0.000337691
0.000203862
0.000143392
-0.000461911
0.000254495
-1.65186e-05
-0.000497001
0.000389792
-0.00034362
-0.000422188
0.000490378
-0.000616405
0.000731756
-0.00126675
-0.000303464
0.000220752
0.000220937
-0.000389036
0.000276196
7.5406e-05
-0.000395959
0.000383787
-0.000144668
-0.000317755
0.000455904
-0.00034541
0.000621157
-0.000702442
-0.000226263
0.000188879
0.00028361
-0.000281518
0.000221216
0.000206199
-0.000260901
0.000298925
7.58249e-05
-0.000193502
0.000331568
-1.80488e-05
0.000423542
-0.000182256
-0.000193718
0.000350472
-0.000226219
0.00028236
-0.000210517
0.000220713
-0.000149939
0.00013965
6.47181e-05
-0.000641026
0.000185374
0.000182756
-0.000978959
0.000283784
-0.000127028
-0.00120015
0.000481052
-0.00096216
-0.00113734
0.000731279
-0.00206189
0.00113211
-0.00490183
-0.000473723
0.000261061
0.000282158
-0.000682687
0.000357716
0.000118514
-0.000784212
0.000579606
-0.000340649
-0.000737375
0.000777555
-0.000709518
0.00119532
-0.00206621
-0.000406688
0.000276268
0.000366756
-0.00055044
0.000362533
0.000214341
-0.000584882
0.000545668
-7.62876e-05
-0.000487003
0.000677124
-0.000342859
0.000974053
-0.000962233
-0.000290998
0.000237227
0.000429226
-0.000368101
0.000285716
0.000360118
-0.000364225
0.000402487
0.000215129
-0.000290708
0.000468219
0.000117339
0.000636814
-0.000129574
-0.000242001
0.000491871
-0.00028106
0.000427254
-0.000265805
0.000365977
-0.000190081
0.000277458
0.000180718
-0.0010192
0.000271159
0.000472657
-0.00179443
0.000452077
0.000195828
-0.00292577
0.00090775
-0.000739128
-0.00335373
0.00157287
-0.000656891
-0.000995926
-0.000697194
-0.000861156
0.00334801
-0.00277834
-0.00385892
-0.0021866
-0.00277502
-0.000679532
0.000358695
0.000551787
-0.00109895
0.000517476
0.000472532
-0.00146934
0.0009947
-5.72066e-05
-0.00158135
0.0014598
-0.000484441
0.00291946
-0.000861625
-0.000990864
-0.000696243
-0.000651603
-0.000564017
0.000363775
0.000618764
-0.000833059
0.000489406
0.000511452
-0.00100227
0.000826996
0.00026063
-0.00091782
0.00109194
-5.94511e-05
0.00179001
-0.000736072
-0.000363237
0.000295849
0.000650172
-0.000496039
0.000356265
0.000626061
-0.000524904
0.000558168
0.000512823
-0.000459125
0.000670921
0.000472582
0.00101436
0.000197613
-0.000302303
0.00068997
-0.000370819
0.000648421
-0.000366899
0.000619062
-0.000280148
0.000547451
0.000473806
-0.00144997
0.000328355
0.000986269
-0.00281625
0.00060879
0.000952994
-0.00140267
0.00148686
0.000945054
-0.00143085
-0.00165424
-0.00150116
-0.00190453
0.000518155
-0.000674438
-0.0020387
0.00133043
0.00228305
-0.00117927
-0.000974258
-0.000972304
-0.00123362
-0.000846864
0.000407924
0.000940279
-0.00138182
0.000632864
0.000983418
-0.00231255
0.00140086
0.000959513
-0.000725859
0.00230138
0.000339185
0.000274435
0.000202018
0.000342715
-0.000712651
-0.000730466
-0.000680754
-0.00100182
-0.000714283
-0.00100896
-0.00068193
-0.00161137
-0.000655271
0.00169127
-0.00101211
-0.000684625
0.000397163
0.000942019
-0.00103804
0.000556495
0.000941236
-0.00140276
0.00103314
0.000993071
-0.00148928
0.00137491
0.000953552
0.00281256
0.00094314
-0.00142688
-0.00139816
-0.00149984
-0.00164984
-0.000411957
0.000326422
0.000893876
-0.000562504
0.000405568
0.000927535
-0.000639798
0.000680206
0.000943051
-0.000614779
0.000838711
0.000983758
0.00144458
0.000953276
-0.000331865
0.000887928
-0.000402855
0.000891914
-0.000413305
0.000941903
-0.000333734
0.00093515
0.00098558
-0.00155472
0.00033397
0.00157908
-0.00311792
0.000647402
0.00186854
-0.00215778
0.00157647
0.00323687
-0.00172237
-0.00171097
-0.00139672
0.000809049
0.000757708
0.000385322
-0.00099546
-0.00104227
-0.00104436
-0.00102703
0.00177541
0.00133606
-0.00158578
0.000587989
-0.00211258
-0.000899131
0.000419398
0.00140164
-0.00154442
0.000650357
0.00162575
-0.00092069
0.00157455
0.00241433
-0.000749895
-0.000722328
-0.000604409
-0.000931552
-0.00120098
0.000892005
0.000659022
-0.000901218
0.00266114
-0.001216
-0.000888151
-0.00120176
0.00152285
0.000294302
0.00028214
0.000324395
0.000269116
0.000373259
-0.000443583
-0.000408785
-0.000302702
-0.000365006
-0.000696353
0.000395963
0.00129353
-0.00112808
0.000555334
0.00146798
-0.00158567
0.00112041
0.0019048
-0.00160088
0.00153505
0.0024121
-0.000745765
-0.000914617
-0.00060173
-0.000716273
0.003111
0.00324196
-0.00171121
-0.00215262
-0.00140439
-0.00170744
-0.000390909
0.000313202
0.00115659
-0.000562308
0.000382607
0.00127166
-0.000657662
0.000689544
0.00146927
-0.00065421
0.000887672
0.00162768
0.00155163
0.00187268
-0.000320953
0.00108113
-0.00040493
0.00115595
-0.000429271
0.00129494
-0.000344466
0.00139862
0.00158862
-0.000991057
0.000203388
0.00182377
-0.00170478
0.000443861
0.00213813
-0.00135808
0.000880125
0.00373505
-0.00100031
-0.000453202
-0.000268611
0.000390487
0.001294
-0.00144609
-0.000292627
-0.000547738
-0.000528861
-0.000227173
0.000222873
0.00486486
-6.09311e-05
-7.5682e-05
-0.00495139
-0.000590309
0.000273109
0.0015972
-0.000838434
0.000446349
0.00187139
-0.00109359
0.000857007
0.00269261
-0.00030381
0.00108256
0.00321202
-0.00050839
-0.000316296
-0.000197196
0.000321761
-0.000452675
0.000321442
-0.00020036
-0.000922544
-0.00142146
-0.000785909
-0.00092273
-0.000317978
0.000943217
0.00113369
-5.1875e-05
-7.83758e-05
0.000160414
-0.000499607
-4.47908e-05
3.7539e-05
-0.000108856
-0.000142554
-0.00039836
-0.000466637
-0.000469633
-0.000502146
0.000275629
0.00146756
-0.00067298
0.000390902
0.00169427
-0.000851856
0.000668491
0.00227219
-0.00088407
0.000829738
0.00269713
0.00169596
0.00373797
-0.00100014
-0.00137004
-0.000255956
-0.000463886
-0.000310445
0.000255706
0.00128693
-0.000395966
0.000303781
0.0014443
-0.000449412
0.000497732
0.00169347
-0.0004417
0.00057961
0.0018701
0.000984511
0.00213682
-0.000261419
0.00117317
-0.000281823
0.00128729
-0.000277064
0.00146777
-0.000209674
0.00159755
0.00182824
-0.000197958
1.52738e-06
0.00169102
-0.000436462
0.000223375
0.00215433
0.000653439
-0.000101009
0.00274544
0.00107117
-0.000747274
-0.000738158
0.00154837
0.000570835
0.00118082
-0.000328663
0.00238128
-0.000240108
-6.01491e-05
-0.00220926
-0.000501391
-0.00127391
0.00037939
-0.00135904
-0.0148341
0.00403322
0.00479357
0.00363919
0.00441005
-0.000123664
7.45771e-05
0.00154759
-5.38398e-05
0.000159343
0.0018656
0.000125385
6.42552e-06
0.00240595
0.000683671
-0.00015734
0.000524893
0.000471796
0.000541838
0.000525275
-0.000642179
-0.00130163
0.00149267
0.00109071
0.00119217
0.000579712
-5.63871e-05
0.00237128
-0.000253029
-0.000330491
-0.00220519
-0.000487639
-0.0007225
-0.000164066
0.000104413
0.00144049
-0.000114152
0.000115529
0.00168817
-1.21322e-05
0.000106934
0.00206966
7.96743e-05
4.26851e-05
0.0024053
0.000438113
0.00275032
-0.000111833
0.000126612
0.00129675
-0.000123445
0.000103423
0.00146802
-0.000169749
0.000159172
0.00168754
-0.000234082
0.000110427
0.00186669
0.000201249
0.0021566
-0.000133409
0.00117336
-0.000113301
0.00129896
-8.35984e-05
0.00144129
-1.84333e-05
0.00155567
0.00169164
-0.000222459
-5.36868e-05
0.0016016
-0.000459538
0.000156361
0.002237
-0.000212346
-7.80654e-06
0.00287957
3.24461e-05
-0.000239977
-0.000162986
-0.000316628
-3.51535e-05
-0.000599769
0.00321901
0.000199599
-0.000290777
5.48104e-05
-0.0031809
-0.000116007
-2.01692e-05
0.00147312
-0.000118846
0.000120896
0.0019039
-4.9241e-05
-1.70921e-05
0.00241624
-4.65559e-05
-1.23363e-05
-1.17203e-05
2.30396e-05
-0.000162697
5.09489e-05
0.000564359
7.67562e-05
-0.000328066
5.63787e-05
-6.18874e-05
-3.72709e-05
-0.000260934
0.000178511
-0.000239309
-0.000266036
-0.000208917
-0.000210851
-0.000109572
1.39157e-05
0.00134042
-2.13113e-05
6.40505e-05
0.00165675
1.53366e-05
1.53548e-05
0.00200057
-9.86072e-07
0.000115023
0.00242147
-4.54428e-05
-4.77949e-05
-1.06043e-05
-1.10311e-05
0.000453025
0.00288206
4.75492e-05
-0.000214599
-0.000166755
-0.000240213
-8.56138e-05
8.00565e-05
0.00122862
-6.99789e-05
7.94461e-05
0.00143699
-0.000125542
0.000104052
0.00165441
-0.000157782
0.000108935
0.00190502
0.000214414
0.00223417
-8.58284e-05
0.00109005
-2.05476e-05
0.00123176
1.26452e-05
0.00134213
4.77402e-05
0.00148051
0.00160279
0.000572757
-0.00012022
0.00137756
0.00111943
-0.000188655
0.00188139
0.000181231
-0.000531669
0.00247672
0.000342694
0.000760382
0.000772059
-8.98292e-06
0.000470921
2.97151e-05
-0.000185393
-0.000169058
2.64558e-05
1.90965e-05
0.00434465
0.000329862
-5.29742e-05
0.000110893
-0.00473236
0.000445936
-0.000119186
0.00129286
0.000835881
-0.00029441
0.00161971
8.06893e-05
-0.000574783
0.00213058
0.000229397
0.000400109
0.000454462
0.000105895
3.72861e-06
-0.000182201
0.000872918
-0.000719652
-0.000150104
0.000124283
-4.33067e-05
-0.000167033
7.88589e-05
0.000157302
0.000252941
-0.000108794
0.0011633
0.000432436
-0.000266406
0.00144925
0.000577328
-0.00043625
0.00171714
0.000530858
-0.000837886
0.00214166
0.000230858
8.05764e-05
0.000452906
0.000399832
-0.0011152
0.00246333
0.000348088
0.000177145
0.000796484
0.0007709
0.000175137
-4.34782e-05
0.00108447
0.000263307
-0.000179044
0.00126146
0.000287556
-0.00025303
0.00144694
0.000182693
-0.000451171
0.00162317
-0.000573147
0.00188367
3.83894e-05
0.000956451
0.000104023
0.00108963
0.000116006
0.00116541
0.000115607
0.00130473
0.00137708
0.00086981
-0.000234928
0.000970819
0.00175686
-0.000274926
0.00127134
0.00083433
-0.000984975
0.00131519
0.000889596
0.00118345
0.00100201
0.00165291
-0.000345456
6.88591e-06
-0.000477741
0.00365051
-0.000717609
0.000603823
-0.000368063
-0.0031768
0.000609997
-0.00024876
0.000963054
0.00118627
-0.000386582
0.0011551
0.0020128
-0.00102036
0.00133943
0.000783927
-0.00201475
0.00122503
0.000492394
0.000796708
0.000507766
0.00107471
0.000496548
0.00105128
0.000505128
-0.000665621
-0.000970767
-0.000603223
-0.000666336
0.000430989
0.000671268
-0.00140107
-0.000247614
0.000698473
0.000447883
0.000696894
-0.000512896
0.000378513
-0.00021523
0.000881441
0.000734248
-0.000365249
0.00107218
0.00101809
-0.000736465
0.0011494
0.000984774
-0.00119106
0.00135128
-0.00175141
0.00131599
0.000905277
0.000837659
0.000986015
0.00116371
0.000222908
-0.000100196
0.000858978
0.00036265
-0.000226867
0.000983336
0.000385711
-0.00038233
0.00106974
0.000274824
-0.000614864
0.00115786
-0.000875655
0.00127144
9.66737e-05
0.000758574
0.000211932
0.00086431
0.000244413
0.000884965
0.000231211
0.000974812
0.000976594
0.00121645
-0.000221166
0.000615301
0.00221584
-0.000406989
0.00068247
0.00428049
-0.00101544
0.000272155
0.00672325
-0.00276535
-0.0028291
0.000396453
0.00154255
0.000479095
0.000725696
-0.00670726
-0.0262779
0.0101011
0.0131376
0.00655004
0.0099716
0.000873472
-0.000271078
0.000664684
0.00146178
-0.000551814
0.000711617
0.00227274
-0.00112434
0.000637369
0.0027477
-0.00228132
0.000266035
-0.0042713
-0.00282372
0.000719716
0.00153302
0.000480054
0.000400341
0.000550351
-0.000247118
0.000626808
0.000868888
-0.000498768
0.000700598
0.00112777
-0.000865993
0.00063217
0.0010181
-0.00146466
0.000644292
-0.00221153
0.000288145
0.000358165
-0.000158326
0.000649689
0.000497769
-0.00035894
0.000703904
0.000550222
-0.000547777
0.000699074
0.000403517
-0.000873491
0.000713396
-0.0012114
0.000679464
0.000159725