/*--------------------------------*- C++ -*----------------------------------*\
| =========                 |                                                 |
| \\      /  F ield         | OpenFOAM: The Open Source CFD Toolbox           |
|  \\    /   O peration     | Version:  5.x                                   |
|   \\  /    A nd           | Web:      www.OpenFOAM.org                      |
|    \\/     M anipulation  |                                                 |
\*---------------------------------------------------------------------------*/
FoamFile
{
    version     2.0;
    format      ascii;
    class       volScalarField;
    location    "0.081";
    object      phiIB;
}
// * * * * * * * * * * * * * * * * * * * * * * * * * * * * * * * * * * * * * //

dimensions      [0 2 -1 0 0 0 0];

internalField   nonuniform List<scalar> 
1567
(
-0.00032958
-0.000329591
-0.00032961
-0.000329632
-0.000329719
-0.000329405
-0.000329412
-0.000329428
-0.000329448
-0.000329533
-0.000329384
-0.000329391
-0.000329406
-0.000329426
-0.00032951
-0.000329319
-0.000329325
-0.000329336
-0.000329356
-0.000329436
-0.000329326
-0.000329332
-0.000329342
-0.000329363
-0.00032944
-0.000657043
-0.000657043
-0.000657043
-0.000657054
-0.000657045
-0.000656992
-0.000656992
-0.000656991
-0.000657001
-0.000656991
-0.00065695
-0.000656949
-0.000656947
-0.000656956
-0.000656944
-0.00065692
-0.000656918
-0.000656914
-0.000656922
-0.000656908
-0.000656907
-0.000656903
-0.000656897
-0.000656904
-0.000656889
-0.00153987
-0.00153988
-0.00153991
-0.00153996
-0.00154006
-0.00153965
-0.00153965
-0.00153968
-0.00153972
-0.00153983
-0.00153956
-0.00153956
-0.00153958
-0.00153962
-0.00153972
-0.00153945
-0.00153945
-0.00153946
-0.0015395
-0.0015396
-0.00153942
-0.00153941
-0.00153943
-0.00153947
-0.00153956
-0.00200096
-0.00200096
-0.002001
-0.00200106
-0.00200116
-0.00200075
-0.00200076
-0.00200079
-0.00200085
-0.00200094
-0.00200063
-0.00200063
-0.00200066
-0.00200072
-0.00200081
-0.00200051
-0.00200051
-0.00200053
-0.00200059
-0.00200068
-0.00200046
-0.00200045
-0.00200048
-0.00200053
-0.00200062
-0.00282111
-0.00282113
-0.00282119
-0.0028213
-0.00282149
-0.00282077
-0.00282078
-0.00282084
-0.00282094
-0.00282113
-0.00282059
-0.0028206
-0.00282066
-0.00282076
-0.00282094
-0.00282041
-0.00282041
-0.00282046
-0.00282056
-0.00282074
-0.00282034
-0.00282034
-0.00282039
-0.00282048
-0.00282065
-0.00334364
-0.00334366
-0.00334376
-0.00334391
-0.00334417
-0.00334322
-0.00334324
-0.00334333
-0.00334348
-0.00334373
-0.00334298
-0.003343
-0.00334309
-0.00334323
-0.00334348
-0.00334275
-0.00334276
-0.00334284
-0.00334298
-0.00334323
-0.00334266
-0.00334267
-0.00334274
-0.00334288
-0.00334312
-0.00411231
-0.00411235
-0.0041125
-0.00411272
-0.00411311
-0.00411171
-0.00411175
-0.00411189
-0.00411211
-0.0041125
-0.00411139
-0.00411142
-0.00411156
-0.00411177
-0.00411216
-0.00411107
-0.00411109
-0.00411122
-0.00411143
-0.00411181
-0.00411095
-0.00411097
-0.00411109
-0.00411129
-0.00411167
-0.00467542
-0.00467548
-0.00467571
-0.00467602
-0.00467658
-0.00467462
-0.00467467
-0.00467489
-0.00467519
-0.00467576
-0.00467418
-0.00467422
-0.00467444
-0.00467474
-0.0046753
-0.00467376
-0.0046738
-0.004674
-0.00467429
-0.00467484
-0.0046736
-0.00467363
-0.00467382
-0.00467411
-0.00467466
-0.00540708
-0.00540718
-0.00540751
-0.00540795
-0.00540877
-0.00540597
-0.00540606
-0.00540639
-0.00540683
-0.00540765
-0.00540537
-0.00540545
-0.00540577
-0.00540621
-0.00540703
-0.0054048
-0.00540487
-0.00540518
-0.00540561
-0.00540642
-0.00540459
-0.00540466
-0.00540495
-0.00540538
-0.00540617
-0.00599614
-0.00599627
-0.00599676
-0.00599738
-0.00599855
-0.0059946
-0.00599473
-0.00599521
-0.00599583
-0.00599701
-0.0059938
-0.00599392
-0.00599439
-0.005995
-0.00599618
-0.00599303
-0.00599314
-0.00599359
-0.0059942
-0.00599537
-0.00599276
-0.00599286
-0.0059933
-0.0059939
-0.00599506
-0.0066993
-0.0066995
-0.00670019
-0.00670105
-0.00670269
-0.00669718
-0.00669738
-0.00669806
-0.00669894
-0.00670061
-0.00669607
-0.00669626
-0.00669694
-0.00669782
-0.00669951
-0.00669505
-0.00669522
-0.00669588
-0.00669675
-0.00669844
-0.00669469
-0.00669485
-0.00669549
-0.00669635
-0.00669803
-0.00730255
-0.00730282
-0.00730377
-0.00730492
-0.00730725
-0.00729965
-0.0072999
-0.00730085
-0.00730202
-0.00730439
-0.0072982
-0.00729844
-0.00729938
-0.00730056
-0.00730296
-0.00729686
-0.00729709
-0.00729799
-0.00729916
-0.00730155
-0.00729642
-0.00729664
-0.00729752
-0.00729868
-0.00730106
-0.00797984
-0.00798018
-0.00798145
-0.00798298
-0.00798615
-0.00797581
-0.00797617
-0.00797746
-0.00797906
-0.00798237
-0.00797388
-0.00797423
-0.00797552
-0.00797713
-0.0079805
-0.00797213
-0.00797246
-0.0079737
-0.00797531
-0.0079787
-0.00797156
-0.00797188
-0.0079731
-0.00797469
-0.0079781
-0.00858531
-0.00858566
-0.00858721
-0.00858902
-0.00859334
-0.00858004
-0.00858039
-0.00858195
-0.00858383
-0.00858829
-0.00857788
-0.0085782
-0.00857971
-0.00858158
-0.00858611
-0.00857591
-0.00857616
-0.00857759
-0.00857941
-0.00858393
-0.00857538
-0.00857565
-0.008577
-0.0085788
-0.00858332
-0.00923113
-0.00923141
-0.0092332
-0.00923521
-0.00924075
-0.00922434
-0.00922467
-0.00922642
-0.00922853
-0.00923438
-0.00922228
-0.0092225
-0.00922411
-0.00922601
-0.00923194
-0.00922046
-0.00922042
-0.00922181
-0.00922356
-0.00922945
-0.00922081
-0.00922018
-0.00922132
-0.00922295
-0.00922887
-0.00981979
-0.00981963
-0.0098212
-0.00982273
-0.00982966
-0.00981299
-0.00981255
-0.00981369
-0.0098148
-0.00982177
-0.0098143
-0.00981304
-0.00981325
-0.00981329
-0.0098198
-0.00981493
-0.00981291
-0.00981234
-0.00981147
-0.00981751
-0.0098187
-0.00981456
-0.00981338
-0.00981178
-0.00981748
-0.0104046
-0.0104041
-0.0104057
-0.0104071
-0.0104168
-0.0103992
-0.0103973
-0.0103975
-0.0103975
-0.0104059
-0.0104045
-0.0104002
-0.0103986
-0.0103971
-0.010404
-0.010418
-0.010409
-0.0103992
-0.0103961
-0.0104017
-0.0104265
-0.0104176
-0.0104033
-0.0103976
-0.0104022
-0.0109184
-0.0109165
-0.0109185
-0.0109212
-0.0109376
-0.0109138
-0.0109097
-0.0109088
-0.0109078
-0.0109194
-0.0109227
-0.0109172
-0.0109116
-0.0109085
-0.0109163
-0.0109247
-0.0109207
-0.0109161
-0.0109082
-0.0109141
-0.0109276
-0.0109238
-0.0109207
-0.0109117
-0.0109157
-0.0113375
-0.0113393
-0.011347
-0.0113606
-0.011391
-0.0113235
-0.0113247
-0.0113266
-0.0113326
-0.011358
-0.0113162
-0.0113194
-0.0113238
-0.011325
-0.0113436
-0.011308
-0.0113118
-0.0113175
-0.0113221
-0.0113347
-0.0113018
-0.0113071
-0.0113136
-0.0113204
-0.0113324
-0.0116622
-0.0116684
-0.0116878
-0.0117076
-0.0117427
-0.0116251
-0.0116311
-0.0116435
-0.0116625
-0.0117056
-0.0116023
-0.0116091
-0.0116258
-0.0116417
-0.0116838
-0.0115781
-0.0115882
-0.011607
-0.0116272
-0.0116624
-0.0115625
-0.0115763
-0.0115985
-0.0116197
-0.0116549
-0.0118476
-0.0118618
-0.0118843
-0.0119096
-0.0119539
-0.0117718
-0.0117894
-0.0118169
-0.0118565
-0.011907
-0.0117058
-0.0117326
-0.0117673
-0.0118148
-0.0118794
-0.0116587
-0.0116945
-0.0117293
-0.0117837
-0.0118529
-0.011591
-0.0116564
-0.0117004
-0.0117643
-0.0118372
-0.0120059
-0.0120109
-0.0120283
-0.0120498
-0.012103
-0.0119066
-0.0119223
-0.0119478
-0.0119844
-0.0120468
-0.0118458
-0.0118667
-0.0119014
-0.0119454
-0.0120231
-0.0117953
-0.0118329
-0.0118644
-0.0119174
-0.012003
-0.0117611
-0.0117936
-0.0118422
-0.0119002
-0.0119964
-0.0119899
-0.0119962
-0.0120103
-0.0120356
-0.0121047
-0.011853
-0.0118864
-0.0119145
-0.0119562
-0.0120306
-0.011722
-0.0117851
-0.0118296
-0.011912
-0.0120031
-0.0116787
-0.0117531
-0.0117815
-0.0118802
-0.0119856
-0.0115211
-0.0116771
-0.0117166
-0.0118459
-0.0119801
-0.0121114
-0.0121116
-0.0121229
-0.0121357
-0.012206
-0.0119767
-0.0120114
-0.0120168
-0.0120538
-0.0121322
-0.011896
-0.0119435
-0.0119698
-0.0120147
-0.0121177
-0.0118383
-0.0119694
-0.0119418
-0.0120079
-0.0121044
-0.0117076
-0.0118393
-0.0118963
-0.011974
-0.0121074
-0.011951
-0.011958
-0.0119795
-0.0120123
-0.0120936
-0.0118209
-0.0118444
-0.0118505
-0.0119148
-0.0120069
-0.0116338
-0.011734
-0.0117663
-0.0118485
-0.0119719
-0.0116738
-0.0117114
-0.0117292
-0.0118386
-0.0119462
-0.0113341
-0.0116752
-0.0116251
-0.0118161
-0.0119405
-0.0120606
-0.0120689
-0.012092
-0.0121195
-0.0122153
-0.0118209
-0.0119537
-0.0119365
-0.0120179
-0.0121151
-0.0116443
-0.011772
-0.0118167
-0.011936
-0.0120873
-0.0114126
-0.0120235
-0.0117691
-0.0119529
-0.012061
-0.0103661
-0.0114158
-0.0116462
-0.0118234
-0.0120617
-0.0118063
-0.011787
-0.0118427
-0.0118766
-0.011978
-0.0116377
-0.0116945
-0.0116729
-0.0117771
-0.0118704
-0.0114248
-0.0114461
-0.0115791
-0.0116737
-0.0118351
-0.0110937
-0.011478
-0.0114396
-0.0116953
-0.0117758
-0.00953207
-0.0109251
-0.0114213
-0.0116447
-0.0117961
-0.0120413
-0.0120105
-0.0120131
-0.012023
-0.0121075
-0.0119551
-0.0119129
-0.0119277
-0.0119432
-0.0120189
-0.0120141
-0.0119382
-0.0119011
-0.0119308
-0.0120126
-0.0119006
-0.0117898
-0.0119405
-0.01192
-0.0120117
-0.01478
-0.0119834
-0.0120425
-0.0119733
-0.0120537
-0.0116439
-0.0115883
-0.0116079
-0.0116199
-0.0116922
-0.0115125
-0.0115411
-0.0115249
-0.0115719
-0.0116164
-0.0114537
-0.0113952
-0.0114781
-0.0115275
-0.0116082
-0.0113308
-0.0115861
-0.0114014
-0.0115491
-0.011595
-0.0118577
-0.0113621
-0.0114687
-0.0115296
-0.0116561
-0.0117496
-0.0117059
-0.0117094
-0.0117129
-0.0117816
-0.0115582
-0.0116068
-0.0116415
-0.01166
-0.0117123
-0.0115568
-0.011518
-0.0115933
-0.0116495
-0.0117163
-0.0114381
-0.0114063
-0.0115329
-0.0116251
-0.0117206
-0.0113208
-0.0114017
-0.0116025
-0.0115967
-0.0117763
-0.0111755
-0.0111183
-0.0111074
-0.0110937
-0.0111337
-0.0112489
-0.0112165
-0.0111508
-0.0111321
-0.0110944
-0.0115621
-0.0113413
-0.0112517
-0.011159
-0.0111178
-0.0114913
-0.0115526
-0.0113655
-0.0112398
-0.0111392
-0.0102792
-0.0116813
-0.0116312
-0.0112929
-0.0112121
-0.0112288
-0.0111956
-0.0111834
-0.0111666
-0.0111654
-0.0112019
-0.0111956
-0.0111942
-0.0111693
-0.0111687
-0.011488
-0.0113308
-0.0112787
-0.0112034
-0.0111935
-0.0118263
-0.0114886
-0.011353
-0.0112202
-0.0112178
-0.0141544
-0.0125556
-0.0115479
-0.0112491
-0.0112623
-0.0102163
-0.010246
-0.0102346
-0.0102525
-0.0102386
-0.0102449
-0.0102483
-0.0102696
-0.0102682
-0.0102546
-0.0102835
-0.0102282
-0.0102302
-0.0102757
-0.0102441
-0.00893186
-0.00997166
-0.0102393
-0.0102674
-0.0102648
-0.0117821
-0.00899836
-0.0103284
-0.0102871
-0.0102529
-0.0101836
-0.0101742
-0.0101589
-0.0101648
-0.0101623
-0.0102971
-0.0102247
-0.010186
-0.0101818
-0.0101661
-0.0104298
-0.0102115
-0.0101675
-0.0101898
-0.0101644
-0.00993899
-0.00999652
-0.0102101
-0.0102338
-0.0101872
-0.0107654
-0.00990048
-0.0104319
-0.0103209
-0.0102062
-0.00871647
-0.00875331
-0.00875843
-0.00877794
-0.00877511
-0.00871648
-0.0087224
-0.00875415
-0.00878328
-0.00877958
-0.00842958
-0.00854459
-0.00863941
-0.0087549
-0.0087633
-0.00776001
-0.00813725
-0.0085405
-0.00872762
-0.00876382
-0.00704141
-0.00774763
-0.00842908
-0.00872932
-0.00873473
-0.00783122
-0.00784759
-0.00786741
-0.00789817
-0.0079085
-0.00782938
-0.0078455
-0.00786355
-0.00789812
-0.00789955
-0.0076867
-0.00773145
-0.00778947
-0.00786683
-0.00787162
-0.00759333
-0.00762931
-0.00773752
-0.00785281
-0.00785468
-0.00769274
-0.00759414
-0.00769207
-0.00784073
-0.00784297
-0.00567626
-0.00568684
-0.00569591
-0.00572256
-0.00573589
-0.00568475
-0.00568494
-0.00569987
-0.00571522
-0.00572442
-0.00563792
-0.00566227
-0.00567684
-0.00570237
-0.00569999
-0.00564867
-0.00564171
-0.00566808
-0.00569089
-0.00569335
-0.00570745
-0.00565092
-0.005644
-0.00569145
-0.00568522
-0.00463867
-0.00464213
-0.00464389
-0.0046522
-0.00465755
-0.00466893
-0.00466678
-0.0046575
-0.00465934
-0.00465415
-0.00472592
-0.00469763
-0.00466542
-0.00465972
-0.00464765
-0.00485084
-0.00478961
-0.00470253
-0.00467227
-0.00464836
-0.00494458
-0.00485369
-0.00473243
-0.00467583
-0.00464722
-0.00194394
-0.00193983
-0.00193106
-0.00193616
-0.00193711
-0.00199243
-0.00196148
-0.00193369
-0.00193137
-0.00193659
-0.00204592
-0.00202804
-0.00198161
-0.00193502
-0.00193232
-0.00203711
-0.00204983
-0.00203123
-0.00196516
-0.00194168
-0.00201814
-0.00203825
-0.00204896
-0.00199557
-0.00194791
-0.00104867
-0.00104704
-0.00104613
-0.00104621
-0.00105151
-0.00108209
-0.00107327
-0.00105882
-0.00105341
-0.00104796
-0.00111362
-0.00109509
-0.0010687
-0.00105842
-0.00104748
-0.00123385
-0.00115863
-0.00109725
-0.00107492
-0.0010501
-0.00132905
-0.00123341
-0.00111506
-0.00108284
-0.00105128
-0.0118477
-0.0116563
-0.0103237
-0.0145298
-0.0124396
-0.0152289
-0.0147888
-0.0124087
-0.0164725
-0.014572
-0.0143324
-0.0101535
-0.0175949
-0.0153185
-0.0106483
-0.0108277
-0.0114256
-0.00930583
-0.0112923
-0.00987499
-0.00935241
-0.0115329
-0.0121592
-0.011872
-0.0107732
-0.011353
-0.0105156
-0.0107489
-0.011397
-0.0116928
-0.0113433
-0.011519
-0.0115826
-0.0112901
-0.0114717
-0.0114078
-0.0116999
-0.0113448
-0.0114775
-0.0115984
-0.0113157
-0.0115474
-0.011386
-0.0126869
-0.0124333
-0.0113342
-0.0109127
-0.0120241
-0.0115356
-0.0115157
-0.0129716
-0.0120837
-0.0116812
-0.0110146
-0.0121878
-0.0114971
-0.012135
-0.01253
-0.0147568
-0.0123123
-0.0104131
-0.0129294
-0.0123369
-0.0110547
-0.012107
-0.0121172
-0.0123578
-0.0119189
-0.0117552
-0.0117643
-0.0121916
-0.0117068
-0.0120076
-0.011331
-0.0120844
-0.0108519
-0.0124479
-0.0122122
-0.0117129
-0.0120217
-0.0113484
-0.0120931
-0.0108662
-0.0124679
-0.0149981
-0.0156732
-0.015831
-0.0189895
-0.0149459
-0.0170094
-0.0172534
-0.0150624
-0.0136445
-0.0151254
-0.0132867
-0.0146241
-0.0123514
-0.0166545
-0.0157732
-0.0139595
-0.0154755
-0.0142862
-0.014839
-0.0131984
-0.0175486
-0.0127814
-0.0127931
-0.0123969
-0.0130899
-0.013038
-0.0131122
-0.0131242
-0.0117157
-0.0124527
-0.0119838
-0.0118506
-0.0115537
-0.0125157
-0.0120985
-0.0116845
-0.0124146
-0.0118983
-0.0121129
-0.0115704
-0.0125431
-0.0118693
-0.0119821
-0.0130088
-0.0127019
-0.0130886
-0.0127859
-0.0125749
-0.0133175
-0.0120013
-0.0130297
-0.0127122
-0.0130957
-0.0127934
-0.0125891
-0.013332
-0.0150532
-0.0131132
-0.0132136
-0.0115825
-0.0145784
-0.0129603
-0.0131124
-0.0122504
-0.012298
-0.0145213
-0.0137019
-0.0118411
-0.0124134
-0.0124277
-0.014328
-0.014197
-0.015016
-0.0151245
-0.0149109
-0.0142127
-0.0142761
-0.0113853
-0.0120634
-0.0116648
-0.0119009
-0.0118146
-0.0136339
-0.0122464
-0.0114511
-0.0121223
-0.011585
-0.0122994
-0.011905
-0.0138304
-0.0120462
-0.0144335
-0.0152903
-0.0141493
-0.0147679
-0.0150059
-0.0144513
-0.0143364
-0.0145006
-0.0154403
-0.0143254
-0.014983
-0.0151102
-0.0145747
-0.0144516
-0.0109607
-0.00169557
-0.00955875
-0.0118288
-0.0114727
-0.0110087
-0.0118102
-0.0135441
-0.0130298
-0.0130298
-0.0130513
-0.0135203
-0.0133126
-0.0133238
-0.0136912
-0.013822
-0.0139478
-0.0137505
-0.0142995
-0.0135416
-0.013728
-0.0136987
-0.0138232
-0.0139562
-0.0137791
-0.0143252
-0.0135363
-0.0137567
-0.0124278
-0.0116641
-0.0114653
-0.0121912
-0.0122417
-0.0119624
-0.0120178
-0.0124835
-0.0116818
-0.0114995
-0.012181
-0.0122401
-0.0119762
-0.0120199
-0.015152
-0.0127603
-0.0131254
-0.0131788
-0.0133935
-0.0134257
-0.0148379
-0.014245
-0.0128911
-0.0128135
-0.0120715
-0.015162
-0.0125852
-0.0126495
-0.0115906
-0.0120448
-0.0117863
-0.0118157
-0.0115472
-0.0116903
-0.0118396
-0.0133859
-0.0118256
-0.0118494
-0.0130706
-0.0118189
-0.013196
-0.0132327
-0.0138248
-0.0109284
-0.0125616
-0.0133564
-0.0121436
-0.0129372
-0.0134995
-0.0138568
-0.0109806
-0.0126018
-0.0134324
-0.0121254
-0.0130232
-0.0135677
-0.0128277
-0.0118902
-0.0130457
-0.0127876
-0.0117959
-0.0125043
-0.0126806
-0.0129405
-0.0131995
-0.0120974
-0.0128495
-0.0119581
-0.0125995
-0.0128015
-0.0118379
-0.0118181
-0.01267
-0.0100173
-0.00784871
-0.00915063
-0.0090465
-0.0112548
-0.00997421
-0.0108436
-0.0117022
-0.011255
-0.0128667
-0.0118402
-0.0112123
-0.00998994
-0.0110867
-0.0118539
-0.0111897
-0.0128863
-0.0117019
-0.0124272
-0.012513
-0.0122489
-0.0119136
-0.0121178
-0.011832
-0.0120466
-0.0123998
-0.0125439
-0.0122768
-0.0119102
-0.0121299
-0.0118631
-0.0120343
-0.0116579
-0.0133257
-0.0143546
-0.0115921
-0.0100189
-0.011177
-0.0118345
-0.0116837
-0.0133399
-0.0143928
-0.0115922
-0.00999941
-0.0112336
-0.0118293
-0.0141642
-0.0121358
-0.0121531
-0.0120938
-0.0105276
-0.012921
-0.0129592
-0.0126101
-0.0126313
-0.0135306
-0.0108625
-0.0113541
-0.0119973
-0.0119418
-0.0113754
-0.0115591
-0.0115752
-0.0117099
-0.0115107
-0.0120003
-0.0117298
-0.0122695
-0.0118302
-0.0127676
-0.0125778
-0.0120707
-0.0122802
-0.012023
-0.00989088
-0.00994936
-0.00960297
-0.0100086
-0.00819158
-0.009189
-0.00925944
-0.0123254
-0.0118836
-0.0123853
-0.0119766
-0.011719
-0.0120567
-0.0116843
-0.0112144
-0.0109609
-0.0113629
-0.0108258
-0.0115172
-0.0102674
-0.0112072
-0.0112437
-0.010987
-0.011481
-0.011239
-0.0115514
-0.0103323
-0.010883
-0.0105434
-0.00958728
-0.00899942
-0.00837238
-0.010395
-0.0108019
-0.00717116
-0.0106669
-0.00967425
-0.0095641
-0.00823676
-0.0105418
-0.0108574
-0.00728293
-0.0115063
-0.0117904
-0.012418
-0.0116854
-0.0124921
-0.0118667
-0.0119545
-0.0118262
-0.0115831
-0.0125106
-0.0117648
-0.0125807
-0.0119589
-0.0120499
-0.0122827
-0.0118854
-0.0128528
-0.0126223
-0.0121673
-0.012332
-0.0120581
-0.0114799
-0.00762563
-0.0103739
-0.0109369
-0.0109163
-0.00368887
-0.0107903
-0.00720096
-0.00372307
-0.00401859
-0.00219242
-0.00407881
-0.00444283
-0.003944
-0.00885973
-0.0100454
-0.00552821
-0.0102256
-0.00693884
-0.0108092
-0.00826705
-0.0110961
-0.0110411
-0.00924242
-0.00903019
-0.0118134
-0.0107758
-0.0108798
-0.00884971
-0.0100299
-0.00564743
-0.0101816
-0.00690078
-0.0107926
-0.00818879
-0.0127463
-0.0112979
-0.0112615
-0.0121624
-0.0118025
-0.0113664
-0.0112599
-0.0127975
-0.0113051
-0.0113084
-0.0121027
-0.0117809
-0.0114053
-0.0112615
-0.00942814
-0.0103537
-0.0103412
-0.010936
-0.00896957
-0.0107184
-0.0107248
-0.0117602
-0.0113921
-0.0120742
-0.011741
-0.0122298
-0.0119767
-0.0117913
-0.0117341
-0.0113644
-0.0120527
-0.0116983
-0.0121742
-0.0119288
-0.0117568
-0.0122533
-0.0118955
-0.0125203
-0.0119817
-0.0118431
-0.0121132
-0.0116203
-0.00975786
-0.0112242
-0.0111711
-0.00925429
-0.0114319
-0.00936752
-0.00958594
-0.011232
-0.0108134
-0.011474
-0.011888
-0.0112953
-0.0115098
-0.0118862
-0.0119559
-0.0114086
-0.0117827
-0.0114626
-0.011214
-0.0117732
-0.0114823
-0.0120091
-0.01143
-0.0118455
-0.0114361
-0.0110604
-0.0118419
-0.0115385
-0.00909667
-0.011986
-0.0110507
-0.0107227
-0.010967
-0.0109531
-0.00852254
-0.0088225
-0.0120745
-0.01115
-0.010874
-0.0114799
-0.0110562
-0.00859182
-0.0116894
-0.0102446
-0.0119595
-0.0101909
-0.0101888
-0.0116266
-0.0115846
-0.0103705
-0.0117621
-0.0120662
-0.0102757
-0.0102179
-0.0116503
-0.0116382
-0.00384139
-0.00423453
-0.00460644
-0.010444
-0.0128917
-0.0123347
-0.0117749
)
;

boundaryField
{
    inlet
    {
        type            fixedValue;
        value           uniform 0;
    }
    wall
    {
        type            zeroGradient;
    }
    outlet
    {
        type            fixedValue;
        value           uniform 0;
    }
    procBoundary1to0
    {
        type            processor;
        value           nonuniform List<scalar> 
320
(
-0.000329594
-0.000329422
-0.000329402
-0.00032934
-0.000329347
-0.000657055
-0.000657004
-0.000656961
-0.000656931
-0.000656918
-0.0015399
-0.00153968
-0.00153959
-0.00153949
-0.00153945
-0.00200099
-0.00200079
-0.00200066
-0.00200055
-0.0020005
-0.00282115
-0.00282082
-0.00282064
-0.00282047
-0.00282039
-0.00334368
-0.00334327
-0.00334304
-0.00334282
-0.00334272
-0.00411236
-0.00411177
-0.00411145
-0.00411115
-0.00411103
-0.00467547
-0.00467468
-0.00467425
-0.00467385
-0.00467369
-0.00540713
-0.00540605
-0.00540546
-0.00540491
-0.0054047
-0.00599619
-0.00599469
-0.0059939
-0.00599316
-0.0059929
-0.00669935
-0.00669727
-0.00669618
-0.00669519
-0.00669484
-0.00730261
-0.00729975
-0.00729832
-0.00729703
-0.00729661
-0.00797986
-0.0079759
-0.00797401
-0.00797232
-0.00797178
-0.00858534
-0.00858015
-0.00857803
-0.00857614
-0.00857565
-0.0092311
-0.00922444
-0.00922244
-0.00922073
-0.00922111
-0.00981981
-0.0098132
-0.00981457
-0.00981519
-0.00981885
-0.0104046
-0.0103993
-0.0104045
-0.010418
-0.0104266
-0.0109185
-0.010914
-0.010923
-0.0109251
-0.0109281
-0.0113375
-0.0113242
-0.011317
-0.0113093
-0.0113032
-0.0116621
-0.0116255
-0.0116031
-0.0115794
-0.0115641
-0.0118469
-0.0117721
-0.0117065
-0.0116604
-0.0115932
-0.0120051
-0.0119068
-0.0118466
-0.0117969
-0.0117631
-0.0119884
-0.0118531
-0.0117225
-0.0116812
-0.0115238
-0.0121097
-0.0119765
-0.0118968
-0.0118407
-0.0117113
-0.0119479
-0.0118205
-0.0116335
-0.0116797
-0.011354
-0.0120567
-0.0118195
-0.0116439
-0.0114223
-0.0103542
-0.0117993
-0.0116348
-0.0114172
-0.0110915
-0.00953339
-0.0120345
-0.0119511
-0.0120057
-0.0119012
-0.0147788
-0.0116342
-0.0115049
-0.0114407
-0.0113267
-0.0118594
-0.0117391
-0.0115472
-0.0115393
-0.0114257
-0.0113243
-0.0111623
-0.0112338
-0.011528
-0.0114573
-0.0102657
-0.0112153
-0.0111865
-0.0114525
-0.0117473
-0.0140841
-0.0102016
-0.0102184
-0.0102141
-0.00890351
-0.0114963
-0.010169
-0.0102816
-0.0104128
-0.00996389
-0.0109697
-0.00870948
-0.00870585
-0.00841818
-0.00775196
-0.00703329
-0.0078207
-0.00782353
-0.00767765
-0.00758593
-0.00768464
-0.00566957
-0.00567597
-0.00563254
-0.00564047
-0.00570302
-0.00463245
-0.004667
-0.00472072
-0.00484358
-0.00493955
-0.00193898
-0.00198589
-0.0020431
-0.00203343
-0.00201732
-0.00104236
-0.00107638
-0.00111092
-0.0012357
-0.00132846
-0.0116555
-0.0151779
-0.014484
-0.0163989
-0.0174118
-0.014095
-0.0107879
-0.0098871
-0.00928931
-0.0121534
-0.0104549
-0.0107435
-0.0116855
-0.0112813
-0.0115083
-0.0124819
-0.0115868
-0.0112054
-0.0125314
-0.012929
-0.0123073
-0.0123694
-0.0117745
-0.012102
-0.0119991
-0.0124563
-0.0113452
-0.0188725
-0.0169191
-0.0155975
-0.0150673
-0.0168202
-0.0134756
-0.0127708
-0.0131074
-0.0130347
-0.0124448
-0.0125106
-0.0118499
-0.0127813
-0.0133036
-0.0129959
-0.0149705
-0.014183
-0.0141653
-0.0120548
-0.0135625
-0.0118432
-0.0152659
-0.0143115
-0.0147384
-0.00182619
-0.0110203
-0.0118267
-0.0130471
-0.0133066
-0.0130301
-0.0139486
-0.0137162
-0.0137428
-0.0116588
-0.0120147
-0.0121886
-0.0130542
-0.0131816
-0.0118395
-0.0125601
-0.0134799
-0.0133331
-0.0118197
-0.0126421
-0.0127892
-0.0118424
-0.00916205
-0.00788806
-0.00996645
-0.0128612
-0.0117092
-0.0125064
-0.0120402
-0.0121154
-0.0100203
-0.0118318
-0.0133263
-0.00997057
-0.0092185
-0.00817762
-0.0109377
-0.010254
-0.0108106
-0.0104205
-0.00724209
-0.00965295
-0.0123889
-0.0119253
-0.0114889
-0.00756456
-0.00364281
-0.0109212
-0.00228962
-0.0044561
-0.00375032
-0.00553104
-0.00826317
-0.0102234
-0.0112931
-0.0112615
-0.012164
-0.00927048
-0.00950173
-0.0112165
-0.0111261
-0.00857026
-0.0107732
-0.011672
-0.0115813
-0.0102016
-0.00384964
-0.01233
-0.0129302
)
;
    }
    procBoundary1to3
    {
        type            processor;
        value           nonuniform List<scalar> 
320
(
-0.000329301
-0.000329306
-0.000329315
-0.000329335
-0.000329409
-0.000656893
-0.00065689
-0.000656882
-0.000656889
-0.000656872
-0.00153937
-0.00153937
-0.00153938
-0.00153941
-0.0015395
-0.00200041
-0.00200041
-0.00200042
-0.00200048
-0.00200056
-0.00282027
-0.00282027
-0.00282031
-0.0028204
-0.00282057
-0.00334258
-0.00334258
-0.00334265
-0.00334278
-0.00334301
-0.00411085
-0.00411086
-0.00411098
-0.00411117
-0.00411153
-0.00467348
-0.00467351
-0.00467369
-0.00467397
-0.00467449
-0.00540445
-0.00540451
-0.00540478
-0.00540519
-0.00540597
-0.00599259
-0.00599268
-0.0059931
-0.00599368
-0.00599481
-0.00669448
-0.00669464
-0.00669524
-0.00669608
-0.00669771
-0.00729618
-0.00729638
-0.00729722
-0.00729836
-0.00730068
-0.00797127
-0.00797156
-0.00797272
-0.00797428
-0.0079776
-0.00857504
-0.00857529
-0.00857658
-0.00857834
-0.00858276
-0.00922035
-0.00921969
-0.00922067
-0.00922227
-0.00922803
-0.0098185
-0.009814
-0.00981246
-0.00981079
-0.00981637
-0.0104263
-0.0104174
-0.0104025
-0.0103963
-0.0104003
-0.0109268
-0.010923
-0.0109196
-0.0109103
-0.010914
-0.0112995
-0.0113046
-0.0113102
-0.0113166
-0.0113283
-0.0115602
-0.0115738
-0.0115955
-0.0116165
-0.0116514
-0.0115872
-0.0116526
-0.0116958
-0.0117595
-0.0118319
-0.0117581
-0.0117911
-0.0118382
-0.0118961
-0.0119902
-0.011516
-0.0116714
-0.0117102
-0.0118389
-0.0119699
-0.0117017
-0.0118391
-0.0118903
-0.0119697
-0.0120958
-0.0113112
-0.0116598
-0.0116147
-0.0118065
-0.0119265
-0.00768343
-0.0114046
-0.0116321
-0.011819
-0.0120428
-0.00156197
-0.00997861
-0.0114034
-0.01164
-0.0117774
-0.0125291
-0.0124262
-0.0120359
-0.0119633
-0.0120367
-0.0121688
-0.0116917
-0.0114662
-0.011524
-0.0116485
-0.0108323
-0.0110245
-0.0116076
-0.011591
-0.0117703
-0.0116617
-0.012106
-0.0116377
-0.0112878
-0.0112063
-0.0165581
-0.0130142
-0.0115458
-0.0112421
-0.0112603
-0.0112938
-0.00898962
-0.0103216
-0.0102794
-0.0102435
-0.0108362
-0.00988752
-0.0104401
-0.0103168
-0.010201
-0.00704017
-0.00773786
-0.00842988
-0.00872814
-0.00873271
-0.00770118
-0.0075933
-0.00769095
-0.00784307
-0.00784234
-0.00571257
-0.00564883
-0.00564451
-0.00569114
-0.00568587
-0.00494355
-0.00484956
-0.0047297
-0.00467835
-0.00464519
-0.00201924
-0.00203586
-0.00204582
-0.00198924
-0.00194364
-0.00132969
-0.00123622
-0.00111343
-0.00107862
-0.00104616
-0.0152828
-0.0148178
-0.0102389
-0.017943
-0.0153403
-0.0146033
-0.00987632
-0.00959933
-0.0117137
-0.010545
-0.0107296
-0.0118811
-0.0113012
-0.0115427
-0.0113525
-0.0122437
-0.0114963
-0.0121275
-0.0129378
-0.0123404
-0.0147702
-0.0123572
-0.0117588
-0.0121237
-0.0120288
-0.0124722
-0.0113427
-0.0191344
-0.0173915
-0.0159115
-0.0155181
-0.0176215
-0.0143373
-0.0128039
-0.0131339
-0.0130448
-0.0125563
-0.0118458
-0.0119348
-0.0127997
-0.0133537
-0.0130518
-0.0151745
-0.014303
-0.0142283
-0.013859
-0.0120816
-0.0116164
-0.0154495
-0.0144694
-0.0150186
-0.0109973
-0.0118315
-0.00954935
-0.0130565
-0.0133306
-0.0130303
-0.013958
-0.0137694
-0.0137981
-0.0116841
-0.012024
-0.0121765
-0.0130873
-0.0132464
-0.0118471
-0.0125781
-0.0135803
-0.0134804
-0.0121271
-0.0128198
-0.012935
-0.0118139
-0.00903516
-0.00780947
-0.0128932
-0.0116831
-0.0110701
-0.0125594
-0.0120522
-0.0121443
-0.00999109
-0.0118402
-0.0133414
-0.00993004
-0.00920433
-0.00819277
-0.0103747
-0.0108925
-0.011499
-0.012536
-0.0120689
-0.0115859
-0.0104029
-0.00723719
-0.0096116
-0.00373101
-0.0107998
-0.0103801
-0.00209604
-0.00393022
-0.00398263
-0.00562833
-0.00817862
-0.0101794
-0.01132
-0.0112587
-0.0121068
-0.00922243
-0.00952045
-0.011183
-0.0111168
-0.00853594
-0.010648
-0.0118213
-0.0115747
-0.0102445
-0.00421816
-0.0117769
-0.01285
)
;
    }
}


// ************************************************************************* //
