/*--------------------------------*- C++ -*----------------------------------*\
| =========                 |                                                 |
| \\      /  F ield         | OpenFOAM: The Open Source CFD Toolbox           |
|  \\    /   O peration     | Version:  5.x                                   |
|   \\  /    A nd           | Web:      www.OpenFOAM.org                      |
|    \\/     M anipulation  |                                                 |
\*---------------------------------------------------------------------------*/
FoamFile
{
    version     2.0;
    format      ascii;
    class       volScalarField;
    location    "0.066";
    object      phiIB;
}
// * * * * * * * * * * * * * * * * * * * * * * * * * * * * * * * * * * * * * //

dimensions      [0 2 -1 0 0 0 0];

internalField   nonuniform List<scalar> 
1560
(
-0.000195901
-0.000195851
-0.000195845
-0.000195824
-0.000195828
-0.000195851
-0.00019579
-0.000195781
-0.000195757
-0.000195759
-0.000195845
-0.000195781
-0.000195772
-0.000195747
-0.000195749
-0.000195824
-0.000195757
-0.000195747
-0.000195722
-0.000195724
-0.000195828
-0.000195759
-0.000195749
-0.000195724
-0.000195725
-0.000403897
-0.000403864
-0.000403839
-0.00040382
-0.000403811
-0.000403864
-0.000403838
-0.000403815
-0.000403798
-0.00040379
-0.000403839
-0.000403815
-0.000403793
-0.000403777
-0.00040377
-0.00040382
-0.000403798
-0.000403777
-0.000403762
-0.000403756
-0.000403811
-0.00040379
-0.00040377
-0.000403756
-0.00040375
-0.000907394
-0.000907311
-0.000907272
-0.000907231
-0.00090722
-0.000907311
-0.000907224
-0.000907184
-0.000907141
-0.000907129
-0.000907272
-0.000907184
-0.000907143
-0.000907101
-0.000907089
-0.000907231
-0.000907141
-0.0009071
-0.000907057
-0.000907046
-0.00090722
-0.000907129
-0.000907089
-0.000907045
-0.000907034
-0.00120468
-0.00120459
-0.00120454
-0.00120449
-0.00120447
-0.00120459
-0.0012045
-0.00120445
-0.0012044
-0.00120438
-0.00120454
-0.00120445
-0.00120439
-0.00120434
-0.00120432
-0.00120449
-0.0012044
-0.00120434
-0.00120429
-0.00120427
-0.00120447
-0.00120438
-0.00120432
-0.00120427
-0.00120425
-0.00167005
-0.00166991
-0.00166983
-0.00166976
-0.00166974
-0.00166991
-0.00166977
-0.00166969
-0.00166961
-0.00166959
-0.00166983
-0.00166969
-0.00166961
-0.00166954
-0.00166951
-0.00166976
-0.00166961
-0.00166954
-0.00166946
-0.00166943
-0.00166974
-0.00166959
-0.00166951
-0.00166943
-0.00166941
-0.00200072
-0.00200054
-0.00200043
-0.00200034
-0.00200031
-0.00200054
-0.00200035
-0.00200025
-0.00200015
-0.00200012
-0.00200043
-0.00200025
-0.00200014
-0.00200005
-0.00200001
-0.00200034
-0.00200015
-0.00200005
-0.00199995
-0.00199991
-0.00200031
-0.00200012
-0.00200001
-0.00199991
-0.00199988
-0.00243997
-0.00243971
-0.00243957
-0.00243944
-0.0024394
-0.00243971
-0.00243945
-0.00243931
-0.00243917
-0.00243913
-0.00243957
-0.00243931
-0.00243916
-0.00243902
-0.00243898
-0.00243944
-0.00243917
-0.00243902
-0.00243889
-0.00243884
-0.0024394
-0.00243913
-0.00243898
-0.00243884
-0.00243879
-0.00279074
-0.00279039
-0.0027902
-0.00279002
-0.00278997
-0.00279039
-0.00279004
-0.00278984
-0.00278966
-0.0027896
-0.0027902
-0.00278984
-0.00278964
-0.00278946
-0.0027894
-0.00279002
-0.00278966
-0.00278946
-0.00278927
-0.00278921
-0.00278997
-0.0027896
-0.0027894
-0.00278921
-0.00278915
-0.00321163
-0.00321114
-0.00321088
-0.00321064
-0.00321056
-0.00321114
-0.00321064
-0.00321037
-0.00321012
-0.00321005
-0.00321088
-0.00321037
-0.0032101
-0.00320984
-0.00320976
-0.00321064
-0.00321012
-0.00320984
-0.00320958
-0.0032095
-0.00321056
-0.00321004
-0.00320976
-0.0032095
-0.00320941
-0.00357546
-0.0035748
-0.00357444
-0.00357412
-0.00357402
-0.0035748
-0.00357411
-0.00357374
-0.00357341
-0.0035733
-0.00357444
-0.00357374
-0.00357336
-0.00357302
-0.00357292
-0.00357412
-0.0035734
-0.00357302
-0.00357268
-0.00357257
-0.00357402
-0.0035733
-0.00357292
-0.00357257
-0.00357246
-0.00398188
-0.00398094
-0.00398045
-0.00398
-0.00397986
-0.00398094
-0.00397998
-0.00397946
-0.003979
-0.00397886
-0.00398045
-0.00397946
-0.00397894
-0.00397846
-0.00397831
-0.00398
-0.003979
-0.00397846
-0.00397797
-0.00397781
-0.00397986
-0.00397885
-0.00397831
-0.00397781
-0.00397765
-0.00435315
-0.00435188
-0.00435121
-0.00435062
-0.00435046
-0.00435188
-0.00435055
-0.00434985
-0.00434923
-0.00434905
-0.00435121
-0.00434985
-0.00434914
-0.00434851
-0.00434833
-0.00435062
-0.00434923
-0.00434851
-0.00434788
-0.0043477
-0.00435046
-0.00434905
-0.00434833
-0.0043477
-0.00434752
-0.00474636
-0.00474457
-0.00474367
-0.00474285
-0.00474263
-0.00474457
-0.00474271
-0.00474175
-0.00474088
-0.00474063
-0.00474367
-0.00474175
-0.00474076
-0.00473987
-0.00473961
-0.00474285
-0.00474088
-0.00473987
-0.00473894
-0.00473865
-0.00474263
-0.00474063
-0.00473961
-0.00473865
-0.00473834
-0.00511897
-0.00511659
-0.0051154
-0.00511437
-0.0051141
-0.00511659
-0.00511407
-0.0051128
-0.0051117
-0.00511139
-0.0051154
-0.0051128
-0.00511147
-0.00511031
-0.00510998
-0.00511437
-0.0051117
-0.00511031
-0.00510915
-0.00510883
-0.0051141
-0.00511138
-0.00510997
-0.00510883
-0.00510852
-0.00549614
-0.00549303
-0.00549171
-0.0054904
-0.00549011
-0.00549303
-0.00548971
-0.00548828
-0.00548677
-0.00548637
-0.00549171
-0.00548828
-0.00548682
-0.00548532
-0.00548491
-0.0054904
-0.00548677
-0.00548532
-0.00548358
-0.00548297
-0.00549011
-0.00548636
-0.00548491
-0.00548297
-0.00548228
-0.00585893
-0.00585512
-0.00585389
-0.00585234
-0.00585197
-0.00585512
-0.00585126
-0.00585001
-0.00584859
-0.00584818
-0.00585389
-0.00585001
-0.00584882
-0.00584697
-0.00584625
-0.00585234
-0.00584858
-0.00584697
-0.00584543
-0.00584531
-0.00585196
-0.00584817
-0.00584625
-0.00584531
-0.00584572
-0.00620347
-0.00619948
-0.00619906
-0.00619789
-0.00619821
-0.00619948
-0.00619518
-0.00619503
-0.00619361
-0.00619361
-0.00619906
-0.00619503
-0.0061947
-0.0061944
-0.00619584
-0.00619789
-0.00619361
-0.0061944
-0.00619954
-0.0062047
-0.00619821
-0.00619361
-0.00619584
-0.00620469
-0.00621188
-0.00652369
-0.00651674
-0.00651665
-0.00651541
-0.00651665
-0.00651674
-0.00651134
-0.00651158
-0.00651155
-0.00651412
-0.00651665
-0.00651158
-0.0065126
-0.00651681
-0.00652114
-0.00651541
-0.00651155
-0.00651681
-0.00652175
-0.00652516
-0.00651665
-0.00651412
-0.00652114
-0.00652516
-0.00652787
-0.00679858
-0.0067833
-0.00677903
-0.00677778
-0.00677846
-0.0067833
-0.00677181
-0.00677067
-0.00677237
-0.00677425
-0.00677903
-0.00677067
-0.00677277
-0.00677346
-0.00677494
-0.00677777
-0.00677236
-0.00677346
-0.00677148
-0.0067716
-0.00677845
-0.00677424
-0.00677493
-0.0067716
-0.00677101
-0.00702955
-0.00700816
-0.00699444
-0.00698439
-0.00698116
-0.00700816
-0.00698538
-0.00697523
-0.00696771
-0.00696386
-0.00699444
-0.00697522
-0.00696531
-0.0069549
-0.0069487
-0.00698439
-0.00696771
-0.0069549
-0.00694164
-0.00693285
-0.00698115
-0.00696384
-0.00694869
-0.00693284
-0.00692118
-0.0071843
-0.00715882
-0.00714228
-0.00712622
-0.00712208
-0.00715882
-0.00712731
-0.00710862
-0.00709064
-0.00708257
-0.00714227
-0.00710861
-0.00708552
-0.00706425
-0.00705314
-0.00712621
-0.00709062
-0.00706425
-0.00703938
-0.00702471
-0.00712207
-0.00708255
-0.00705313
-0.0070247
-0.00700942
-0.00728629
-0.00725291
-0.00723202
-0.00721389
-0.00720452
-0.00725291
-0.00721371
-0.00718101
-0.00715557
-0.00713797
-0.00723201
-0.007181
-0.00713848
-0.0071043
-0.00707375
-0.00721387
-0.00715554
-0.00710429
-0.00706633
-0.0070258
-0.00720449
-0.00713794
-0.00707373
-0.00702578
-0.00697247
-0.00732814
-0.00729073
-0.00727793
-0.00726614
-0.00726073
-0.00729073
-0.00724496
-0.00721903
-0.0071966
-0.00718477
-0.00727791
-0.00721901
-0.00718406
-0.00715608
-0.00714484
-0.0072661
-0.00719657
-0.00715607
-0.00712404
-0.00710425
-0.00726068
-0.00718471
-0.0071448
-0.00710422
-0.00709653
-0.00734507
-0.00729603
-0.00727445
-0.00726214
-0.00725556
-0.00729603
-0.00723776
-0.00719867
-0.00717234
-0.00714257
-0.00727442
-0.00719864
-0.00713538
-0.0070955
-0.00703835
-0.00726209
-0.00717229
-0.00709548
-0.00705651
-0.00698004
-0.00725548
-0.00714249
-0.00703829
-0.00698001
-0.00680615
-0.00734845
-0.00730074
-0.00729489
-0.00728856
-0.00729298
-0.00730074
-0.00723947
-0.00721858
-0.00720586
-0.00718983
-0.00729485
-0.00721855
-0.0071933
-0.00716954
-0.00715536
-0.0072885
-0.0072058
-0.00716952
-0.00715544
-0.00708181
-0.00729287
-0.00718973
-0.0071553
-0.00708176
-0.00706274
-0.00733054
-0.00726432
-0.00723787
-0.00722425
-0.00721515
-0.00726431
-0.00717477
-0.00711889
-0.00709567
-0.00706622
-0.00723781
-0.00711884
-0.00704413
-0.00701331
-0.00688277
-0.00722415
-0.00709559
-0.00701327
-0.00700224
-0.00683808
-0.00721499
-0.00706607
-0.00688264
-0.00683799
-0.00605214
-0.0073028
-0.00723028
-0.00721786
-0.00720056
-0.00719414
-0.00723026
-0.00714041
-0.00709421
-0.00707229
-0.00698846
-0.00721778
-0.00709414
-0.00702189
-0.00698724
-0.00685665
-0.00720044
-0.00707218
-0.00698721
-0.00714082
-0.00677756
-0.00719395
-0.00698824
-0.00685657
-0.0067775
-0.00710919
-0.00723987
-0.0071641
-0.00714162
-0.00711632
-0.007122
-0.00716406
-0.00705055
-0.00698203
-0.0069072
-0.00688104
-0.00714151
-0.00698196
-0.00688571
-0.00677696
-0.00664831
-0.00711612
-0.00690704
-0.00677688
-0.00654911
-0.00673545
-0.00712168
-0.00688081
-0.00664797
-0.00673552
-0.00569225
-0.00715381
-0.00708465
-0.00709793
-0.00708433
-0.00711683
-0.00708461
-0.007015
-0.00702067
-0.00699786
-0.00708433
-0.00709781
-0.00702057
-0.00700549
-0.00703355
-0.0070282
-0.00708412
-0.00699766
-0.00703343
-0.00686483
-0.0070182
-0.00711652
-0.00708397
-0.00702813
-0.00701767
-0.00676098
-0.00705756
-0.00700595
-0.00700163
-0.00697903
-0.00701931
-0.00700588
-0.00694463
-0.00690149
-0.00687476
-0.00687435
-0.00700147
-0.00690139
-0.00684768
-0.00678139
-0.00675027
-0.00697873
-0.00687453
-0.00678124
-0.00668377
-0.00652981
-0.00701885
-0.00687398
-0.00674992
-0.00652953
-0.00667066
-0.00685126
-0.00679712
-0.0067952
-0.00678372
-0.0067908
-0.00679705
-0.00674934
-0.00672098
-0.00668841
-0.00669623
-0.00679503
-0.00672086
-0.00663699
-0.00660862
-0.00639771
-0.00678343
-0.00668818
-0.00660845
-0.00662304
-0.00631044
-0.00679035
-0.00669584
-0.00639736
-0.00631026
-0.00567258
-0.00678265
-0.00676006
-0.00676192
-0.00674652
-0.00676923
-0.00675999
-0.0067571
-0.0067405
-0.00675293
-0.00679095
-0.00676177
-0.00674041
-0.00672503
-0.00668332
-0.0067409
-0.00674626
-0.00675271
-0.00668317
-0.00668196
-0.00613246
-0.0067689
-0.00679061
-0.00674051
-0.00613228
-0.00539358
-0.00645165
-0.00644295
-0.00646361
-0.00648569
-0.00651249
-0.00644291
-0.00644692
-0.00649037
-0.00648831
-0.00652607
-0.0064635
-0.00649031
-0.00653987
-0.00662459
-0.00678785
-0.00648547
-0.00648812
-0.00662444
-0.00649366
-0.00675413
-0.00651218
-0.00652574
-0.00678754
-0.00675388
-0.00734911
-0.00646775
-0.00646795
-0.00647886
-0.00648295
-0.00646816
-0.00646792
-0.00647155
-0.00648974
-0.00648155
-0.00651687
-0.00647878
-0.00648969
-0.00647739
-0.00650638
-0.00638946
-0.00648277
-0.00648139
-0.00650626
-0.00651406
-0.00663577
-0.00646788
-0.00651659
-0.00638919
-0.00663554
-0.00633991
-0.00583956
-0.00584079
-0.00586698
-0.00588474
-0.00588708
-0.00584077
-0.00586294
-0.00589332
-0.00592636
-0.00592461
-0.00586691
-0.00589328
-0.00591813
-0.00596869
-0.00589808
-0.0058846
-0.00592624
-0.00596861
-0.00606649
-0.0060674
-0.00588685
-0.00592439
-0.00589789
-0.00606726
-0.00574996
-0.00558307
-0.00558332
-0.00559328
-0.00559621
-0.0055893
-0.0055833
-0.00559016
-0.00559513
-0.00559653
-0.00559348
-0.00559323
-0.0055951
-0.00556759
-0.0055807
-0.00554771
-0.0055961
-0.00559643
-0.00558064
-0.00563447
-0.00570558
-0.00558913
-0.00559331
-0.00554757
-0.0057055
-0.00566075
-0.00434107
-0.0043174
-0.00429162
-0.00426943
-0.00423743
-0.00431739
-0.00429862
-0.0042708
-0.00426664
-0.00425002
-0.0042916
-0.00427078
-0.00425499
-0.00427923
-0.00425472
-0.00426936
-0.00426657
-0.00427918
-0.00433894
-0.00433754
-0.0042373
-0.0042499
-0.00425462
-0.00433749
-0.00426786
-0.00345401
-0.00345665
-0.0034623
-0.0034695
-0.00347102
-0.00345664
-0.00346779
-0.00348023
-0.00350366
-0.00351338
-0.00346228
-0.00348022
-0.00351024
-0.00357133
-0.0036111
-0.00346945
-0.00350361
-0.0035713
-0.00368004
-0.0037493
-0.00347093
-0.0035133
-0.00361104
-0.00374927
-0.00381111
-0.00155142
-0.00155229
-0.00156177
-0.00156909
-0.00157571
-0.00155228
-0.00155483
-0.00156431
-0.00157857
-0.00159799
-0.00156176
-0.00156431
-0.00159789
-0.00164928
-0.00167087
-0.00156907
-0.00157855
-0.00164926
-0.00169914
-0.00170333
-0.00157568
-0.00159796
-0.00167083
-0.0017033
-0.00168569
-0.000792894
-0.000798249
-0.000804195
-0.000812584
-0.000818115
-0.000798244
-0.000811537
-0.000820172
-0.000838317
-0.000848289
-0.000804192
-0.000820173
-0.000838374
-0.000870566
-0.000900271
-0.000812575
-0.000838312
-0.00087056
-0.000945511
-0.0010114
-0.000818104
-0.000848283
-0.000900265
-0.0010114
-0.00109424
-0.00539048
-0.00539013
-0.00505444
-0.00575226
-0.00451185
-0.00451117
-0.00243442
-0.00417663
-0.00417592
-0.00358264
-0.00751401
-0.00957788
-0.00957721
-0.00778277
-0.00880384
-0.00880318
-0.00822611
-0.00596297
-0.00657176
-0.00657142
-0.00727138
-0.00650141
-0.00650123
-0.00674483
-0.00645708
-0.00634381
-0.0063437
-0.00630351
-0.00730321
-0.00730283
-0.00756975
-0.00644492
-0.00627769
-0.0062774
-0.00592311
-0.00647917
-0.00694667
-0.00705676
-0.00676315
-0.00676271
-0.00661817
-0.00643617
-0.00694648
-0.00647869
-0.00705635
-0.00676288
-0.006618
-0.00676222
-0.00643576
-0.00738329
-0.0078013
-0.0069876
-0.00698745
-0.00668283
-0.00757846
-0.00757824
-0.00680309
-0.00725052
-0.00751765
-0.00632819
-0.00636984
-0.0068834
-0.00716125
-0.00725033
-0.00680262
-0.00751703
-0.00632793
-0.00688324
-0.00636944
-0.0071609
-0.00753202
-0.00742935
-0.00635862
-0.00751723
-0.00719789
-0.00728181
-0.00767596
-0.00753188
-0.00742892
-0.00635841
-0.00751698
-0.00719763
-0.0072817
-0.00767562
-0.00760832
-0.00760745
-0.00663201
-0.00711427
-0.00785808
-0.00785763
-0.00802212
-0.00629949
-0.00735969
-0.00735944
-0.00772096
-0.0072095
-0.00701961
-0.00701942
-0.00722414
-0.00710552
-0.0074999
-0.00643044
-0.00736772
-0.00599561
-0.00781344
-0.00722401
-0.00710526
-0.00749956
-0.00642994
-0.00736759
-0.00599541
-0.00781315
-0.00755706
-0.0066027
-0.00685801
-0.0068579
-0.00722595
-0.00722581
-0.00754519
-0.00777208
-0.00719679
-0.00719659
-0.00583541
-0.00747838
-0.00689835
-0.00689811
-0.00796426
-0.00834338
-0.00834306
-0.00838803
-0.00854369
-0.00825465
-0.00825436
-0.00813711
-0.00863781
-0.00842615
-0.00796143
-0.00847701
-0.00767628
-0.00838725
-0.00813692
-0.00863738
-0.00842556
-0.00796088
-0.00847673
-0.00767594
-0.0083868
-0.00809043
-0.00809011
-0.00803414
-0.00843868
-0.0080918
-0.00829633
-0.0082961
-0.00723543
-0.00713741
-0.00823845
-0.00697512
-0.00701081
-0.00716431
-0.00792511
-0.00713754
-0.0072353
-0.00823875
-0.00697484
-0.0071643
-0.0070104
-0.00792474
-0.0083219
-0.00780259
-0.00780239
-0.00694037
-0.00894884
-0.00764209
-0.0076419
-0.00762859
-0.0084594
-0.00809126
-0.0084657
-0.00863297
-0.00848454
-0.00860481
-0.00762832
-0.00845879
-0.00809103
-0.00846547
-0.00863244
-0.00848391
-0.00860422
-0.00772793
-0.00772733
-0.00835964
-0.00888066
-0.0071468
-0.00771321
-0.00771243
-0.00753634
-0.00690692
-0.00800074
-0.00800042
-0.00826187
-0.00718904
-0.00718871
-0.00621785
-0.00568723
-0.00530045
-0.00692442
-0.00700333
-0.00719669
-0.00755568
-0.00568723
-0.0062173
-0.00529978
-0.00692412
-0.00719661
-0.00700282
-0.00755503
-0.00830803
-0.00805876
-0.00935501
-0.00840669
-0.00764359
-0.00859864
-0.0078095
-0.00830783
-0.00805792
-0.00935458
-0.0084061
-0.00764305
-0.00859838
-0.00780892
-0.00733872
-0.00748904
-0.00774528
-0.0072511
-0.00764809
-0.00677685
-0.00695552
-0.00748856
-0.00733814
-0.00774474
-0.00725065
-0.00764766
-0.00677643
-0.00695502
-0.00553496
-0.00553465
-0.00104592
-0.00645457
-0.00495547
-0.00495537
-0.00421102
-0.00852768
-0.00728071
-0.00728094
-0.00775669
-0.00799449
-0.00815367
-0.00815359
-0.00910164
-0.00717015
-0.00853135
-0.00973761
-0.0094745
-0.00899984
-0.0089078
-0.00910181
-0.00716882
-0.00853238
-0.00973653
-0.0094786
-0.00899872
-0.00890754
-0.00774799
-0.00690989
-0.00657754
-0.00751721
-0.00738599
-0.00717997
-0.00738434
-0.00774778
-0.00690961
-0.00657727
-0.00751689
-0.00738538
-0.00717936
-0.00738401
-0.00877941
-0.00703938
-0.0078766
-0.00787639
-0.0076927
-0.00769241
-0.00923746
-0.00970215
-0.00789059
-0.00788931
-0.00745131
-0.00882888
-0.00808617
-0.00808566
-0.00587344
-0.00333528
-0.00333487
-0.0054702
-0.00371736
-0.00569331
-0.00569298
-0.00701217
-0.00701213
-0.00721974
-0.00688927
-0.00691911
-0.00691894
-0.00697645
-0.00635001
-0.00506405
-0.00315809
-0.00426739
-0.00360097
-0.00495553
-0.00660843
-0.00634979
-0.00506358
-0.00315735
-0.00426656
-0.00360051
-0.00495498
-0.00660789
-0.00750395
-0.00722954
-0.00743364
-0.00764452
-0.00716548
-0.00698874
-0.00694532
-0.00750329
-0.00743323
-0.00722894
-0.00764412
-0.00716504
-0.00698829
-0.00694469
-0.00509234
-0.00509279
-0.00583711
-0.00326516
-1.90069e-05
-0.000863194
-0.000863284
-0.0065499
-0.0060824
-0.00560402
-0.00668077
-0.00640235
-0.00643767
-0.00733767
-0.00608233
-0.00654991
-0.00560345
-0.00668102
-0.00643753
-0.00640176
-0.00733795
-0.00807644
-0.00777243
-0.00757624
-0.00702704
-0.0067753
-0.00671301
-0.0072358
-0.00807739
-0.00777196
-0.00757612
-0.00702667
-0.00677498
-0.00671262
-0.00723539
-0.00580031
-0.00735483
-0.00698797
-0.00482519
-0.00583902
-0.00648572
-0.00372093
-0.00579667
-0.00735707
-0.00698705
-0.00482028
-0.00583995
-0.0064851
-0.00372101
-0.0048096
-0.00438043
-0.00438019
-0.00585653
-0.00317566
-0.00554252
-0.00554215
-0.00704006
-0.00704101
-0.00583634
-0.00518777
-0.00627376
-0.00627768
-0.00627949
-0.00640703
-0.00640689
-0.00603132
-0.00683074
-0.00685339
-0.00685327
-0.00695469
-0.00764292
-0.00704325
-0.00730135
-0.00743596
-0.00716047
-0.00772731
-0.00753611
-0.00764285
-0.00704312
-0.00730108
-0.00743564
-0.00716018
-0.00772698
-0.00753603
-0.00439537
-0.0031538
-0.00269954
-0.00269907
-0.00335574
-0.00345917
-0.0034588
-0.00747408
-0.00712173
-0.00769151
-0.00703501
-0.00687325
-0.00710149
-0.00684726
-0.00747408
-0.0071217
-0.00769071
-0.00703487
-0.00687347
-0.00710126
-0.00684775
-0.00620528
-0.00640005
-0.00644751
-0.00677806
-0.00664684
-0.00639474
-0.00547845
-0.00639993
-0.00620471
-0.00644703
-0.00677774
-0.00639462
-0.0066463
-0.00547803
-0.00449532
-0.00540676
-0.00487273
-0.00221386
-0.00592532
-0.00281053
-0.00376691
-0.0044949
-0.00540624
-0.00487236
-0.00221314
-0.00592488
-0.00281042
-0.00376653
-0.00605145
-0.00515337
-0.00682543
-0.00637074
-0.00655397
-0.00663549
-0.00615085
-0.00515286
-0.00605085
-0.00682473
-0.00637029
-0.00655344
-0.00663503
-0.00615024
-0.00675643
-0.00675634
-0.00606816
-0.00581984
-0.00521736
-0.00521731
-0.00432212
-0.00217525
-0.0024941
-0.00249416
0.000553826
-0.00373394
-0.00199496
-0.00199472
-0.00315651
-0.00563078
-0.00459079
-0.00479407
-0.00499219
-0.00509141
-0.00244307
-0.0031559
-0.0056305
-0.00459035
-0.004794
-0.00499119
-0.00509081
-0.00244393
-0.00683376
-0.00632192
-0.00651027
-0.00607454
-0.00597488
-0.00645035
-0.0063544
-0.00683193
-0.00632159
-0.00650882
-0.00607384
-0.00597438
-0.0064503
-0.00635404
-0.00470047
-0.00640231
-0.00499041
-0.00499018
-0.00574504
-0.00574492
-0.0037372
-0.00427952
-0.00602669
-0.00602673
-0.00592744
-0.00585822
-0.00563328
-0.00563398
-0.00639674
-0.00369169
-0.00693751
-0.00661508
-0.00551418
-0.00794699
-0.00734869
-0.00639713
-0.0036912
-0.00693736
-0.00661493
-0.00551362
-0.00794667
-0.0073489
)
;

boundaryField
{
    inlet
    {
        type            fixedValue;
        value           uniform 0;
    }
    wall
    {
        type            zeroGradient;
    }
    outlet
    {
        type            fixedValue;
        value           uniform 0;
    }
    procBoundary0to1
    {
        type            processor;
        value           nonuniform List<scalar> 
320
(
-0.000195827
-0.000195756
-0.000195746
-0.00019572
-0.000195722
-0.000403807
-0.000403786
-0.000403767
-0.000403753
-0.000403747
-0.000907215
-0.000907123
-0.000907083
-0.000907039
-0.000907028
-0.00120446
-0.00120437
-0.00120432
-0.00120427
-0.00120425
-0.00166973
-0.00166958
-0.0016695
-0.00166942
-0.0016694
-0.0020003
-0.00200011
-0.002
-0.0019999
-0.00199987
-0.00243939
-0.00243912
-0.00243897
-0.00243883
-0.00243878
-0.00278996
-0.00278959
-0.00278938
-0.0027892
-0.00278913
-0.00321055
-0.00321003
-0.00320975
-0.00320948
-0.0032094
-0.00357401
-0.00357328
-0.0035729
-0.00357255
-0.00357244
-0.00397985
-0.00397884
-0.00397829
-0.00397779
-0.00397763
-0.00435044
-0.00434903
-0.0043483
-0.00434767
-0.00434749
-0.00474261
-0.0047406
-0.00473958
-0.00473861
-0.0047383
-0.00511408
-0.00511136
-0.00510994
-0.00510878
-0.00510847
-0.00549009
-0.00548633
-0.00548486
-0.00548291
-0.0054822
-0.00585193
-0.00584812
-0.0058462
-0.00584526
-0.00584567
-0.00619815
-0.00619353
-0.00619579
-0.00620467
-0.00621187
-0.00651646
-0.00651392
-0.00652095
-0.0065249
-0.00652759
-0.0067782
-0.00677392
-0.00677457
-0.00677113
-0.00677048
-0.00698081
-0.0069634
-0.00694816
-0.00693214
-0.00692034
-0.0071217
-0.00708199
-0.00705242
-0.00702374
-0.00700832
-0.00720416
-0.00713727
-0.00707283
-0.00702458
-0.00697121
-0.00726033
-0.00718389
-0.00714377
-0.00710269
-0.00709477
-0.0072552
-0.00714166
-0.00703732
-0.00697842
-0.00680501
-0.00729255
-0.00718849
-0.0071537
-0.0070795
-0.00706
-0.00721499
-0.00706513
-0.00688196
-0.00683556
-0.00605359
-0.00719413
-0.00698706
-0.00685583
-0.00677558
-0.00675328
-0.007122
-0.00688003
-0.00664592
-0.00654718
-0.00553659
-0.00711653
-0.00708338
-0.00702654
-0.00723305
-0.00761175
-0.00701978
-0.00687366
-0.00675002
-0.00648044
-0.00730541
-0.00679177
-0.00669658
-0.00639742
-0.00620467
-0.00538545
-0.00676971
-0.0067914
-0.00674002
-0.00621717
-0.004171
-0.00651433
-0.00652685
-0.00678828
-0.00680289
-0.00880147
-0.006469
-0.00652132
-0.00639006
-0.00663372
-0.00648928
-0.00588961
-0.00592487
-0.0058958
-0.00606654
-0.00573639
-0.00558916
-0.00559567
-0.00554934
-0.00571198
-0.00566516
-0.00423833
-0.00424743
-0.00425561
-0.00433732
-0.00426728
-0.00347279
-0.00351448
-0.00361134
-0.00375095
-0.00381077
-0.0015796
-0.00160304
-0.00167275
-0.00170252
-0.00168628
-0.000821202
-0.000851064
-0.000902152
-0.00101169
-0.00109376
-0.00506477
-0.00247538
-0.00451155
-0.00359689
-0.00778142
-0.00957937
-0.00822486
-0.00727392
-0.00657238
-0.00674793
-0.00630089
-0.00636691
-0.00756873
-0.00592638
-0.00627896
-0.00705834
-0.00643673
-0.00676443
-0.00698771
-0.00757722
-0.00780212
-0.00751602
-0.00716254
-0.00636343
-0.00742799
-0.00767559
-0.00752115
-0.00663135
-0.00801982
-0.00785951
-0.00771881
-0.00702058
-0.00736187
-0.00750068
-0.00781536
-0.00643158
-0.0083886
-0.00825331
-0.00834226
-0.00842589
-0.00838443
-0.0079611
-0.00809055
-0.00829523
-0.00808905
-0.00823785
-0.00792901
-0.00701139
-0.00863272
-0.00860593
-0.00846291
-0.00799989
-0.00718741
-0.00690563
-0.00530035
-0.00755316
-0.00700153
-0.00805403
-0.00780706
-0.0084077
-0.00774555
-0.00695662
-0.00733899
-0.00105753
-0.00421497
-0.00495614
-0.00775461
-0.00815269
-0.00728038
-0.00853001
-0.008909
-0.00974249
-0.0069138
-0.00738776
-0.00751857
-0.00547288
-0.00569331
-0.00333981
-0.00315823
-0.0066084
-0.00426513
-0.00723025
-0.00694431
-0.00750127
-0.00509756
-0.000896189
-3.25365e-05
-0.00560223
-0.00733974
-0.00640017
-0.00777405
-0.00723938
-0.00677813
-0.00584462
-0.00373242
-0.00735357
-0.00271502
-0.00347502
-0.00317545
-0.00644316
-0.00548148
-0.00664528
-0.00542093
-0.00377513
-0.00221886
-0.00682795
-0.00615526
-0.0060468
-0.00606374
-0.00431918
-0.00521827
0.00053746
-0.00202152
-0.00251211
-0.00460097
-0.00245362
-0.00479853
-0.0063217
-0.00634871
-0.00606996
)
;
    }
    procBoundary0to2
    {
        type            processor;
        value           nonuniform List<scalar> 
320
(
-0.000195827
-0.000195756
-0.000195746
-0.00019572
-0.000195722
-0.000403807
-0.000403786
-0.000403767
-0.000403753
-0.000403747
-0.000907215
-0.000907123
-0.000907083
-0.000907039
-0.000907028
-0.00120446
-0.00120437
-0.00120432
-0.00120427
-0.00120425
-0.00166973
-0.00166958
-0.0016695
-0.00166942
-0.0016694
-0.0020003
-0.00200011
-0.002
-0.0019999
-0.00199987
-0.00243939
-0.00243912
-0.00243897
-0.00243883
-0.00243878
-0.00278996
-0.00278959
-0.00278938
-0.0027892
-0.00278913
-0.00321055
-0.00321003
-0.00320975
-0.00320948
-0.0032094
-0.003574
-0.00357328
-0.0035729
-0.00357255
-0.00357244
-0.00397985
-0.00397883
-0.00397829
-0.00397779
-0.00397763
-0.00435044
-0.00434903
-0.0043483
-0.00434767
-0.00434749
-0.00474261
-0.0047406
-0.00473958
-0.00473861
-0.0047383
-0.00511408
-0.00511135
-0.00510994
-0.00510878
-0.00510847
-0.00549009
-0.00548632
-0.00548486
-0.00548291
-0.0054822
-0.00585192
-0.00584812
-0.0058462
-0.00584526
-0.00584567
-0.00619815
-0.00619353
-0.00619578
-0.00620467
-0.00621187
-0.00651646
-0.00651391
-0.00652095
-0.0065249
-0.00652759
-0.00677819
-0.00677391
-0.00677456
-0.00677112
-0.00677048
-0.0069808
-0.00696338
-0.00694815
-0.00693213
-0.00692034
-0.00712168
-0.00708196
-0.0070524
-0.00702372
-0.00700831
-0.00720411
-0.00713723
-0.0070728
-0.00702456
-0.0069712
-0.00726026
-0.00718382
-0.00714372
-0.00710265
-0.00709476
-0.0072551
-0.00714157
-0.00703726
-0.00697837
-0.00680501
-0.00729242
-0.00718836
-0.00715362
-0.00707943
-0.00705998
-0.0072148
-0.00706494
-0.00688182
-0.00683545
-0.0060536
-0.00719388
-0.0069868
-0.00685566
-0.00677547
-0.00675322
-0.00712162
-0.00687969
-0.00664563
-0.00654711
-0.0055367
-0.00711609
-0.00708292
-0.00702615
-0.00723272
-0.0076107
-0.00701921
-0.00687313
-0.00674947
-0.00647995
-0.00730495
-0.00679122
-0.006696
-0.00639677
-0.00620402
-0.00538469
-0.00676922
-0.00679086
-0.00673935
-0.0062164
-0.00417003
-0.00651389
-0.00652637
-0.0067877
-0.00680225
-0.00880056
-0.00646861
-0.00652092
-0.00638964
-0.00663326
-0.0064889
-0.0058893
-0.00592456
-0.00589549
-0.00606625
-0.00573622
-0.00558894
-0.00559544
-0.00554912
-0.00571178
-0.00566506
-0.00423817
-0.00424727
-0.00425546
-0.0043372
-0.00426722
-0.00347269
-0.00351438
-0.00361124
-0.00375087
-0.00381072
-0.00157955
-0.00160298
-0.0016727
-0.00170249
-0.00168626
-0.000821186
-0.000851051
-0.000902135
-0.00101168
-0.00109375
-0.00451067
-0.002475
-0.00506415
-0.00957839
-0.00778102
-0.00359645
-0.0065719
-0.00727374
-0.00822451
-0.00636667
-0.00630075
-0.00674771
-0.00627832
-0.00592592
-0.00756872
-0.0067638
-0.00643607
-0.00705787
-0.00780191
-0.00757676
-0.00698739
-0.00636288
-0.00716195
-0.00751524
-0.00752072
-0.00767505
-0.00742741
-0.00785916
-0.00801973
-0.00663134
-0.00736161
-0.00702031
-0.0077187
-0.00643112
-0.00781496
-0.00750022
-0.0083416
-0.00825276
-0.00838832
-0.00796037
-0.0083837
-0.00842502
-0.00808889
-0.00829485
-0.00809019
-0.00701091
-0.00792868
-0.00823747
-0.00846224
-0.00860522
-0.00863215
-0.00690521
-0.00718669
-0.00799919
-0.00700075
-0.00755229
-0.00529943
-0.00840675
-0.00780611
-0.00805291
-0.00733828
-0.00695597
-0.00774486
-0.00495512
-0.004215
-0.00105751
-0.00728039
-0.00815243
-0.00775449
-0.00974132
-0.00890848
-0.00853012
-0.00751807
-0.00738726
-0.00691341
-0.00333905
-0.00569258
-0.00547245
-0.00426405
-0.0066075
-0.0031573
-0.00750034
-0.00694347
-0.00722947
-3.2399e-05
-0.000896152
-0.00509772
-0.00639982
-0.00733895
-0.00560207
-0.00677763
-0.00723887
-0.00777355
-0.00735417
-0.00373196
-0.00584552
-0.00317498
-0.00347428
-0.00271433
-0.00664449
-0.0054806
-0.00644243
-0.00221808
-0.00377437
-0.00542007
-0.00604599
-0.00615444
-0.00682698
-0.00521824
-0.00431919
-0.00606379
-0.00251224
-0.00202159
0.000537193
-0.00479866
-0.00245381
-0.00460082
-0.00606989
-0.0063487
-0.00632114
)
;
    }
}


// ************************************************************************* //
