FoamFile
{version 2.0; format ascii;class Cloud<passiveParticle>; location 0;object  positions;}
2
(
( 0.499999 0.499999 3.40772 ) 0 
( 0.499999 0.499999 3.06968 ) 0 
)
