/*--------------------------------*- C++ -*----------------------------------*\
| =========                 |                                                 |
| \\      /  F ield         | OpenFOAM: The Open Source CFD Toolbox           |
|  \\    /   O peration     | Version:  5.x                                   |
|   \\  /    A nd           | Web:      www.OpenFOAM.org                      |
|    \\/     M anipulation  |                                                 |
\*---------------------------------------------------------------------------*/
FoamFile
{
    version     2.0;
    format      ascii;
    class       volScalarField;
    location    "0.057";
    object      interFace;
}
// * * * * * * * * * * * * * * * * * * * * * * * * * * * * * * * * * * * * * //

dimensions      [0 0 0 0 0 0 0];

internalField   nonuniform List<scalar> 
1567
(
0
0
0
0
0
0
0
0
0
0
0
0
0
0
0
0
0
0
0
0
0
0
0
0
0
0
0
0
0
0
0
0
0
0
0
0
0
0
0
0
0
0
0
0
0
0
0
0
0
0
0
0
0
0
0
0
0
0
0
0
0
0
0
0
0
0
0
0
0
0
0
0
0
0
0
0
0
0
0
0
0
0
0
0
0
0
0
0
0
0
0
0
0
0
0
0
0
0
0
0
0
0
0
0
0
0
0
0
0
0
0
0
0
0
0
0
0
0
0
0
0
0
0
0
0
0
0
0
0
0
0
0
0
0
0
0
0
0
0
0
0
0
0
0
0
0
0
0
0
0
0
0
0
0
0
0
0
0
0
0
0
0
0
0
0
0
0
0
0
0
0
0
0
0
0
0
0
0
0
0
0
0
0
0
0
0
0
0
0
0
0
0
0
0
0
0
0
0
0
0
0
0
0
0
0
0
0
0
0
0
0
0
0
0
0
0
0
0
0
0
0
0
0
0
0
0
0
0
0
0
0
0
0
0
0
0
0
0
0
0
0
0
0
0
0
0
0
0
0
0
0
0
0
0
0
0
0
0
0
0
0
0
0
0
0
0
0
0
0
0
0
0
0
0
0
0
0
0
0
0
0
0
0
0
0
0
0
0
0
0
0
0
0
0
0
0
0
0
0
0
0
0
0
0
0
0
0
0
0
0
0
0
0
0
0
0
0
0
0
0
0
0
0
0
0
0
0
0
0
0
0
0
0
0
0
0
0
0
0
0
0
0
0
0
0
0
0
0
0
0
0
0
0
0
0
0
0
0
0
0
0
0
0
0
0
0
0
0
0
0
0
0
0
0
0
0
0
0
0
0
0
0
0
0
0
0
0
0
0
0
0
0
0
0
0
0
0
0
0
0
0
0
0
0
0
0
0
0
0
0
0
0
0
0
0
0
0
0
0
0
0
0
0
0
0
0
0
0
0
0
0
0
0
0
0
0
0
0
0
0
0
0
0
0
0
0
0
0
0
0
0
0
0
0
0
0
0
0
0
0
0
0
0
0
0
0
0
0
0
0
0
0
0
0
0
0
0
0
0
0
0
0
0
0
0
0
0
0
0
0
0
0
0
0
0
0
0
0
0
0
0
0
0
0
0
0
0
0
0
0
0
0
0
0
0
0
0
0
0
0
0
0
0
0
0
0
0
0
0
0
0
0
0
0
0
0
0
0
0
0
0
0
0
0
0
0
0
0
0
0
0
0
0
0
0
0
0
0
0
0
0
0
0
0
0
0
0
0
0
0
0
0
0
0
0
0
0
0
0
0
0
0
0
0
0
0
0
0
0
0
0
0
0
0
0
0
0
0
0
0
0
0
0
0
0
0
0
0
0
0
0
0
0
0
0
0
0
0
0
0
0
0
0
0
0
0
0
0
0
0
0
0
0
0
0
0
0
0
0
0
0
0
0
0
0
0
0
0
0
0
0
0
0
0
0
0
0
0
0
0
0
0
0
0
0
0
0
0
0
0
0
0
0
0
0
0
0
0
0
0
0
0
0
0
0
0
0
0
0
0
0
0
0
0
0
0
0
0
0
0
0
0
0
0
0
0
0
0
0
0
0
0
0
0
0
0
0
0
0
0
0.508266
0.924352
0
0
0
0
0
0
0
0
0
0
0
0
0
0
0
0
0
0
0
0
0
0
0
0.294663
0.743015
0
0
0
0
0
0
0
0
0
0
0
0
0
0
0
0
0
0
0
0
0
0
0
0.855564
0
0
0
0
0
0
0
0
0
0
0
0
0
0
0
0
0
0
0
0
0
0
0
0
0.792487
0
0
0
0
0
0
0
0
0
0
0
0
0
0
0
0
0
0
0
0
0
0
0
0
0.29372
0.742074
0
0
0
0
0
0
0
0
0
0
0
0
0
0
0
0
0
0
0
0
0
0
0
0.512082
0
0
0
0
0
0
0
0
0
0
0
0
0
0
0
0
0
0
0
0
0
0
0
0
0
0
0
0
0
0
0
0
0
0
0
0
0
0
0
0
0
0
0
0
0
0
0
0
0
0
0
0
0
0
0
0
0
0
0
0
0
0
0
0
0
0
0
0
0
0
0
0
0
0
0
0
0
0
0
0
0
0
0
0
0
0
0
0
0
0
0
0
0
0
0
0
0
0
0
0
0
0
0
0
0
0
0
0
0
0
0
0
0
0
0
0
0
0
0
0
0
0
0
0
0
0
0
0
0
0
0
0
0
0
0
0
0
0
0
0
0
0
0
0
0
0
0
0
0
0
0
0
0
0
0
0.529381
0.855714
0
0
0.929214
0
0
0.523677
0.792711
0.351181
0.620216
0.082371
0.351405
0.562755
0.0249101
0.293944
0.390261
0.659295
0.121451
0.390485
0
0.892301
0
0
0
0
0
0.781117
0.243272
0.512306
0.956737
0
0.77753
0.956886
0
0.8926
0
0
0
0
0
0.563696
0.0258555
0.294888
0.605077
0.874109
0.336269
0.605301
0.856953
0.574163
0.574238
0.767314
0.61902
0.812096
0.812171
0.499554
0.288055
0.288129
0.409914
0.332912
0.454696
0.454771
0.589158
0.55694
0.377658
0.678724
0.422516
0.723582
0.5443
0.589232
0.557089
0.377807
0.678948
0.42259
0.723731
0.544449
0.381051
0.381126
0.425908
0.277616
0.187977
0.232759
0.232834
0
0.473907
0.74294
0
0
0.827828
0
0
0.474207
0
0
0
0.828127
0
0.649934
0.470654
0.515511
0.367219
0.456785
0.501642
0.322362
0.650083
0.470803
0.515585
0.367294
0.45701
0.501792
0.322512
0.678836
0.646618
0.646693
0.947758
0.512194
0.81326
0.813334
0.739611
0.739686
0.605188
0.456896
0.725818
0.59132
0.591394
0.13409
0.0444498
0.166233
0.166308
0.211091
0.0892328
0.0893074
0
0.472965
0.741999
0
0
0.569505
0.83854
0
0.473264
0
0.828164
0
0.569804
0
0.223694
0.31326
0.435119
0.255837
0.358118
0.300695
0.178836
0.223768
0.313484
0.435268
0.255986
0.358267
0.300769
0.178986
0.777299
0.239459
0.508491
0.280833
0.549866
0.0120254
0.281058
0.174145
0.0706376
0.0707125
0.0845061
0.115495
0.129288
0.129363
0.263748
0.33952
0.16024
0.353314
0.205097
0.398171
0.218891
0.263823
0.33967
0.16039
0.353539
0.205172
0.398321
0.219041
0.313372
0.582295
0.524797
0.524871
0.447796
0.447871
0.390373
0.353425
0.429198
0.429273
0.622346
0.294775
0.487848
0.487923
0.10191
0.069693
0.0697676
0.0122697
0.114551
0.0570526
0.0571273
0
0
0
0
0
0
0
0.492505
0.793571
0.614363
0.537362
0.838428
0.761427
0.71657
0.492803
0.614587
0.793944
0.537586
0.838727
0.761726
0.716943
0.191514
0.338578
0.159296
0.28108
0.204154
0.325938
0.146656
0.191588
0.338727
0.159446
0.281304
0.204229
0.326087
0.146805
0.0568075
0.0568824
0.101665
0.132655
0.0430159
0.087798
0.0878729
0
0.68751
0.924202
0
0
0.460077
0.72911
0
0.68781
0
0.729184
0
0.460377
0
0.518764
0.532558
0.577415
0.801479
0.697971
0.742828
0.756622
0.518989
0.532857
0.577639
0.801778
0.698346
0.743128
0.756996
0.281192
0.428256
0.428331
0.550114
0.293832
0.415616
0.41569
0.32569
0.14641
0.191267
0.222258
0.311824
0.356681
0.177401
0.32584
0.14656
0.191342
0.222333
0.312048
0.356831
0.17755
0.415368
0.415443
0.280945
0.311935
0.580856
0.446358
0.446433
0
0
0
0
0
0
0
0.761539
0
0.704041
0.62704
0.928106
0.851106
0.985604
0.274293
0.184652
0.127154
0.127229
0.172012
0.229435
0.22951
0.608591
0.801665
0.667242
0.891381
0.967154
0.83273
0
0.608442
0.80159
0.667092
0.891156
0.967004
0.832506
0
0
0.993424
0
0
0
0.530426
0.878577
0
0.993723
0
0.878726
0
0.530725
0
0.363896
0.453463
0.396039
0.216757
0.49832
0.261615
0.319039
0.363971
0.453687
0.396188
0.216907
0.49847
0.26169
0.319188
0.69703
0.517823
0.460325
0.741888
0.505182
0.729247
0.68439
0.518047
0.697403
0.460623
0.742186
0.505406
0.729546
0.684763
0
0
0
0.673719
0.896619
0.404911
0.673943
0.208466
0.284241
0.284316
0.118827
0.329098
0.163609
0.163684
0.298069
0.553123
0.373843
0.387635
0.4187
0.432492
0.253212
0.298144
0.553273
0.373993
0.38786
0.418775
0.432642
0.253361
0.504934
0.684141
0.728998
0.491068
0.535925
0.759989
0.715132
0.505159
0.684516
0.729298
0.491367
0.536149
0.760288
0.715506
0.453575
0.722497
0.485717
0.485792
0.587999
0.588073
0.351293
0.387746
0.642801
0.642876
0.656667
0.508378
0.522169
0.522244
0.966214
0.60765
0.729434
0.83179
0.59501
0.819149
0.953573
0.966064
0.607501
0.729359
0.831566
0.59486
0.818925
0.953424
0.421395
0.56846
0.568535
0.331754
0.613318
0.376537
0.376612
0
0
0
0
0
0
0
0.594612
0.953174
0.818676
0.7601
0.625602
0.849666
0.984164
0.594761
0.953324
0.8189
0.760175
0.625752
0.849891
0.984314
0.510998
0.837345
0.658063
0.600565
0.702921
0.645422
0.466141
0.511073
0.837494
0.658213
0.600789
0.702996
0.645572
0.46629
0.632707
0.754491
0.575284
0.677565
0.799349
0.90163
0.856773
0.633006
0.575507
0.754864
0.677789
0.799647
0.901929
0.857146
0.449693
0.449768
0.49455
0.704822
0.615183
0.659965
0.66004
0
0
0
0
0
0
0
0
0
0
0
0
0
0
0.732367
0.566879
0.611736
0.8358
0.911574
0.956431
0.790943
0.732592
0.567178
0.61196
0.836099
0.911949
0.956731
0.791317
0.718576
0.539295
0.584152
0.794425
0.883991
0.928848
0.749568
0.718725
0.539445
0.584227
0.7945
0.884216
0.928998
0.749718
0.600677
0.927023
0.927098
0.869599
0.792599
0.735101
0.735175
)
;

boundaryField
{
    inlet
    {
        type            calculated;
        value           uniform 0;
    }
    wall
    {
        type            calculated;
        value           uniform 0;
    }
    outlet
    {
        type            calculated;
        value           uniform 0;
    }
    procBoundary1to0
    {
        type            processor;
        value           uniform 0;
    }
    procBoundary1to3
    {
        type            processor;
        value           uniform 0;
    }
}


// ************************************************************************* //
