/*--------------------------------*- C++ -*----------------------------------*\
| =========                 |                                                 |
| \\      /  F ield         | OpenFOAM: The Open Source CFD Toolbox           |
|  \\    /   O peration     | Version:  5.x                                   |
|   \\  /    A nd           | Web:      www.OpenFOAM.org                      |
|    \\/     M anipulation  |                                                 |
\*---------------------------------------------------------------------------*/
FoamFile
{
    version     2.0;
    format      ascii;
    class       volScalarField;
    location    "0.057";
    object      phiIB;
}
// * * * * * * * * * * * * * * * * * * * * * * * * * * * * * * * * * * * * * //

dimensions      [0 2 -1 0 0 0 0];

internalField   nonuniform List<scalar> 
1567
(
-0.000103933
-0.000103935
-0.000103947
-0.00010395
-0.000103987
-0.000103893
-0.000103894
-0.000103906
-0.000103909
-0.000103946
-0.000103892
-0.000103892
-0.000103904
-0.000103907
-0.000103944
-0.000103876
-0.000103876
-0.000103888
-0.000103891
-0.000103928
-0.000103879
-0.000103879
-0.00010389
-0.000103893
-0.000103931
-0.000203233
-0.000203234
-0.000203239
-0.000203245
-0.000203255
-0.000203223
-0.000203224
-0.00020323
-0.000203236
-0.000203246
-0.000203216
-0.000203217
-0.000203222
-0.000203228
-0.000203238
-0.00020321
-0.000203211
-0.000203216
-0.000203221
-0.000203232
-0.000203209
-0.000203209
-0.000203213
-0.000203219
-0.000203229
-0.000482687
-0.000482691
-0.000482709
-0.000482724
-0.000482772
-0.000482636
-0.000482639
-0.000482658
-0.000482673
-0.000482721
-0.00048262
-0.000482623
-0.000482641
-0.000482656
-0.000482704
-0.000482597
-0.0004826
-0.000482618
-0.000482632
-0.00048268
-0.000482595
-0.000482596
-0.000482614
-0.000482628
-0.000482676
-0.000630082
-0.000630086
-0.000630106
-0.000630124
-0.00063017
-0.000630034
-0.000630038
-0.000630058
-0.000630077
-0.000630123
-0.000630013
-0.000630016
-0.000630036
-0.000630054
-0.000630101
-0.000629989
-0.000629992
-0.000630011
-0.00063003
-0.000630077
-0.000629983
-0.000629985
-0.000630005
-0.000630023
-0.00063007
-0.00088366
-0.000883666
-0.000883698
-0.000883726
-0.000883802
-0.00088358
-0.000883585
-0.000883617
-0.000883645
-0.000883722
-0.000883547
-0.000883553
-0.000883585
-0.000883613
-0.000883691
-0.000883508
-0.000883514
-0.000883546
-0.000883574
-0.000883652
-0.000883499
-0.000883505
-0.000883537
-0.000883565
-0.000883643
-0.00105591
-0.00105591
-0.00105596
-0.00105599
-0.00105609
-0.0010558
-0.00105581
-0.00105585
-0.00105589
-0.00105599
-0.00105576
-0.00105577
-0.00105581
-0.00105585
-0.00105595
-0.00105571
-0.00105571
-0.00105576
-0.0010558
-0.0010559
-0.00105569
-0.0010557
-0.00105575
-0.00105578
-0.00105589
-0.001289
-0.00128901
-0.00128907
-0.00128912
-0.00128926
-0.00128885
-0.00128886
-0.00128892
-0.00128897
-0.00128912
-0.00128879
-0.0012888
-0.00128886
-0.00128891
-0.00128906
-0.00128871
-0.00128873
-0.00128879
-0.00128884
-0.00128899
-0.00128869
-0.00128871
-0.00128877
-0.00128883
-0.00128897
-0.00147673
-0.00147674
-0.00147682
-0.00147689
-0.00147709
-0.00147652
-0.00147653
-0.00147662
-0.00147669
-0.00147689
-0.00147644
-0.00147645
-0.00147654
-0.00147661
-0.00147681
-0.00147634
-0.00147635
-0.00147644
-0.00147651
-0.00147672
-0.00147631
-0.00147633
-0.00147642
-0.00147649
-0.0014767
-0.00169671
-0.00169673
-0.00169684
-0.00169694
-0.00169721
-0.00169642
-0.00169644
-0.00169656
-0.00169666
-0.00169694
-0.00169631
-0.00169633
-0.00169645
-0.00169655
-0.00169683
-0.00169617
-0.00169619
-0.00169631
-0.00169642
-0.0016967
-0.00169614
-0.00169616
-0.00169628
-0.00169639
-0.00169668
-0.00189266
-0.00189268
-0.00189284
-0.00189297
-0.00189336
-0.00189225
-0.00189227
-0.00189244
-0.00189257
-0.00189297
-0.0018921
-0.00189212
-0.00189229
-0.00189243
-0.00189283
-0.00189191
-0.00189194
-0.00189211
-0.00189225
-0.00189265
-0.00189188
-0.0018919
-0.00189207
-0.00189221
-0.00189262
-0.00210428
-0.00210431
-0.00210452
-0.0021047
-0.00210522
-0.00210371
-0.00210374
-0.00210397
-0.00210416
-0.0021047
-0.0021035
-0.00210354
-0.00210376
-0.00210395
-0.0021045
-0.00210326
-0.00210329
-0.00210352
-0.00210371
-0.00210428
-0.00210321
-0.00210324
-0.00210347
-0.00210366
-0.00210423
-0.00230308
-0.00230311
-0.0023034
-0.00230362
-0.00230435
-0.0023023
-0.00230233
-0.00230263
-0.00230286
-0.00230362
-0.00230205
-0.00230208
-0.00230238
-0.00230261
-0.00230338
-0.00230173
-0.00230176
-0.00230207
-0.0023023
-0.00230308
-0.00230169
-0.00230171
-0.00230201
-0.00230224
-0.00230303
-0.00250805
-0.00250807
-0.00250842
-0.0025087
-0.00250966
-0.00250698
-0.00250701
-0.00250739
-0.00250768
-0.00250871
-0.0025067
-0.00250671
-0.00250708
-0.00250736
-0.0025084
-0.00250632
-0.00250632
-0.0025067
-0.00250697
-0.00250803
-0.0025063
-0.00250629
-0.00250665
-0.0025069
-0.00250798
-0.00270518
-0.00270514
-0.00270556
-0.00270581
-0.00270711
-0.00270382
-0.00270379
-0.00270421
-0.00270446
-0.00270582
-0.0027037
-0.00270362
-0.00270398
-0.00270417
-0.00270554
-0.00270337
-0.00270328
-0.0027036
-0.00270374
-0.0027051
-0.00270347
-0.00270334
-0.00270364
-0.00270373
-0.00270509
-0.00290143
-0.00290129
-0.00290168
-0.00290188
-0.00290349
-0.00289981
-0.00289965
-0.00290002
-0.00290016
-0.00290189
-0.00290026
-0.00289993
-0.00290007
-0.00289998
-0.00290165
-0.00290082
-0.00290023
-0.00289991
-0.00289958
-0.00290124
-0.00290143
-0.00290077
-0.00290019
-0.0028997
-0.00290133
-0.00308985
-0.00308935
-0.0030897
-0.00308954
-0.00309158
-0.00308868
-0.00308791
-0.00308797
-0.00308756
-0.00308955
-0.00309028
-0.00308937
-0.00308893
-0.0030879
-0.00308965
-0.00309233
-0.00309057
-0.00308933
-0.0030878
-0.00308927
-0.00309452
-0.00309223
-0.00309014
-0.0030885
-0.0030897
-0.00326465
-0.00326392
-0.00326435
-0.00326422
-0.00326726
-0.00326424
-0.00326285
-0.00326239
-0.00326173
-0.00326425
-0.00326714
-0.00326531
-0.00326367
-0.0032623
-0.00326429
-0.00326924
-0.00326791
-0.00326524
-0.00326269
-0.00326381
-0.00327033
-0.00326911
-0.00326691
-0.00326391
-0.0032644
-0.00341931
-0.00341893
-0.00341975
-0.00342012
-0.00342533
-0.00341737
-0.00341717
-0.00341714
-0.00341642
-0.00342015
-0.00341724
-0.00341713
-0.00341775
-0.00341702
-0.00341967
-0.00341517
-0.00341516
-0.00341703
-0.00341693
-0.00341876
-0.00341495
-0.00341503
-0.003417
-0.00341701
-0.00341899
-0.00353058
-0.00353143
-0.00353535
-0.00353852
-0.00354783
-0.00352419
-0.00352573
-0.00352942
-0.0035309
-0.00353856
-0.00352019
-0.00352196
-0.00352663
-0.00352922
-0.00353521
-0.00351524
-0.00351721
-0.00352184
-0.00352543
-0.00353118
-0.00351268
-0.00351503
-0.00351987
-0.00352371
-0.00353014
-0.0036195
-0.00361976
-0.00362539
-0.00363077
-0.00364167
-0.0036047
-0.00360672
-0.00361322
-0.00361814
-0.00363083
-0.00359536
-0.00359833
-0.00360586
-0.00361297
-0.0036252
-0.00358546
-0.00358952
-0.0035981
-0.00360623
-0.00361931
-0.00358008
-0.00358515
-0.00359482
-0.00360392
-0.00361873
-0.00365741
-0.00366039
-0.00366889
-0.00367702
-0.00369255
-0.00363111
-0.00363631
-0.00364709
-0.00365851
-0.00367713
-0.00360976
-0.00361784
-0.00363132
-0.00364673
-0.00366863
-0.00359208
-0.00360278
-0.00361757
-0.00363565
-0.00365977
-0.00357612
-0.00359157
-0.00360901
-0.00363002
-0.00365649
-0.00369676
-0.00369856
-0.00370721
-0.00371586
-0.00373449
-0.00366637
-0.00367144
-0.0036817
-0.00369383
-0.00371595
-0.00364528
-0.00365263
-0.00366615
-0.00368127
-0.00370684
-0.0036266
-0.00363739
-0.0036522
-0.00367057
-0.00369772
-0.00361466
-0.0036262
-0.00364436
-0.00366499
-0.00369542
-0.0036795
-0.0036864
-0.00369471
-0.00370466
-0.0037294
-0.00363265
-0.0036441
-0.00365721
-0.00367707
-0.00370487
-0.00359193
-0.00360999
-0.00362757
-0.00365659
-0.00369433
-0.00357476
-0.00359402
-0.00360958
-0.00364304
-0.0036856
-0.00354646
-0.00357409
-0.00359076
-0.00363081
-0.00367797
-0.00372204
-0.00372347
-0.00372887
-0.0037323
-0.00375545
-0.00367717
-0.00368844
-0.0036943
-0.0037063
-0.0037323
-0.00364354
-0.00366096
-0.00367349
-0.00369365
-0.00372815
-0.00362647
-0.00365571
-0.00366018
-0.0036872
-0.00372215
-0.00358376
-0.00362636
-0.00364234
-0.00367534
-0.00371987
-0.00365207
-0.00365768
-0.0036654
-0.00367759
-0.00370869
-0.0036062
-0.00362021
-0.00362671
-0.00364595
-0.00367774
-0.00353621
-0.00357423
-0.00358625
-0.00362571
-0.00366447
-0.00352619
-0.00356783
-0.00357344
-0.00361857
-0.00365576
-0.00345984
-0.00352375
-0.00353422
-0.00360333
-0.0036489
-0.00366906
-0.00368228
-0.00369309
-0.00370377
-0.00373711
-0.00363226
-0.00366109
-0.00364507
-0.00367264
-0.00370355
-0.00353841
-0.00361705
-0.00360896
-0.00364398
-0.00369152
-0.003641
-0.0037183
-0.00361605
-0.00365876
-0.0036791
-0.00332002
-0.00364425
-0.00353982
-0.00362988
-0.00366496
-0.00353515
-0.00355724
-0.00358018
-0.00360578
-0.00365286
-0.00351173
-0.00352535
-0.00352322
-0.00356503
-0.00360559
-0.00344834
-0.00346454
-0.00345925
-0.00352126
-0.00357785
-0.00333511
-0.00346345
-0.00346573
-0.00352167
-0.00355228
-0.00360996
-0.00334035
-0.00345072
-0.00350416
-0.00352718
-0.00353332
-0.00358718
-0.00360923
-0.00364002
-0.00368337
-0.00360219
-0.00360553
-0.00354785
-0.0036176
-0.00363965
-0.00300062
-0.00336553
-0.00336107
-0.00354593
-0.00360666
-0.00294547
-0.00363686
-0.0033642
-0.00359964
-0.00358066
-0.00161309
-0.00342006
-0.00300489
-0.00358949
-0.0035248
-0.00346402
-0.003455
-0.00350191
-0.00351937
-0.00357215
-0.00348735
-0.00346926
-0.00343923
-0.00349785
-0.00351912
-0.00339945
-0.00333247
-0.00337262
-0.00343589
-0.00349813
-0.00251356
-0.00320367
-0.00332499
-0.003461
-0.00344607
-0.00180757
-0.00324025
-0.00338554
-0.00346988
-0.00344954
-0.00363279
-0.00359267
-0.00359882
-0.00360396
-0.00361935
-0.00360517
-0.00355399
-0.00359825
-0.00359484
-0.00360444
-0.00377474
-0.00365083
-0.00362285
-0.00359467
-0.00359623
-0.00325762
-0.00346667
-0.00364551
-0.00354551
-0.00358529
-0.00726904
-0.00408093
-0.00375136
-0.00358893
-0.00362249
-0.00341539
-0.00336309
-0.00341387
-0.00342115
-0.00345406
-0.00332464
-0.00330461
-0.00338038
-0.00341233
-0.00342168
-0.00395993
-0.00327476
-0.00338424
-0.0033776
-0.00341117
-0.00283674
-0.00289275
-0.00327049
-0.00329866
-0.00335508
-0.0061211
-0.0027719
-0.00392222
-0.00330706
-0.00340335
-0.00348766
-0.00346044
-0.00347346
-0.0034786
-0.00348805
-0.00334876
-0.00337513
-0.00344368
-0.00346231
-0.00347997
-0.00331195
-0.00332546
-0.00343534
-0.00344181
-0.00347122
-0.0032141
-0.00297469
-0.00332661
-0.00337017
-0.00345206
-0.001417
-0.00221014
-0.00335234
-0.00334013
-0.00347242
-0.00330613
-0.00326744
-0.00327704
-0.00326391
-0.0032666
-0.00331131
-0.00327831
-0.0032827
-0.00327693
-0.00326398
-0.00348368
-0.00333257
-0.00331468
-0.00327933
-0.00327347
-0.00331087
-0.00324331
-0.00331222
-0.00327271
-0.00326002
-0.00163118
-0.00287041
-0.00346129
-0.0033049
-0.00329669
-0.00344034
-0.00340248
-0.00338454
-0.00336598
-0.00334856
-0.00339069
-0.00339786
-0.0033972
-0.00337913
-0.00336639
-0.00356789
-0.00343149
-0.00344128
-0.00339478
-0.0033824
-0.00324086
-0.0034469
-0.00342107
-0.00339204
-0.00339656
-0.00446504
-0.00373408
-0.00354018
-0.00338355
-0.00343171
-0.00306695
-0.00301652
-0.00300372
-0.00298878
-0.0029771
-0.00290416
-0.00297145
-0.00300306
-0.00298862
-0.00299063
-0.00323667
-0.00299496
-0.00308361
-0.00299926
-0.00300408
-0.00276383
-0.0030596
-0.00299631
-0.0029669
-0.00301616
-0.00303179
-0.00278546
-0.0032383
-0.00289386
-0.00306358
-0.00309005
-0.00306166
-0.00304566
-0.00303156
-0.0030151
-0.00304959
-0.00306001
-0.00306573
-0.00304931
-0.00303274
-0.00318744
-0.00310355
-0.00311418
-0.00306496
-0.0030457
-0.00324236
-0.00314247
-0.00309738
-0.00305741
-0.0030589
-0.00346675
-0.00327174
-0.0031878
-0.0030481
-0.00308451
-0.00230605
-0.0023189
-0.00232468
-0.00232705
-0.00232306
-0.0022294
-0.00226818
-0.00230802
-0.00231894
-0.00232883
-0.00224556
-0.00223995
-0.0022857
-0.00230632
-0.00232573
-0.00211383
-0.00219126
-0.00224257
-0.00226625
-0.00231946
-0.00213244
-0.0021102
-0.00224604
-0.0022242
-0.00230439
-0.00200584
-0.00199767
-0.00198894
-0.00198835
-0.00198442
-0.00203714
-0.00202481
-0.00201213
-0.00200227
-0.00198937
-0.00214931
-0.00208921
-0.0020437
-0.00201224
-0.00199002
-0.00223192
-0.00216746
-0.00208932
-0.00202516
-0.00199836
-0.00235014
-0.0022374
-0.00215067
-0.00203845
-0.00200638
-0.000885091
-0.000879748
-0.000872861
-0.000875225
-0.000873608
-0.000891866
-0.000880997
-0.000876897
-0.000872564
-0.000876021
-0.000914094
-0.000911227
-0.000900634
-0.0008766
-0.000873357
-0.000887661
-0.000900833
-0.000913711
-0.000881844
-0.000881359
-0.000869865
-0.00088621
-0.000914912
-0.000892364
-0.000886912
-0.000493059
-0.000489724
-0.000485505
-0.000484375
-0.000484642
-0.000531861
-0.000521011
-0.000505523
-0.000498682
-0.000484935
-0.000589535
-0.000551539
-0.000518871
-0.000505475
-0.000486424
-0.000672027
-0.00061633
-0.000550632
-0.000520701
-0.000490626
-0.000745861
-0.000672933
-0.000590447
-0.000532473
-0.000494554
-0.00419251
-0.00605266
-0.00593937
-0.00227072
-0.00223428
-0.00167274
-0.00195252
-0.0025593
-0.000691894
-0.00136947
-2.71671e-05
-0.00223543
-0.000454335
-0.000117954
-0.00282842
-0.00246362
-0.00166056
-0.00502221
-0.00398021
-0.00522911
-0.00518101
-0.00310386
-0.00392563
-0.00369219
-0.00351368
-0.00310041
-0.00370766
-0.00364982
-0.00354881
-0.00558567
-0.00458305
-0.00323968
-0.00254292
-0.00378034
-0.00344173
-0.00318005
-0.0039937
-0.00329831
-0.003708
-0.0031812
-0.00371289
-0.00361703
-0.00455524
-0.0056351
-0.00725378
-0.00543273
-0.00360706
-0.0069752
-0.00536596
-0.00524777
-0.00670697
-0.00665304
-0.00579337
-0.00672949
-0.00599446
-0.00591735
-0.00381245
-0.0049075
-0.00492266
-0.00594618
-0.00444682
-0.00465913
-0.00465167
-0.00443203
-0.00420717
-0.00480145
-0.00361528
-0.0046142
-0.00325786
-0.00496558
-0.00451851
-0.00433532
-0.00489257
-0.00378032
-0.00469388
-0.00339363
-0.00505539
-0.0072011
-0.00717034
-0.00676064
-0.006696
-0.00671214
-0.00691727
-0.00689778
-0.00330324
-0.00513534
-0.00408403
-0.0030307
-0.00246419
-0.00457609
-0.00398731
-0.00328166
-0.00511168
-0.00321676
-0.00395606
-0.00242836
-0.00454648
-0.00297354
-0.00403413
-0.00883972
-0.00703419
-0.00645751
-0.00643448
-0.00563647
-0.00702016
-0.00399591
-0.00878086
-0.00700459
-0.00644162
-0.00637725
-0.00559622
-0.00698542
-0.0047099
-0.00403475
-0.00416077
-0.00286269
-0.00467108
-0.00382323
-0.00388806
-0.00463434
-0.00461928
-0.00641915
-0.00632443
-0.00429125
-0.00502626
-0.00500987
-0.00487862
-0.00463059
-0.00515681
-0.00519107
-0.00503704
-0.00473569
-0.00476066
-0.00316061
-0.0036929
-0.00302087
-0.00331795
-0.00333031
-0.00430227
-0.0036602
-0.0031201
-0.00372252
-0.00331336
-0.00377137
-0.00365934
-0.00449347
-0.00343263
-0.00499066
-0.00588306
-0.00478731
-0.00512898
-0.00577289
-0.00490096
-0.00492881
-0.00504406
-0.00595062
-0.00504864
-0.00523343
-0.00586331
-0.00499541
-0.00498517
-0.00315115
0.00435409
-0.00185621
-0.00539244
-0.00384808
-0.00440746
-0.00537354
-0.00655158
-0.00590101
-0.00589848
-0.0063308
-0.00612045
-0.00648231
-0.00647789
-0.00623221
-0.00667157
-0.00640494
-0.00690655
-0.00639324
-0.00627714
-0.00655247
-0.00621967
-0.00665533
-0.00639812
-0.00688432
-0.00638422
-0.00625691
-0.00654271
-0.00580957
-0.00389902
-0.00429873
-0.00480776
-0.00453254
-0.00458009
-0.0055278
-0.00660146
-0.00524039
-0.00523615
-0.00447515
-0.00684154
-0.00520026
-0.00519376
-0.00431766
-0.00279783
-0.00280613
-0.00379595
-0.00312116
-0.00403738
-0.00405174
-0.00334817
-0.0037947
-0.00345753
-0.00346164
-0.00319517
-0.00366597
-0.00345201
-0.00385092
-0.00334881
-0.004044
-0.00380993
-0.00329932
-0.00371104
-0.00376657
-0.0039337
-0.00447861
-0.00345924
-0.00387648
-0.00333502
-0.00360484
-0.00382241
-0.00484552
-0.00221947
-0.00363181
-0.00509335
-0.00408172
-0.00441315
-0.00454392
-0.00486136
-0.0022051
-0.0036539
-0.00512831
-0.00409613
-0.00442183
-0.00457291
-0.00484589
-0.00484235
-0.00530621
-0.0034365
-0.00230533
-0.0029464
-0.0029285
-0.00313651
-0.00190195
-0.00322609
-0.00368897
-0.00334432
-0.0048353
-0.00396582
-0.00310259
-0.00189264
-0.00247825
-0.00396324
-0.0033204
-0.00483147
-0.00366107
-0.00472859
-0.00675097
-0.00522371
-0.00296035
-0.00429523
-0.00394041
-0.003453
-0.00471093
-0.00673584
-0.0052083
-0.00292923
-0.00426666
-0.00392249
-0.00340665
-0.00557399
-0.00351257
-0.00346546
-0.00330949
-0.00283845
-0.00419513
-0.00412112
-0.00475718
-0.00566757
-0.00624
-0.0044555
-0.00224339
-0.00282635
-0.00457446
-0.00475026
-0.00566867
-0.00624234
-0.00445622
-0.00225015
-0.00282114
-0.00459195
-0.00499975
-0.00499491
-0.00625985
-0.00307878
-0.00354924
-0.00435252
-0.0043376
-0.00311653
-0.00312781
-0.00322059
-0.00331815
-0.00330001
-0.00341691
-0.00334256
-0.00353429
-0.00326777
-0.00401359
-0.00380425
-0.00351004
-0.00361287
-0.00341354
-0.00051674
0.00204477
-0.00073036
-0.000743684
-0.000633292
0.00084128
0.000828165
-0.00441151
-0.00405465
-0.00460587
-0.00372139
-0.00370411
-0.00396569
-0.00358866
-0.00442303
-0.00406491
-0.00461771
-0.00374239
-0.00371387
-0.00398037
-0.00360762
-0.00376743
0.000488609
-0.00228486
-0.0022407
-0.00303474
-0.00149699
-0.00204003
-0.00383676
0.000254588
-0.00350472
-0.00202378
-0.00310264
-0.00160958
-0.00240692
0.000778787
-0.00123815
-0.0013245
-0.0010775
-0.00173596
-0.000670538
0.0012746
0.000820026
-0.00137929
-0.00137322
-0.00113774
-0.00175366
-0.000814586
0.00118409
-0.00264227
-0.00339953
-0.00366534
-0.00276619
-0.00367043
-0.00319671
-0.00331722
-0.00334668
-0.00268059
-0.00371307
-0.00272116
-0.0036046
-0.00310431
-0.00334128
-0.00291702
0.000231341
-0.00157772
-0.0021076
-0.00329686
0.00269945
-0.00210353
-0.000530373
0.000385885
0.000306566
0.00106142
-0.00094548
0.000412501
0.000519776
-0.00223423
-0.0020126
2.59131e-05
-0.00190744
-0.000200358
-0.00276299
-0.00151151
-0.00220412
-0.00196603
3.62939e-05
-0.00189819
-0.000257569
-0.00279673
-0.00148469
-0.00479298
-0.0038823
-0.00359067
-0.00484764
-0.00425299
-0.00354514
-0.00355511
-0.00478569
-0.00385994
-0.0035754
-0.00483715
-0.00422784
-0.00355423
-0.00354105
0.000505891
-0.0028711
-0.00212436
-0.0020905
-0.00175207
-0.0017571
-0.000464632
-0.00242751
-0.00256277
-0.00252069
-0.00320952
-0.00172217
-0.0031443
-0.00314095
-0.00284063
-0.00284782
-0.00284133
-0.00289248
-0.00314973
-0.00278218
-0.00269985
-0.00297719
-0.00300559
-0.00334723
-0.00305409
-0.00361209
-0.00328994
-0.00310032
0.000770866
-0.00112911
-0.0010361
0.00110155
-0.00163175
0.00106017
0.00103465
-0.00325019
-0.00281388
-0.00318983
-0.00359089
-0.00324171
-0.00360536
-0.00358271
-0.00427271
-0.00348781
-0.00377164
-0.00371665
-0.0036985
-0.00375306
-0.00356701
-0.00426807
-0.00348057
-0.00375852
-0.00371567
-0.00368963
-0.00374268
-0.00356142
0.000744034
-0.00196349
-0.000655425
-0.000447784
-0.00111026
-0.00100346
0.00145014
0.000753644
-0.00187089
-0.000519026
-0.000581824
-0.00106605
-0.00105488
0.00143137
-0.000816046
-0.00186046
-0.00151428
-0.000850554
-0.00219514
-0.00185181
-0.00162468
-0.00102372
-0.00158342
-0.00199097
-0.000929057
-0.00227629
-0.00196107
-0.00185061
0.00204654
0.00212174
0.00133607
-0.0019567
-0.00151182
-0.00198801
-0.00193764
-0.00245539
-0.00337104
-0.00348603
-0.00400841
-0.00350881
-0.00210945
-0.00268705
-0.00243044
-0.00333633
-0.00293547
-0.0026728
-0.00346772
-0.00212162
-0.00399873
-0.00153241
-0.00248685
-0.0024563
-0.00371117
-0.00290098
-0.00231872
-0.00396045
-0.00140442
-0.00246617
-0.00240733
-0.00372949
-0.00289131
-0.00241744
-0.003944
-0.00184262
-7.76247e-05
-0.000155176
-0.0028656
-0.00239841
-0.00177946
-0.00330368
-0.0018147
6.83993e-06
-6.85102e-05
-0.00298651
-0.00239219
-0.00182514
-0.00330662
0.0014651
-0.0022162
-0.00214704
-0.00312863
-0.0013303
-0.00165912
-0.00162227
)
;

boundaryField
{
    inlet
    {
        type            fixedValue;
        value           uniform 0;
    }
    wall
    {
        type            zeroGradient;
    }
    outlet
    {
        type            fixedValue;
        value           uniform 0;
    }
    procBoundary1to0
    {
        type            processor;
        value           nonuniform List<scalar> 
320
(
-0.000103933
-0.000103894
-0.000103894
-0.000103878
-0.000103881
-0.000203235
-0.000203225
-0.000203218
-0.000203212
-0.00020321
-0.000482689
-0.000482638
-0.000482623
-0.000482601
-0.000482598
-0.000630086
-0.000630037
-0.000630016
-0.000629992
-0.000629986
-0.000883664
-0.000883584
-0.000883552
-0.000883513
-0.000883504
-0.00105591
-0.00105581
-0.00105576
-0.00105571
-0.0010557
-0.001289
-0.00128885
-0.00128879
-0.00128872
-0.0012887
-0.00147673
-0.00147653
-0.00147644
-0.00147634
-0.00147632
-0.00169672
-0.00169643
-0.00169631
-0.00169618
-0.00169615
-0.00189267
-0.00189226
-0.00189211
-0.00189193
-0.00189189
-0.00210429
-0.00210373
-0.00210352
-0.00210327
-0.00210323
-0.0023031
-0.00230232
-0.00230207
-0.00230175
-0.00230171
-0.00250807
-0.002507
-0.00250672
-0.00250635
-0.00250633
-0.0027052
-0.00270384
-0.00270372
-0.0027034
-0.0027035
-0.00290146
-0.00289985
-0.0029003
-0.00290086
-0.00290148
-0.00308989
-0.00308873
-0.00309033
-0.00309239
-0.00309459
-0.00326469
-0.0032643
-0.0032672
-0.00326929
-0.00327039
-0.00341936
-0.00341742
-0.00341729
-0.00341524
-0.00341503
-0.00353063
-0.00352424
-0.00352024
-0.00351531
-0.00351277
-0.00361951
-0.00360473
-0.00359541
-0.00358556
-0.00358022
-0.00365741
-0.00363111
-0.0036098
-0.0035922
-0.00357631
-0.00369675
-0.0036664
-0.00364537
-0.00362681
-0.00361498
-0.00367941
-0.00363265
-0.00359196
-0.00357496
-0.0035467
-0.00372193
-0.00367721
-0.00364371
-0.00362678
-0.00358408
-0.00365185
-0.00360621
-0.00353632
-0.00352672
-0.00346
-0.00366863
-0.00363206
-0.00353811
-0.00363901
-0.0033161
-0.00353441
-0.00351162
-0.00344803
-0.00333819
-0.00361502
-0.00353213
-0.00360067
-0.00300142
-0.00293924
-0.0015768
-0.00346161
-0.0034848
-0.0034005
-0.0024887
-0.00184572
-0.00363001
-0.00360092
-0.00376018
-0.00325613
-0.00727186
-0.00341294
-0.00332161
-0.00392487
-0.00278495
-0.00629164
-0.00348458
-0.00334554
-0.00331164
-0.00327974
-0.00139679
-0.00330277
-0.00331013
-0.00348436
-0.00330795
-0.00162428
-0.00343563
-0.00338737
-0.00355824
-0.00324899
-0.00446256
-0.00306097
-0.0029027
-0.00323186
-0.00277313
-0.00300202
-0.00308654
-0.00304516
-0.0031918
-0.00322599
-0.00347765
-0.0023006
-0.00222423
-0.00223755
-0.00210856
-0.00212024
-0.00200222
-0.00203374
-0.00214859
-0.00223033
-0.00235858
-0.000883806
-0.000890685
-0.000912048
-0.000886214
-0.000867531
-0.000491846
-0.000531491
-0.000589419
-0.00067218
-0.000746899
-0.00608464
-0.00180718
-0.00226292
-0.000710669
-0.000459679
-2.1049e-05
-0.00246363
-0.00522263
-0.00501046
-0.00391389
-0.0036856
-0.00351626
-0.00560044
-0.00389301
-0.003339
-0.00563666
-0.00699349
-0.00547954
-0.005855
-0.00607095
-0.00677042
-0.00596575
-0.00466798
-0.00491661
-0.00481119
-0.0050017
-0.00367976
-0.00723533
-0.00693014
-0.00671842
-0.00513728
-0.00457435
-0.00302007
-0.00645254
-0.00703766
-0.00888675
-0.00514971
-0.00472657
-0.00462124
-0.00369339
-0.00428651
-0.00331091
-0.00587879
-0.00492094
-0.00511895
0.00435379
-0.00440935
-0.00539368
-0.00633337
-0.00648751
-0.00590359
-0.00640696
-0.00655745
-0.00691614
-0.00379054
-0.00403325
-0.00280218
-0.00333663
-0.00375822
-0.00384237
-0.00363383
-0.00453869
-0.0050829
-0.00484668
-0.00294584
-0.00231115
-0.00189125
-0.00483715
-0.00368638
-0.00675548
-0.00345665
-0.00429679
-0.00224466
-0.00456994
-0.00566715
-0.000749456
0.000837242
0.0020375
0.000476168
-0.00149206
-0.00225532
-0.00123437
0.00125481
-0.00109478
-0.00365732
-0.00331142
-0.00264067
0.00024621
0.00271128
-0.00210872
0.00104487
0.000415377
0.000392447
3.19476e-05
-0.00149794
-0.00190348
-0.00388215
-0.00355559
-0.00484921
0.00107387
0.00101494
-0.00113581
-0.000637277
0.0014518
-0.000445923
-0.00186488
-0.00163836
-0.000826698
0.00203954
-0.00198982
-0.00148631
-0.00335049
-0.00213757
-0.00400152
-0.00248741
-0.00396563
-0.00290833
-0.00240513
-0.00330815
-6.59764e-05
)
;
    }
    procBoundary1to3
    {
        type            processor;
        value           nonuniform List<scalar> 
320
(
-0.000103877
-0.000103876
-0.000103888
-0.000103891
-0.000103928
-0.000203208
-0.000203208
-0.000203212
-0.000203218
-0.000203228
-0.000482592
-0.000482593
-0.00048261
-0.000482624
-0.000482673
-0.00062998
-0.000629982
-0.000630002
-0.00063002
-0.000630067
-0.000883496
-0.0008835
-0.000883532
-0.00088356
-0.000883638
-0.00105569
-0.0010557
-0.00105574
-0.00105578
-0.00105588
-0.00128869
-0.0012887
-0.00128876
-0.00128882
-0.00128897
-0.00147631
-0.00147632
-0.00147641
-0.00147648
-0.00147669
-0.00169613
-0.00169615
-0.00169627
-0.00169638
-0.00169666
-0.00189187
-0.00189189
-0.00189206
-0.0018922
-0.0018926
-0.00210319
-0.00210322
-0.00210345
-0.00210364
-0.00210421
-0.00230167
-0.00230169
-0.00230199
-0.00230222
-0.002303
-0.00250627
-0.00250626
-0.00250662
-0.00250687
-0.00250794
-0.00270343
-0.00270329
-0.00270359
-0.00270367
-0.00270504
-0.00290136
-0.0029007
-0.00290011
-0.00289962
-0.00290125
-0.00309444
-0.00309214
-0.00309004
-0.00308838
-0.00308958
-0.00327024
-0.00326901
-0.00326679
-0.00326377
-0.00326426
-0.00341483
-0.00341489
-0.00341684
-0.00341684
-0.00341881
-0.00351254
-0.00351486
-0.00351967
-0.00352348
-0.00352989
-0.00357985
-0.00358489
-0.00359453
-0.00360361
-0.00361839
-0.00357578
-0.00359121
-0.0036086
-0.00362959
-0.00365599
-0.00361417
-0.00362563
-0.00364371
-0.00366432
-0.00369467
-0.00354587
-0.00357347
-0.00358988
-0.00362989
-0.0036769
-0.00358297
-0.00362518
-0.00364082
-0.00367386
-0.00371826
-0.00345877
-0.00352194
-0.00353173
-0.00360132
-0.00364635
-0.00332348
-0.00364403
-0.00353638
-0.00362619
-0.00366059
-0.00361358
-0.00332951
-0.00344275
-0.00349831
-0.00352043
0.000198491
-0.00330824
-0.00298888
-0.0035811
-0.00351567
0.00435621
-0.00190261
-0.00336142
-0.00346096
-0.00343748
-0.00563622
-0.00511353
-0.00370652
-0.0035729
-0.00360906
-0.00603156
-0.00265139
-0.00382928
-0.00330416
-0.00339461
-0.000662174
-0.000132505
-0.00331385
-0.00331877
-0.00345875
-0.00246386
-0.00368176
-0.00347298
-0.00329624
-0.00328307
-0.00557158
-0.00401262
-0.00354902
-0.00338249
-0.00342355
-0.00297962
-0.00277921
-0.00322879
-0.0028928
-0.00305956
-0.00346666
-0.00326376
-0.00318081
-0.00304595
-0.0030816
-0.00213055
-0.00211151
-0.00224685
-0.00222459
-0.00230387
-0.00234555
-0.00223387
-0.00214815
-0.00203635
-0.00200386
-0.000871353
-0.000886768
-0.000915013
-0.000891833
-0.000886348
-0.00074506
-0.000672348
-0.0005896
-0.000531569
-0.000492913
-0.0015874
-0.00197484
-0.00605982
-0.000449003
-0.000204012
-0.00153789
-0.00523796
-0.0051987
-0.00163123
-0.00378118
-0.0034272
-0.00458068
-0.00373127
-0.00361374
-0.00330095
-0.00697169
-0.00539529
-0.00725306
-0.00577183
-0.00594118
-0.00666274
-0.00589353
-0.00473641
-0.00493796
-0.00490777
-0.00508177
-0.00379237
-0.00719042
-0.00691852
-0.00671853
-0.00455368
-0.00287131
-0.00322076
-0.00637725
-0.00700375
-0.00881086
-0.00520896
-0.00477222
-0.00464089
-0.00450795
-0.003433
-0.00337429
-0.00596581
-0.00499639
-0.00526874
-0.00440677
-0.00538119
-0.00181539
-0.00633469
-0.00649109
-0.00590288
-0.00640326
-0.0065671
-0.00690392
-0.00380181
-0.00405711
-0.00280258
-0.00346732
-0.00387115
-0.00393942
-0.0036311
-0.00457651
-0.00514979
-0.00484479
-0.00292972
-0.00229988
-0.00483457
-0.00364733
-0.00249866
-0.00677684
-0.00340784
-0.00427125
-0.00223942
-0.0045974
-0.00567366
-0.000741453
0.000850352
0.00208513
-0.00167683
-0.00247852
-0.00361402
-0.00370536
-0.00336777
-0.00271217
-0.00144588
0.00115042
-0.00113258
0.00268666
-0.00210134
-0.00164716
0.00107772
0.000515349
0.00029983
3.83838e-05
-0.00149237
-0.00190683
-0.00385501
-0.00353682
-0.00483346
0.0011414
0.00106564
-0.00103085
-0.000560949
0.00140727
-0.000700217
-0.00205805
-0.00199178
-0.00116911
0.00212647
-0.00193583
-0.00153506
-0.00208001
-0.00398998
-0.00290594
-0.00246359
-0.00393502
-0.00287848
-0.00239109
-0.00330952
-3.05761e-06
)
;
    }
}


// ************************************************************************* //
