/*--------------------------------*- C++ -*----------------------------------*\
| =========                 |                                                 |
| \\      /  F ield         | OpenFOAM: The Open Source CFD Toolbox           |
|  \\    /   O peration     | Version:  5.x                                   |
|   \\  /    A nd           | Web:      www.OpenFOAM.org                      |
|    \\/     M anipulation  |                                                 |
\*---------------------------------------------------------------------------*/
FoamFile
{
    version     2.0;
    format      ascii;
    class       surfaceScalarField;
    location    "0.063";
    object      phi;
}
// * * * * * * * * * * * * * * * * * * * * * * * * * * * * * * * * * * * * * //

dimensions      [0 3 -1 0 0 0 0];

internalField   nonuniform List<scalar> 
4444
(
-1.31108e-07
-1.31521e-07
2.96258e-08
-1.05705e-07
-1.58725e-07
-9.62894e-09
-9.2875e-08
-1.67384e-07
6.51164e-09
-4.65636e-08
-1.7648e-07
-2.4113e-08
-1.79252e-07
-1.95168e-08
-1.58293e-07
-1.06098e-07
-9.6988e-09
-1.25704e-07
-1.26111e-07
-6.52365e-08
-1.02835e-07
-1.34169e-07
-5.6121e-08
-5.29118e-08
-1.42073e-07
-8.43687e-08
-1.45113e-07
-7.95949e-08
-1.66959e-07
-9.32728e-08
6.46685e-09
-1.33766e-07
-1.03238e-07
-5.61024e-08
-1.07564e-07
-1.07965e-07
-5.24409e-08
-5.59241e-08
-1.13229e-07
-8.0522e-08
-1.15542e-07
-7.61009e-08
-1.76049e-07
-4.69525e-08
-2.41749e-08
-1.41665e-07
-5.32947e-08
-8.43666e-08
-1.12826e-07
-5.63002e-08
-8.05416e-08
-5.93955e-08
-5.97731e-08
-1.06927e-07
-6.16011e-08
-1.02056e-07
-1.78818e-07
-1.95268e-08
-1.44707e-07
-7.95414e-08
-1.15142e-07
-7.60814e-08
-6.12279e-08
-1.02018e-07
-9.70428e-08
-9.31505e-08
-9.31745e-08
6.3493e-08
-9.41803e-08
-6.7675e-08
4.90069e-09
-7.44388e-08
-6.05385e-08
-1.13189e-09
-5.04122e-08
-5.2377e-08
-3.73285e-08
-4.97728e-08
-4.00247e-08
-6.76529e-08
-9.42637e-08
4.87314e-09
-7.30574e-08
-7.31365e-08
-5.44114e-08
-6.31996e-08
-6.61699e-08
-6.03893e-08
-4.32194e-08
-5.92301e-08
-9.754e-08
-5.66998e-08
-1.00513e-07
-6.05102e-08
-7.45587e-08
-1.15815e-09
-6.60855e-08
-6.33178e-08
-6.03877e-08
-5.92444e-08
-5.93646e-08
-6.61295e-08
-4.07292e-08
-5.49734e-08
-1.03338e-07
-5.33533e-08
-1.06343e-07
-5.23523e-08
-5.05536e-08
-3.7385e-08
-5.91509e-08
-4.33611e-08
-9.75688e-08
-5.48572e-08
-4.08762e-08
-1.03368e-07
-3.77359e-08
-3.78809e-08
-1.4119e-07
-3.67848e-08
-1.44372e-07
-4.97443e-08
-4.00748e-08
-5.66129e-08
-1.00537e-07
-5.32306e-08
-1.0637e-07
-3.66336e-08
-1.44369e-07
-1.47617e-07
-1.52715e-07
-1.53063e-07
9.11951e-08
-1.30091e-07
-1.6253e-07
-1.33454e-09
-1.07203e-07
-1.65286e-07
-6.38044e-09
-5.6763e-08
-1.7048e-07
-6.87364e-08
-1.72023e-07
-7.14769e-08
-1.62181e-07
-1.30443e-07
-1.39635e-09
-1.38208e-07
-1.38561e-07
-1.02379e-07
-1.13156e-07
-1.41309e-07
-1.0944e-07
-6.08599e-08
-1.46173e-07
-1.74164e-07
-1.47905e-07
-1.77526e-07
-1.64939e-07
-1.07566e-07
-6.43346e-09
-1.40957e-07
-1.13521e-07
-1.09432e-07
-1.15303e-07
-1.15667e-07
-1.17445e-07
-6.24677e-08
-1.19666e-07
-1.82699e-07
-1.21265e-07
-1.86342e-07
-1.70131e-07
-5.71181e-08
-6.88393e-08
-1.45819e-07
-6.12162e-08
-1.74206e-07
-1.19301e-07
-6.28234e-08
-1.82749e-07
-6.54279e-08
-6.57852e-08
-2.4896e-07
-6.71811e-08
-2.5287e-07
-1.71678e-07
-7.15628e-08
-1.47555e-07
-1.7755e-07
-1.20902e-07
-1.86376e-07
-6.68258e-08
-2.52854e-07
-2.56902e-07
-1.75265e-07
-1.75406e-07
1.36243e-07
-1.56004e-07
-1.68759e-07
7.78375e-10
-1.27367e-07
-1.67123e-07
-1.39681e-08
-7.51097e-08
-1.64156e-07
-1.00381e-07
-1.63301e-07
-1.08081e-07
-1.68619e-07
-1.56172e-07
7.29334e-10
-1.5042e-07
-1.50586e-07
-1.38758e-07
-1.23664e-07
-1.49084e-07
-1.54239e-07
-7.21891e-08
-1.46558e-07
-2.43236e-07
-1.45805e-07
-2.51506e-07
-1.6698e-07
-1.27549e-07
-1.40218e-08
-1.48915e-07
-1.23846e-07
-1.54242e-07
-1.22717e-07
-1.229e-07
-1.69829e-07
-7.15424e-08
-1.21097e-07
-2.59332e-07
-1.2064e-07
-2.67742e-07
-1.64015e-07
-7.53047e-08
-1.00485e-07
-1.46392e-07
-7.23839e-08
-2.43291e-07
-1.20916e-07
-7.17393e-08
-2.59383e-07
-7.00811e-08
-7.02763e-08
-3.50609e-07
-7.00167e-08
-3.59473e-07
-1.63159e-07
-1.08189e-07
-1.45636e-07
-2.51564e-07
-1.20455e-07
-2.67796e-07
-6.98186e-08
-3.59475e-07
-3.68499e-07
-2.45338e-07
-2.45672e-07
1.89954e-07
-2.12078e-07
-2.52598e-07
-4.31995e-09
-1.72387e-07
-2.54088e-07
-2.50891e-08
-9.23039e-08
-2.58911e-07
-1.50866e-07
-2.6014e-07
-1.61577e-07
-2.52264e-07
-2.12426e-07
-4.39069e-09
-2.18502e-07
-2.18849e-07
-2.0626e-07
-1.77776e-07
-2.20421e-07
-2.28621e-07
-9.60103e-08
-2.25042e-07
-3.58858e-07
-2.26436e-07
-3.70572e-07
-2.53755e-07
-1.72747e-07
-2.51651e-08
-2.20074e-07
-1.78137e-07
-2.28626e-07
-1.79244e-07
-1.79605e-07
-2.51465e-07
-9.72231e-08
-1.83704e-07
-3.82678e-07
-1.85126e-07
-3.94734e-07
-2.58577e-07
-9.26612e-08
-1.51008e-07
-2.24694e-07
-9.63686e-08
-3.58929e-07
-1.83342e-07
-9.75817e-08
-3.82746e-07
-1.00246e-07
-1.00605e-07
-5.1679e-07
-1.01926e-07
-5.29579e-07
-2.59808e-07
-1.61724e-07
-2.2609e-07
-3.70646e-07
-1.84766e-07
-3.94805e-07
-1.01567e-07
-5.29581e-07
-5.42674e-07
-3.36373e-07
-3.36611e-07
2.69942e-07
-2.92845e-07
-3.39778e-07
-7.39695e-09
-2.37717e-07
-3.40307e-07
-3.97177e-08
-1.30826e-07
-3.42592e-07
-2.16801e-07
-3.43063e-07
-2.33869e-07
-3.3954e-07
-2.93103e-07
-7.46749e-09
-2.95824e-07
-2.96082e-07
-2.93654e-07
-2.40183e-07
-2.96668e-07
-3.27884e-07
-1.31894e-07
-2.98866e-07
-5.10858e-07
-2.99464e-07
-5.29255e-07
-3.40068e-07
-2.37985e-07
-3.98052e-08
-2.96409e-07
-2.4045e-07
-3.27899e-07
-2.40817e-07
-2.41086e-07
-3.62626e-07
-1.32394e-07
-2.43002e-07
-5.46956e-07
-2.43711e-07
-5.65784e-07
-3.42354e-07
-1.31099e-07
-2.16956e-07
-2.98609e-07
-1.32166e-07
-5.10942e-07
-2.42735e-07
-1.32669e-07
-5.47028e-07
-1.33434e-07
-1.33707e-07
-7.35382e-07
-1.34398e-07
-7.55279e-07
-3.42824e-07
-2.34046e-07
-2.99205e-07
-5.29358e-07
-2.43441e-07
-5.65875e-07
-1.34122e-07
-7.55294e-07
-7.75618e-07
-4.54018e-07
-4.54387e-07
3.74229e-07
-3.93827e-07
-4.66687e-07
-1.3375e-08
-3.18284e-07
-4.69161e-07
-6.06429e-08
-1.69499e-07
-4.7777e-07
-3.09313e-07
-4.79757e-07
-3.34251e-07
-4.6632e-07
-3.94217e-07
-1.34631e-08
-4.0534e-07
-4.05728e-07
-4.15574e-07
-3.27905e-07
-4.08257e-07
-4.66209e-07
-1.75618e-07
-4.1646e-07
-7.24446e-07
-4.18636e-07
-7.51595e-07
-4.68792e-07
-3.18684e-07
-6.07578e-08
-4.07867e-07
-3.28306e-07
-4.66232e-07
-3.30254e-07
-3.30657e-07
-5.17829e-07
-1.77437e-07
-3.37823e-07
-7.78408e-07
-3.4001e-07
-8.06342e-07
-4.77403e-07
-1.69898e-07
-3.09507e-07
-4.16073e-07
-1.76017e-07
-7.24551e-07
-3.37422e-07
-1.77838e-07
-7.78495e-07
-1.82338e-07
-1.82739e-07
-1.04556e-06
-1.847e-07
-1.07518e-06
-4.79389e-07
-3.34482e-07
-4.18247e-07
-7.51731e-07
-3.39607e-07
-8.06458e-07
-1.84298e-07
-1.0752e-06
-1.10554e-06
-6.52629e-07
-6.52969e-07
5.28635e-07
-5.66268e-07
-6.68303e-07
-2.00714e-08
-4.56882e-07
-6.71468e-07
-8.99151e-08
-2.44002e-07
-6.81841e-07
-4.40135e-07
-6.84266e-07
-4.77333e-07
-6.67964e-07
-5.66634e-07
-2.01675e-08
-5.80592e-07
-5.80956e-07
-5.90287e-07
-4.68517e-07
-5.84125e-07
-6.65624e-07
-2.50807e-07
-5.93916e-07
-1.03008e-06
-5.96527e-07
-1.07091e-06
-6.71126e-07
-4.57257e-07
-9.00558e-08
-5.83757e-07
-4.6889e-07
-6.65664e-07
-4.71399e-07
-4.71777e-07
-7.42535e-07
-2.529e-07
-4.80089e-07
-1.11074e-06
-4.82708e-07
-1.15277e-06
-6.81502e-07
-2.44379e-07
-4.40359e-07
-5.93553e-07
-2.51184e-07
-1.03021e-06
-4.79716e-07
-2.5328e-07
-1.11083e-06
-2.58151e-07
-2.58528e-07
-1.4887e-06
-2.60779e-07
-1.5335e-06
-6.83923e-07
-4.77619e-07
-5.9616e-07
-1.07109e-06
-4.8233e-07
-1.15291e-06
-2.60395e-07
-1.53354e-06
-1.5795e-06
-8.78194e-07
-8.78642e-07
7.38044e-07
-7.64476e-07
-9.07982e-07
-2.4103e-08
-6.15691e-07
-9.14462e-07
-1.2799e-07
-3.25814e-07
-9.34599e-07
-6.15419e-07
-9.39275e-07
-6.71274e-07
-9.07538e-07
-7.64956e-07
-2.42195e-08
-7.92156e-07
-7.92633e-07
-8.21037e-07
-6.38393e-07
-7.99157e-07
-9.3471e-07
-3.3954e-07
-8.18408e-07
-1.44514e-06
-8.2339e-07
-1.50711e-06
-9.1401e-07
-6.16182e-07
-1.28174e-07
-7.98673e-07
-6.38882e-07
-9.3477e-07
-6.44219e-07
-6.44715e-07
-1.05145e-06
-3.43673e-07
-6.61095e-07
-1.56861e-06
-6.65828e-07
-1.63291e-06
-9.34157e-07
-3.26302e-07
-6.15696e-07
-8.17934e-07
-3.40028e-07
-1.4453e-06
-6.60608e-07
-3.44167e-07
-1.56872e-06
-3.5418e-07
-3.54669e-07
-2.10155e-06
-3.58635e-07
-2.17017e-06
-9.38822e-07
-6.71647e-07
-8.22906e-07
-1.50736e-06
-6.6533e-07
-1.6331e-06
-3.58137e-07
-2.17024e-06
-2.24082e-06
-1.27513e-06
-1.2756e-06
1.04561e-06
-1.10912e-06
-1.31741e-06
-2.90854e-08
-8.91306e-07
-1.32742e-06
-1.83248e-07
-4.70314e-07
-1.35562e-06
-8.6836e-07
-1.36295e-06
-9.51596e-07
-1.31694e-06
-1.10964e-06
-2.92219e-08
-1.14883e-06
-1.14934e-06
-1.15727e-06
-9.23606e-07
-1.15907e-06
-1.32834e-06
-4.89652e-07
-1.18592e-06
-2.04885e-06
-1.19349e-06
-2.14313e-06
-1.32695e-06
-8.91832e-07
-1.83486e-07
-1.15855e-06
-9.24129e-07
-1.32843e-06
-9.32111e-07
-9.32643e-07
-1.50436e-06
-4.95392e-07
-9.5541e-07
-2.23587e-06
-9.62762e-07
-2.33363e-06
-1.35516e-06
-4.70842e-07
-8.68695e-07
-1.18542e-06
-4.90178e-07
-2.04904e-06
-9.54889e-07
-4.95927e-07
-2.23599e-06
-5.09914e-07
-5.1044e-07
-2.99149e-06
-5.16185e-07
-3.09759e-06
-1.36248e-06
-9.52079e-07
-1.19298e-06
-2.14346e-06
-9.62227e-07
-2.33388e-06
-5.15644e-07
-3.09771e-06
-3.20707e-06
-1.72277e-06
-1.72336e-06
1.47859e-06
-1.51073e-06
-1.79733e-06
-1.13112e-08
-1.21471e-06
-1.81653e-06
-2.46165e-07
-6.41965e-07
-1.86679e-06
-1.19785e-06
-1.87955e-06
-1.32741e-06
-1.79675e-06
-1.51137e-06
-1.14842e-08
-1.58189e-06
-1.58252e-06
-1.58703e-06
-1.27222e-06
-1.6018e-06
-1.85281e-06
-6.75861e-07
-1.65054e-06
-2.86154e-06
-1.66378e-06
-3.0099e-06
-1.81593e-06
-1.21536e-06
-2.4648e-07
-1.60115e-06
-1.27287e-06
-1.85294e-06
-1.28896e-06
-1.28963e-06
-2.12878e-06
-6.8702e-07
-1.3299e-06
-3.15851e-06
-1.34148e-06
-3.3147e-06
-1.86622e-06
-6.42609e-07
-1.19828e-06
-1.64992e-06
-6.76507e-07
-2.86179e-06
-1.32926e-06
-6.87682e-07
-3.15865e-06
-7.11458e-07
-7.12104e-07
-4.2271e-06
-7.21028e-07
-4.39509e-06
-1.87895e-06
-1.32805e-06
-1.66313e-06
-3.01035e-06
-1.34081e-06
-3.31503e-06
-7.20355e-07
-4.39526e-06
-4.56894e-06
-2.50254e-06
-2.50321e-06
2.11081e-06
-2.19353e-06
-2.61213e-06
1.69562e-08
-1.75888e-06
-2.6436e-06
-3.3834e-07
-9.26391e-07
-2.71653e-06
-1.67268e-06
-2.73895e-06
-1.86907e-06
-2.61146e-06
-2.19428e-06
1.67335e-08
-2.2995e-06
-2.30024e-06
-2.21099e-06
-1.84532e-06
-2.33009e-06
-2.62058e-06
-9.78616e-07
-2.40079e-06
-4.04408e-06
-2.42373e-06
-4.2758e-06
-2.64292e-06
-1.75965e-06
-3.38769e-07
-2.32933e-06
-1.84609e-06
-2.62078e-06
-1.87038e-06
-1.87116e-06
-3.04674e-06
-9.94299e-07
-1.93252e-06
-4.50292e-06
-1.95508e-06
-4.74525e-06
-2.71587e-06
-9.2715e-07
-1.67324e-06
-2.40005e-06
-9.79375e-07
-4.04442e-06
-1.93177e-06
-9.95078e-07
-4.50309e-06
-1.03397e-06
-1.03473e-06
-6.02274e-06
-1.05048e-06
-6.29433e-06
-2.73827e-06
-1.86993e-06
-2.42297e-06
-4.27641e-06
-1.9543e-06
-4.74569e-06
-1.04968e-06
-6.29458e-06
-6.57656e-06
-3.41048e-06
-3.41131e-06
3.05107e-06
-3.03515e-06
-3.60024e-06
1.50468e-07
-2.44383e-06
-3.66251e-06
-4.07783e-07
-1.30009e-06
-3.79156e-06
-2.26498e-06
-3.83075e-06
-2.58497e-06
-3.59942e-06
-3.0361e-06
1.50176e-07
-3.224e-06
-3.22492e-06
-2.96182e-06
-2.59476e-06
-3.2886e-06
-3.62382e-06
-1.38846e-06
-3.41698e-06
-5.62502e-06
-3.45572e-06
-6.00903e-06
-3.66166e-06
-2.44479e-06
-4.08377e-07
-3.28764e-06
-2.5957e-06
-3.62409e-06
-2.6492e-06
-2.65018e-06
-4.32366e-06
-1.42365e-06
-2.74756e-06
-6.39796e-06
-2.77556e-06
-6.81267e-06
-3.79075e-06
-1.30102e-06
-2.26574e-06
-3.41608e-06
-1.38938e-06
-5.62548e-06
-2.74663e-06
-1.42461e-06
-6.39818e-06
-1.4792e-06
-1.48012e-06
-8.55768e-06
-1.501e-06
-9.00113e-06
-3.82989e-06
-2.58614e-06
-3.45476e-06
-6.00988e-06
-2.77456e-06
-6.81329e-06
-1.50001e-06
-9.00148e-06
-9.46403e-06
-4.9464e-06
-4.94742e-06
4.44532e-06
-4.41702e-06
-5.23951e-06
3.87463e-07
-3.54816e-06
-5.35043e-06
-4.82322e-07
-1.88233e-06
-5.5491e-06
-3.08523e-06
-5.62535e-06
-3.58018e-06
-5.23849e-06
-4.4182e-06
3.87062e-07
-4.71498e-06
-4.71614e-06
-4.00875e-06
-3.79551e-06
-4.82924e-06
-5.06452e-06
-2.03401e-06
-5.03657e-06
-7.89908e-06
-5.12458e-06
-8.51151e-06
-5.34939e-06
-3.54936e-06
-4.83174e-07
-4.82805e-06
-3.79669e-06
-5.06492e-06
-3.89125e-06
-3.89247e-06
-6.19727e-06
-2.09129e-06
-4.09238e-06
-9.14214e-06
-4.18316e-06
-9.80502e-06
-5.54809e-06
-1.88345e-06
-3.08631e-06
-5.03542e-06
-2.03515e-06
-7.89972e-06
-4.0912e-06
-2.09248e-06
-9.14242e-06
-2.22279e-06
-2.22395e-06
-1.22946e-05
-2.2826e-06
-1.30714e-05
-5.62433e-06
-3.58201e-06
-5.1234e-06
-8.51273e-06
-4.18194e-06
-9.80587e-06
-2.28137e-06
-1.3072e-05
-1.38953e-05
-6.8619e-06
-6.86321e-06
6.709e-06
-6.29528e-06
-7.36467e-06
1.09017e-06
-5.11393e-06
-7.61005e-06
-3.07367e-07
-2.76879e-06
-7.98413e-06
-3.9434e-06
-8.14501e-06
-4.7754e-06
-7.36339e-06
-6.29682e-06
1.08962e-06
-6.84764e-06
-6.84914e-06
-5.04005e-06
-5.57122e-06
-7.14684e-06
-6.80414e-06
-3.04979e-06
-7.59724e-06
-1.08074e-05
-7.7912e-06
-1.18828e-05
-7.6087e-06
-5.11551e-06
-3.08571e-07
-7.14528e-06
-5.57276e-06
-6.80473e-06
-5.89852e-06
-5.9001e-06
-8.69076e-06
-3.27566e-06
-6.35682e-06
-1.30054e-05
-6.59816e-06
-1.42305e-05
-7.98285e-06
-2.77032e-06
-3.94489e-06
-7.59577e-06
-3.05123e-06
-1.08083e-05
-6.35538e-06
-3.27715e-06
-1.30058e-05
-3.5712e-06
-3.57269e-06
-1.78629e-05
-3.73656e-06
-1.94425e-05
-8.14354e-06
-4.77791e-06
-7.78961e-06
-1.18847e-05
-6.59654e-06
-1.42318e-05
-3.73492e-06
-1.94433e-05
-2.12043e-05
-9.92714e-06
-9.92886e-06
1.01804e-05
-9.27962e-06
-1.08058e-05
2.48547e-06
-7.61598e-06
-1.13189e-05
3.18294e-07
-4.19044e-06
-1.19838e-05
-4.79263e-06
-1.23623e-05
-6.18132e-06
-1.08042e-05
-9.28169e-06
2.4847e-06
-1.03067e-05
-1.03087e-05
-6.03465e-06
-8.71629e-06
-1.09516e-05
-8.76184e-06
-4.89691e-06
-1.21074e-05
-1.45031e-05
-1.28341e-05
-1.62758e-05
-1.13172e-05
-7.61807e-06
3.16549e-07
-1.09495e-05
-8.71836e-06
-8.76269e-06
-9.40654e-06
-9.40868e-06
-1.17767e-05
-5.25731e-06
-1.11887e-05
-1.80733e-05
-1.21044e-05
-2.01673e-05
-1.19821e-05
-4.19247e-06
-4.79475e-06
-1.21053e-05
-4.89893e-06
-1.45044e-05
-1.11865e-05
-5.25937e-06
-1.80739e-05
-6.39691e-06
-6.39919e-06
-2.7442e-05
-6.85574e-06
-3.10129e-05
-1.23606e-05
-6.1849e-06
-1.28319e-05
-1.62785e-05
-1.21022e-05
-2.01693e-05
-6.85331e-06
-3.10147e-05
-3.47092e-05
-1.38656e-05
-1.38679e-05
1.56394e-05
-1.35013e-05
-1.53824e-05
5.53613e-06
-1.16661e-05
-1.64066e-05
2.38882e-06
-6.787e-06
-1.82298e-05
-4.52201e-06
-1.98625e-05
-6.53086e-06
-1.53802e-05
-1.35041e-05
5.53511e-06
-1.55124e-05
-1.55152e-05
-5.76961e-06
-1.3635e-05
-1.6992e-05
-1.00539e-05
-7.91083e-06
-1.95299e-05
-1.89271e-05
-2.04348e-05
-2.35873e-05
-1.64043e-05
-1.16692e-05
2.38659e-06
-1.69891e-05
-1.36382e-05
-1.00549e-05
-1.53368e-05
-1.53401e-05
-1.50807e-05
-8.7656e-06
-1.58483e-05
-2.83261e-05
-1.60206e-05
-3.32954e-05
-1.82279e-05
-6.78992e-06
-4.52476e-06
-1.9527e-05
-7.91375e-06
-1.89298e-05
-1.58452e-05
-8.7687e-06
-2.83271e-05
-8.92477e-06
-8.92743e-06
-4.12832e-05
-9.1626e-06
-4.67174e-05
-1.98609e-05
-6.53561e-06
-2.04316e-05
-2.35926e-05
-1.60169e-05
-3.32988e-05
-9.15968e-06
-4.67196e-05
-5.28225e-05
-1.83456e-05
-1.83485e-05
2.11788e-05
-1.83049e-05
-2.13443e-05
9.84164e-06
-1.59419e-05
-2.30977e-05
5.33442e-06
-8.99425e-06
-2.59987e-05
-4.20991e-06
-2.72361e-05
-7.55787e-06
-2.13416e-05
-1.83083e-05
9.84019e-06
-2.15558e-05
-2.15589e-05
-5.34078e-06
-1.86865e-05
-2.40436e-05
-1.19772e-05
-1.01236e-05
-2.50087e-05
-2.84798e-05
-2.58627e-05
-3.50768e-05
-2.30947e-05
-1.59454e-05
5.3314e-06
-2.40401e-05
-1.86896e-05
-1.19787e-05
-1.93479e-05
-1.93512e-05
-2.44652e-05
-1.08997e-05
-2.01745e-05
-4.16086e-05
-2.0845e-05
-4.91784e-05
-2.5996e-05
-8.99735e-06
-4.21395e-06
-2.50057e-05
-1.01266e-05
-2.84831e-05
-2.01715e-05
-1.09027e-05
-4.16098e-05
-1.16525e-05
-1.16552e-05
-5.83213e-05
-1.21455e-05
-6.69983e-05
-2.72326e-05
-7.56531e-06
-2.58592e-05
-3.50831e-05
-2.08418e-05
-4.91825e-05
-1.21426e-05
-6.70007e-05
-7.69007e-05
-2.5505e-05
-2.55088e-05
2.96636e-05
-2.45772e-05
-2.84907e-05
1.45519e-05
-2.04714e-05
-3.21451e-05
8.76401e-06
-1.21717e-05
-3.39514e-05
-4.21033e-06
-3.52607e-05
-1.12236e-05
-2.84871e-05
-2.45816e-05
1.45499e-05
-2.92255e-05
-2.92297e-05
-3.86323e-06
-2.31598e-05
-3.14097e-05
-1.87783e-05
-1.35059e-05
-3.35806e-05
-3.85044e-05
-3.55347e-05
-4.8317e-05
-3.21415e-05
-2.04771e-05
8.76138e-06
-3.14051e-05
-2.31639e-05
-1.87808e-05
-2.52147e-05
-2.52191e-05
-3.68461e-05
-1.50054e-05
-2.71954e-05
-5.82031e-05
-2.90861e-05
-7.06076e-05
-3.39468e-05
-1.21777e-05
-4.21591e-06
-3.35762e-05
-1.35097e-05
-3.85079e-05
-2.71914e-05
-1.5009e-05
-5.82046e-05
-1.64087e-05
-1.64121e-05
-7.98873e-05
-1.77969e-05
-9.46179e-05
-3.5254e-05
-1.12387e-05
-3.55295e-05
-4.83233e-05
-2.90816e-05
-7.06122e-05
-1.77932e-05
-9.46204e-05
-0.00011223
-3.56961e-05
-3.57011e-05
4.16019e-05
-3.42457e-05
-3.95072e-05
2.05338e-05
-2.78436e-05
-4.38161e-05
1.13258e-05
-1.69298e-05
-4.71424e-05
-4.79099e-06
-4.96461e-05
-1.72808e-05
-3.95025e-05
-3.42516e-05
2.05311e-05
-3.99134e-05
-3.99186e-05
-3.04085e-06
-3.24884e-05
-4.41484e-05
-2.58709e-05
-1.93448e-05
-4.81525e-05
-5.06379e-05
-5.16247e-05
-6.57084e-05
-4.38105e-05
-2.7849e-05
1.13208e-05
-4.41427e-05
-3.24933e-05
-2.58739e-05
-3.63964e-05
-3.64019e-05
-5.23389e-05
-2.19561e-05
-3.98967e-05
-8.08991e-05
-4.3304e-05
-0.000100871
-4.71374e-05
-1.69342e-05
-4.79931e-06
-4.81473e-05
-1.93489e-05
-5.06423e-05
-3.98918e-05
-2.19606e-05
-8.09012e-05
-2.4504e-05
-2.45082e-05
-0.000110664
-2.68411e-05
-0.000135499
-4.964e-05
-1.7299e-05
-5.16188e-05
-6.57162e-05
-4.32984e-05
-0.000100877
-2.68363e-05
-0.000135502
-0.000165613
-5.10142e-05
-5.10219e-05
6.26946e-05
-5.11062e-05
-5.59482e-05
3.30767e-05
-4.21722e-05
-6.2627e-05
1.70207e-05
-2.49102e-05
-6.6826e-05
-5.50938e-06
-7.31419e-05
-2.3284e-05
-5.5941e-05
-5.1115e-05
3.30728e-05
-5.80405e-05
-5.80479e-05
1.1584e-06
-4.84214e-05
-6.71278e-05
-3.09892e-05
-2.99926e-05
-7.38061e-05
-6.20865e-05
-8.226e-05
-8.66336e-05
-6.26182e-05
-4.21805e-05
1.70125e-05
-6.71195e-05
-4.84283e-05
-3.09921e-05
-5.74444e-05
-5.74521e-05
-7.16897e-05
-3.65338e-05
-6.39563e-05
-0.00011166
-7.26777e-05
-0.000146983
-6.6817e-05
-2.49148e-05
-5.52452e-06
-7.37983e-05
-2.9998e-05
-6.20913e-05
-6.39493e-05
-3.654e-05
-0.000111662
-4.15184e-05
-4.15243e-05
-0.000155526
-4.81816e-05
-0.000201404
-7.31327e-05
-2.33056e-05
-8.22518e-05
-8.66424e-05
-7.267e-05
-0.00014699
-4.8175e-05
-0.000201408
-0.000261559
-6.82837e-05
-6.82933e-05
9.0916e-05
-6.92176e-05
-7.81212e-05
5.25573e-05
-5.77122e-05
-9.03297e-05
2.81673e-05
-3.5587e-05
-9.91143e-05
-7.26396e-07
-0.000110328
-2.80217e-05
-7.81126e-05
-6.92279e-05
5.25516e-05
-8.2502e-05
-8.2511e-05
9.93759e-06
-7.03821e-05
-9.89701e-05
-3.44686e-05
-4.49857e-05
-0.000111754
-7.4843e-05
-0.000127484
-0.000114547
-9.03189e-05
-5.7721e-05
2.81548e-05
-9.89593e-05
-7.03906e-05
-3.44721e-05
-8.65835e-05
-8.65937e-05
-9.64418e-05
-5.6509e-05
-9.96016e-05
-0.000153887
-0.000117362
-0.000213641
-9.91063e-05
-3.55957e-05
-7.42989e-07
-0.000111745
-4.49928e-05
-7.48499e-05
-9.9593e-05
-5.65176e-05
-0.000153891
-6.75498e-05
-6.75573e-05
-0.000219614
-8.29326e-05
-0.000303268
-0.000110316
-2.80515e-05
-0.000127473
-0.000114558
-0.000117352
-0.000213651
-8.29241e-05
-0.000303272
-0.000427011
-9.60946e-05
-9.61096e-05
0.000138354
-0.000104717
-0.000111672
9.32648e-05
-9.12506e-05
-0.000135195
5.61235e-05
-5.62898e-05
-0.000148378
1.2927e-05
-0.000173681
-2.4308e-05
-0.000111659
-0.000104733
9.32573e-05
-0.000125414
-0.000125427
3.74463e-05
-0.000109985
-0.000158707
-2.63844e-05
-7.37424e-05
-0.000182662
-7.68017e-05
-0.000222429
-0.000139641
-0.000135178
-9.12651e-05
5.61064e-05
-0.000158691
-0.000109998
-2.63876e-05
-0.000146927
-0.000146944
-0.000119969
-0.000104735
-0.000174232
-0.000204509
-0.000222672
-0.000318125
-0.000148363
-5.63006e-05
1.29043e-05
-0.000182648
-7.3753e-05
-7.68098e-05
-0.000174219
-0.000104748
-0.000204516
-0.000130083
-0.000130093
-0.000307889
-0.000175462
-0.000480312
-0.000173663
-2.43464e-05
-0.000222414
-0.000139655
-0.000222656
-0.000318143
-0.00017545
-0.000480315
-0.000777056
-0.000125729
-0.000125749
0.000202475
-0.000137892
-0.000149012
0.000151274
-0.000121998
-0.000191868
0.000104216
-8.01159e-05
-0.000215722
5.05163e-05
-0.000263164
-4.25517e-06
-0.000148995
-0.000137912
0.000151263
-0.00017499
-0.000175007
8.94362e-05
-0.000156945
-0.000232667
-3.63141e-06
-0.000112106
-0.000275667
-6.16953e-05
-0.000353956
-0.000161163
-0.000191845
-0.000122016
0.000104191
-0.000232646
-0.00015696
-3.63292e-06
-0.000223795
-0.000223815
-0.000137672
-0.000168531
-0.000276934
-0.000258505
-0.000377989
-0.000462759
-0.000215704
-8.01284e-05
5.04848e-05
-0.00027565
-0.000112119
-6.17051e-05
-0.000276918
-0.000168547
-0.000258516
-0.000225457
-0.00022547
-0.000410814
-0.000321693
-0.000761945
-0.000263142
-4.30231e-06
-0.000353935
-0.000161175
-0.000377969
-0.000462785
-0.000321677
-0.000761945
-0.0014202
-0.000168484
-0.000168518
0.000301077
-0.000194303
-0.000204637
0.000248784
-0.000179633
-0.000280213
0.000196471
-0.000123963
-0.000329299
0.00013466
-0.000427413
6.23935e-05
-0.000204609
-0.000194338
0.000248768
-0.000254895
-0.00025492
0.000190005
-0.00024625
-0.000368908
7.64188e-05
-0.000181078
-0.000451081
-5.08502e-06
-0.000622862
-0.000146912
-0.000280171
-0.000179666
0.000196438
-0.000368874
-0.000246272
7.6423e-05
-0.000380512
-0.000380547
-0.000114396
-0.000307658
-0.000498361
-0.000284078
-0.000760167
-0.000632976
-0.000329266
-0.000123996
0.000134625
-0.000451054
-0.000181094
-5.0952e-06
-0.000498339
-0.000307683
-0.000284095
-0.000438167
-0.000438178
-0.000531168
-0.00072396
-0.0012356
-0.000427358
6.23091e-05
-0.000622829
-0.00014691
-0.000760134
-0.000633026
-0.000723948
-0.00123558
-0.00286541
-0.000202965
-0.000203001
0.000418598
-0.000239433
-0.000249419
0.000378606
-0.000227466
-0.00037232
0.000336862
-0.000166791
-0.000443139
0.000283513
-0.000637824
0.000207253
-0.000249391
-0.000239469
0.000378587
-0.000324287
-0.00032431
0.000339792
-0.000328168
-0.000527416
0.000235395
-0.000282905
-0.000667498
0.000174012
-0.00102803
-4.01409e-05
-0.000372275
-0.0002275
0.00033682
-0.00052738
-0.000328188
0.000235406
-0.000581088
-0.000581125
-6.97807e-06
-0.000516013
-0.000816038
-0.000200613
-0.00143558
-0.000741882
-0.000443108
-0.000166816
0.000283469
-0.000667475
-0.000282919
0.000174002
-0.000816015
-0.000516042
-0.00020064
-0.000832955
-0.000832968
-0.000497297
-0.0015486
-0.00195556
-0.000637771
0.00020715
-0.00102799
-4.01154e-05
-0.00143555
-0.000741945
-0.00154857
-0.00195553
-0.00146289
-0.0014395
-0.00143938
-0.00162266
-0.000236813
-0.000236879
0.000563656
-0.00029048
-0.000304908
0.000554695
-0.000290703
-0.000481654
0.000545081
-0.000219276
-0.00060645
0.000516011
-0.000926784
0.0004732
-0.000304863
-0.000290541
0.000554672
-0.000416201
-0.000416233
0.000562454
-0.000450188
-0.000716149
0.000503878
-0.000386177
-0.00100153
0.000505079
-0.00169733
0.000344143
-0.000481569
-0.000290761
0.000545033
-0.000716093
-0.000450204
0.000503901
-0.000902071
-0.000902134
0.000364985
-0.00083731
-0.00144104
0.000174134
-0.00298363
-0.000292166
-0.000606394
-0.000219322
0.000515963
-0.0010015
-0.000386175
0.000505078
-0.00144103
-0.000837342
0.000174097
-0.00158942
-0.00158932
-0.000200623
-0.000820959
-0.000478825
-0.000495853
-0.000814958
-0.00112764
-0.000733346
-0.000942338
-0.00111189
-0.000926668
0.000473075
-0.00169728
0.000344254
-0.0029835
-0.000292366
-0.000820989
-0.000478829
-0.000814976
-0.000495617
-0.00112755
-0.000733336
-0.000942377
-0.00111186
-0.000582618
-0.000582515
-0.0019397
-0.000247015
-0.000247078
0.000713781
-0.000308718
-0.000314788
0.00075271
-0.000323554
-0.000558652
0.000823357
-0.000268421
-0.000714798
0.00086619
-0.00127638
0.000951036
-0.000314749
-0.000308781
0.000752688
-0.000441213
-0.000441242
0.000815373
-0.000515832
-0.00088375
0.000903595
-0.000512472
-0.00120311
0.000990028
-0.00254118
0.00109565
-0.000558565
-0.000323617
0.000823309
-0.000883688
-0.000515836
0.000903619
-0.00124659
-0.00124666
0.00109079
-0.0013252
-0.00220865
0.00125829
-0.00126519
0.00162926
-0.00138797
-0.00139867
-0.00173623
-0.000714745
-0.000268464
0.000866131
-0.00120306
-0.000512456
0.000990014
-0.00220861
-0.00132524
0.00125823
-0.000711437
-0.000711439
0.00037048
0.000545711
0.000545721
0.000630054
-0.000866039
-0.000577964
-0.0011998
-0.000866027
-0.00057774
-0.0011994
-0.000557228
-0.00168959
-0.000208635
-0.00127626
0.000950916
-0.00254099
0.00109574
-0.00126515
0.00162901
-0.00138791
-0.00139864
-0.00173617
-0.00168959
-0.000557262
-0.000208562
0.00199627
0.0019964
-0.000874992
-0.000475399
-0.000587521
-0.000586935
0.00208888
-0.000464975
-0.000450767
-0.00041381
-0.000448947
-0.000464878
-0.000450714
-0.000413774
-0.000448838
-0.000218132
-0.000218239
0.000830123
-0.000270406
-0.000277056
0.000926066
-0.0002885
-0.00049346
0.00105557
-0.000222706
-0.000644637
0.00117918
-0.00109389
0.00134952
-0.000277
-0.00027051
0.000926056
-0.000390284
-0.000390314
0.00104191
-0.000444707
-0.000788642
0.0012532
-0.000435876
-0.00105352
0.00139008
-0.00210901
0.00167393
-0.000493306
-0.000288616
0.00105554
-0.000788552
-0.000444655
0.00125321
-0.00109641
-0.00109662
0.00170662
-0.00106901
-0.000546449
0.00219255
-0.000757152
-0.000315373
-0.000396198
-0.00134176
0.00314404
-0.00173495
-0.000702366
-0.000912628
-0.000644544
-0.000222819
0.00117914
-0.00105344
-0.000435799
0.00139006
-0.000546426
-0.00106922
0.00219242
-0.00075713
-0.000315333
-0.000396151
-0.000672071
-0.000671453
0.000621129
-0.000634456
0.00105519
0.000768275
-0.000330964
-0.000525075
-0.000557687
-0.000598761
-0.000518283
-0.00109373
0.00134953
-0.00210858
0.00167393
-0.00134161
0.00314396
-0.00173529
-0.000702213
-0.000912579
-0.000634757
0.00105448
0.00076738
-0.000330957
-0.000524543
-0.000557153
-0.000598366
-0.000517695
0.000799403
0.000799064
4.92201e-05
-0.000941173
-0.000941444
0.00023493
-0.000121617
-0.000121706
0.000861003
-0.000123684
-0.000137225
0.000965173
-0.000104702
-0.000204301
0.00108728
-6.36593e-05
-0.000204466
0.00118205
-0.000344865
0.0013285
-0.000137179
-0.000123764
0.000965167
-0.000163196
-0.000163236
0.00109394
-0.000185996
-0.000209721
0.00128142
-0.000198438
-0.000203825
0.00140188
-0.000477109
0.0016066
-0.000204162
-0.000104819
0.00108729
-0.000209631
-0.000185994
0.00128143
-0.000182971
-0.000183176
0.00165341
-0.000138806
2.27918e-05
0.00192177
-0.00015491
0.00249893
-0.000411129
0.000241016
0.000352721
-0.000204428
-6.37611e-05
0.00118205
-0.000203839
-0.000198409
0.00140188
2.25867e-05
-0.000138945
0.00192177
-8.69106e-05
-8.67633e-05
0.00205257
0.00028641
-5.87442e-05
0.000663825
0.000286727
-5.87407e-05
0.000663862
-0.000720466
-0.000805264
-0.00080524
-0.00128589
-6.27633e-05
0.000313474
0.000630656
-0.00112319
-0.000344712
0.00132853
-0.000476786
0.00160652
-0.000154671
0.00249894
-0.00041127
0.000241125
0.000352628
0.000313821
-6.28649e-05
0.000630161
-0.00112255
-0.000132505
-0.000132687
-3.35743e-05
0.000257647
0.000257462
-0.000216342
-4.84857e-05
-4.85966e-05
0.000825221
-1.80284e-05
-3.54858e-05
0.000932504
1.00364e-05
-2.66641e-05
0.00100491
5.61005e-05
-7.88178e-06
0.00108796
4.73484e-05
0.00114401
-3.54175e-05
-1.81487e-05
0.000932511
-3.00548e-05
-3.01075e-05
0.0010832
-5.13056e-05
6.18642e-05
0.00121414
-8.60092e-05
4.74013e-05
0.0013813
-1.07004e-05
0.00157734
-2.65079e-05
9.91017e-06
0.00100492
6.2029e-05
-5.13235e-05
0.00121411
0.000207387
0.0002072
0.00136272
0.000358652
0.000279522
0.00153838
0.000382214
0.00157036
0.00044278
0.00031851
0.000132562
-7.82415e-06
5.59954e-05
0.00108798
4.74402e-05
-8.59971e-05
0.00138129
0.000279433
0.000358509
0.00153847
9.78649e-05
9.78642e-05
0.000374589
0.000393958
0.000393959
0.000270122
0.000269342
0.000243703
-2.14838e-05
0.000269346
0.000243715
-2.14545e-05
0.000179982
0.000106792
0.000787258
-0.000593954
4.75655e-05
0.00114402
-1.04099e-05
0.00157728
0.000382233
0.00157038
0.000442784
0.000318559
0.000132622
0.000180328
0.000787123
0.000106692
-0.000594045
0.00128856
0.00128853
-0.00507972
0.0052413
-0.00136935
-0.00136932
1.48034e-05
1.46783e-05
0.000761024
5.12027e-05
4.59659e-05
0.000866922
5.48108e-05
5.1318e-05
0.000952494
5.09057e-05
6.49774e-05
0.00105852
4.84245e-07
0.00115295
4.60301e-05
5.10884e-05
0.000866916
6.68707e-05
6.68323e-05
0.00104149
5.21081e-05
8.05353e-05
0.00119969
1.64953e-06
7.51746e-05
0.00142156
-7.63316e-05
0.00165549
5.14764e-05
5.46846e-05
0.000952517
8.06665e-05
5.20797e-05
0.00119967
2.92172e-05
2.8973e-05
0.00146573
1.61916e-05
-1.91613e-05
0.00183406
-0.000212203
0.000102927
-7.9044e-05
-0.000132855
0.00218276
-0.000432111
2.40126e-05
-0.000135146
6.50764e-05
5.07886e-05
0.00105853
7.52426e-05
1.64667e-06
0.00142156
-1.91512e-05
1.59648e-05
0.00183409
-0.000212174
0.000102957
-7.90072e-05
-2.56537e-05
-2.56369e-05
0.000387567
-0.000126271
-0.000511243
-7.17148e-05
4.5554e-05
0.00053082
5.94321e-07
0.00115303
-7.61444e-05
0.00165543
-0.000132911
0.00218278
-0.000432106
2.40265e-05
-0.000135133
-0.000511221
-0.000126306
-7.17517e-05
4.55333e-05
0.000530834
0.000827128
0.000200091
0.000200111
-0.000270464
-0.000270395
-0.00068647
7.93855e-05
7.93137e-05
0.000654357
0.000128105
0.000194329
0.000753155
0.000132612
0.000276802
0.000818566
0.000130358
0.000456012
0.000917044
0.000612835
0.00100769
0.000194392
0.000128022
0.000753168
0.000282223
0.00028218
0.000865812
0.000330946
0.000428327
0.000999441
0.000252603
0.000847249
0.00110866
0.00123659
0.00128308
0.00027692
0.000132522
0.0008186
0.000428412
0.000330929
0.000999433
0.000537051
0.000536932
0.00124849
0.000529018
0.000189511
0.0015477
0.000127145
0.00038285
0.000442134
0.000264861
0.00200359
0.000126797
0.00076148
0.000790186
0.000456105
0.000130273
0.000917068
0.000847341
0.000252592
0.00110866
0.000189534
0.000528885
0.0015477
0.000127174
0.00038289
0.000442179
0.00015887
0.000158913
0.000585356
-0.000524095
5.15178e-06
0.000651507
-8.56398e-05
-0.000447762
-1.00054e-05
-3.45533e-05
0.000115162
7.10016e-05
0.000612984
0.00100776
0.00123677
0.00128304