/*--------------------------------*- C++ -*----------------------------------*\
| =========                 |                                                 |
| \\      /  F ield         | OpenFOAM: The Open Source CFD Toolbox           |
|  \\    /   O peration     | Version:  5.x                                   |
|   \\  /    A nd           | Web:      www.OpenFOAM.org                      |
|    \\/     M anipulation  |                                                 |
\*---------------------------------------------------------------------------*/
FoamFile
{
    version     2.0;
    format      ascii;
    class       volScalarField;
    location    "0.063";
    object      phiIB;
}
// * * * * * * * * * * * * * * * * * * * * * * * * * * * * * * * * * * * * * //

dimensions      [0 2 -1 0 0 0 0];

internalField   nonuniform List<scalar> 
1602
(
-0.000126864
-0.000126814
-0.000126806
-0.000126791
-0.000126798
-0.000126814
-0.000126767
-0.000126762
-0.000126742
-0.000126745
-0.000126806
-0.000126762
-0.000126761
-0.000126741
-0.000126744
-0.000126791
-0.000126742
-0.000126741
-0.000126721
-0.000126723
-0.000126798
-0.000126745
-0.000126744
-0.000126723
-0.000126725
-0.000255207
-0.000255178
-0.000255156
-0.000255141
-0.000255135
-0.000255178
-0.000255156
-0.000255139
-0.000255124
-0.000255119
-0.000255156
-0.000255138
-0.000255125
-0.000255113
-0.000255108
-0.00025514
-0.000255124
-0.000255113
-0.000255102
-0.000255098
-0.000255135
-0.000255119
-0.000255108
-0.000255098
-0.000255094
-0.000595219
-0.000595163
-0.000595143
-0.000595113
-0.000595109
-0.000595163
-0.000595099
-0.000595077
-0.000595045
-0.000595039
-0.000595143
-0.000595077
-0.000595055
-0.000595023
-0.000595017
-0.000595113
-0.000595045
-0.000595023
-0.000594991
-0.000594985
-0.000595108
-0.000595038
-0.000595017
-0.000594985
-0.000594979
-0.000771505
-0.00077144
-0.000771412
-0.000771377
-0.000771367
-0.00077144
-0.000771375
-0.000771345
-0.000771311
-0.000771301
-0.000771411
-0.000771345
-0.000771316
-0.000771281
-0.000771271
-0.000771377
-0.000771311
-0.000771281
-0.000771247
-0.000771238
-0.000771367
-0.0007713
-0.000771271
-0.000771237
-0.000771228
-0.00108802
-0.00108792
-0.00108788
-0.00108783
-0.00108782
-0.00108792
-0.00108781
-0.00108777
-0.00108772
-0.00108771
-0.00108788
-0.00108777
-0.00108773
-0.00108768
-0.00108767
-0.00108783
-0.00108772
-0.00108768
-0.00108763
-0.00108761
-0.00108782
-0.00108771
-0.00108767
-0.00108761
-0.0010876
-0.00128908
-0.00128894
-0.00128889
-0.00128882
-0.0012888
-0.00128894
-0.0012888
-0.00128875
-0.00128868
-0.00128866
-0.00128889
-0.00128875
-0.00128869
-0.00128862
-0.00128861
-0.00128882
-0.00128868
-0.00128862
-0.00128856
-0.00128854
-0.0012888
-0.00128866
-0.00128861
-0.00128854
-0.00128852
-0.0015835
-0.00158331
-0.00158323
-0.00158314
-0.00158312
-0.00158331
-0.00158311
-0.00158303
-0.00158294
-0.00158292
-0.00158323
-0.00158303
-0.00158295
-0.00158286
-0.00158284
-0.00158314
-0.00158294
-0.00158286
-0.00158276
-0.00158274
-0.00158312
-0.00158292
-0.00158284
-0.00158274
-0.00158271
-0.00180271
-0.00180245
-0.00180235
-0.00180223
-0.0018022
-0.00180245
-0.00180218
-0.00180208
-0.00180195
-0.00180192
-0.00180235
-0.00180208
-0.00180197
-0.00180185
-0.00180182
-0.00180223
-0.00180195
-0.00180185
-0.00180172
-0.00180168
-0.0018022
-0.00180192
-0.00180182
-0.00180168
-0.00180165
-0.00208045
-0.00208009
-0.00207995
-0.00207978
-0.00207974
-0.00208009
-0.00207971
-0.00207957
-0.00207939
-0.00207935
-0.00207995
-0.00207957
-0.00207942
-0.00207924
-0.0020792
-0.00207978
-0.00207939
-0.00207924
-0.00207906
-0.00207901
-0.00207974
-0.00207935
-0.0020792
-0.00207901
-0.00207897
-0.00231165
-0.00231115
-0.00231096
-0.00231073
-0.00231068
-0.00231115
-0.00231063
-0.00231043
-0.00231019
-0.00231014
-0.00231096
-0.00231043
-0.00231023
-0.00230998
-0.00230993
-0.00231072
-0.00231019
-0.00230998
-0.00230973
-0.00230968
-0.00231068
-0.00231014
-0.00230993
-0.00230968
-0.00230962
-0.0025768
-0.0025761
-0.00257583
-0.00257551
-0.00257544
-0.0025761
-0.00257537
-0.00257509
-0.00257475
-0.00257468
-0.00257583
-0.00257509
-0.00257481
-0.00257447
-0.00257439
-0.00257551
-0.00257475
-0.00257447
-0.00257412
-0.00257404
-0.00257543
-0.00257468
-0.00257439
-0.00257404
-0.00257396
-0.00281454
-0.00281359
-0.00281325
-0.00281283
-0.00281274
-0.00281359
-0.0028126
-0.00281224
-0.00281179
-0.00281169
-0.00281325
-0.00281224
-0.00281187
-0.0028114
-0.0028113
-0.00281283
-0.00281179
-0.0028114
-0.00281091
-0.0028108
-0.00281274
-0.00281169
-0.0028113
-0.0028108
-0.00281069
-0.00306866
-0.00306736
-0.00306692
-0.00306637
-0.00306626
-0.00306736
-0.00306599
-0.00306553
-0.00306495
-0.00306482
-0.00306692
-0.00306553
-0.00306507
-0.00306447
-0.00306435
-0.00306637
-0.00306495
-0.00306447
-0.00306388
-0.00306375
-0.00306626
-0.00306482
-0.00306435
-0.00306375
-0.00306362
-0.00330721
-0.00330557
-0.00330515
-0.00330453
-0.00330446
-0.00330557
-0.00330383
-0.00330339
-0.00330272
-0.00330264
-0.00330515
-0.00330339
-0.00330298
-0.00330231
-0.00330223
-0.00330453
-0.00330272
-0.00330231
-0.00330152
-0.00330143
-0.00330446
-0.00330264
-0.00330223
-0.00330143
-0.00330134
-0.00354711
-0.00354497
-0.00354472
-0.00354408
-0.00354409
-0.00354497
-0.00354279
-0.00354261
-0.00354204
-0.00354211
-0.00354472
-0.00354261
-0.00354264
-0.00354227
-0.0035425
-0.00354407
-0.00354204
-0.00354227
-0.00354235
-0.00354275
-0.00354409
-0.00354211
-0.0035425
-0.00354275
-0.00354327
-0.00377515
-0.00377293
-0.00377324
-0.00377291
-0.00377322
-0.00377293
-0.00377066
-0.00377125
-0.00377105
-0.00377155
-0.00377324
-0.00377125
-0.00377217
-0.0037726
-0.0037735
-0.00377291
-0.00377105
-0.0037726
-0.00377538
-0.00377801
-0.00377322
-0.00377155
-0.0037735
-0.00377801
-0.00378143
-0.00398449
-0.00398088
-0.00398163
-0.00398134
-0.0039823
-0.00398088
-0.00397795
-0.0039791
-0.00398021
-0.00398188
-0.00398162
-0.0039791
-0.00398059
-0.00398326
-0.00398557
-0.00398133
-0.00398021
-0.00398326
-0.00398527
-0.00398666
-0.0039823
-0.00398188
-0.00398557
-0.00398666
-0.00398772
-0.00417535
-0.00416836
-0.00416748
-0.00416606
-0.00416605
-0.00416835
-0.0041634
-0.00416357
-0.00416279
-0.00416242
-0.00416747
-0.00416357
-0.00416407
-0.00416242
-0.00416188
-0.00416606
-0.00416279
-0.00416242
-0.00416007
-0.00415933
-0.00416605
-0.00416242
-0.00416187
-0.00415933
-0.00415838
-0.00432035
-0.00430844
-0.00430346
-0.0042985
-0.00429807
-0.00430843
-0.0042978
-0.0042952
-0.00429004
-0.00428804
-0.00430346
-0.0042952
-0.00429113
-0.00428482
-0.00428213
-0.0042985
-0.00429003
-0.00428481
-0.00427832
-0.00427505
-0.00429806
-0.00428804
-0.00428212
-0.00427505
-0.00427126
-0.00443677
-0.0044224
-0.00441451
-0.0044068
-0.00440525
-0.0044224
-0.00440598
-0.004398
-0.00438959
-0.00438563
-0.00441451
-0.004398
-0.00438753
-0.00437737
-0.00437153
-0.00440679
-0.00438959
-0.00437736
-0.00436594
-0.00435843
-0.00440523
-0.00438562
-0.00437152
-0.00435842
-0.00434865
-0.0045008
-0.00448221
-0.00447299
-0.00446273
-0.00445864
-0.00448221
-0.00445961
-0.00444541
-0.00443195
-0.00442525
-0.00447298
-0.0044454
-0.00442761
-0.00441143
-0.00440171
-0.00446271
-0.00443194
-0.00441142
-0.00439378
-0.00438133
-0.00445861
-0.00442522
-0.00440169
-0.00438132
-0.00436493
-0.00455971
-0.00453599
-0.00452433
-0.00451263
-0.00450823
-0.00453598
-0.0045096
-0.00449097
-0.00447732
-0.00446734
-0.00452432
-0.00449096
-0.00446689
-0.00444853
-0.00443166
-0.00451261
-0.00447731
-0.00444853
-0.00443017
-0.00440877
-0.0045082
-0.00446731
-0.00443164
-0.00440875
-0.00438383
-0.00456482
-0.00453652
-0.00453101
-0.00452493
-0.00452287
-0.0045365
-0.00450495
-0.00448949
-0.00447481
-0.00446602
-0.00453099
-0.00448948
-0.00446609
-0.0044481
-0.00443632
-0.0045249
-0.00447479
-0.0044481
-0.00443177
-0.00442179
-0.00452281
-0.00446599
-0.0044363
-0.00442177
-0.00442137
-0.00459912
-0.00456657
-0.00455625
-0.00454818
-0.00454321
-0.00456655
-0.00453237
-0.00451099
-0.00449856
-0.00447635
-0.00455623
-0.00451099
-0.00447023
-0.00444501
-0.00440188
-0.00454816
-0.00449856
-0.00444501
-0.00441731
-0.00434642
-0.00454317
-0.00447633
-0.00440186
-0.00434639
-0.00420896
-0.00457725
-0.00454376
-0.00454628
-0.00454632
-0.00455017
-0.00454373
-0.00450202
-0.00449548
-0.00450018
-0.00449913
-0.00454624
-0.00449548
-0.00448626
-0.00448892
-0.00449086
-0.0045463
-0.00450018
-0.00448893
-0.00450184
-0.00452405
-0.00455013
-0.00449911
-0.00449085
-0.004524
-0.00477671
-0.00457821
-0.00453244
-0.00451233
-0.00450317
-0.0044897
-0.00453242
-0.00447876
-0.00443375
-0.00441977
-0.00437545
-0.00451229
-0.00443374
-0.00437151
-0.00432961
-0.00417555
-0.00450314
-0.00441976
-0.00432962
-0.00428792
-0.00399609
-0.00448964
-0.00437542
-0.00417555
-0.00399602
-0.00293008
-0.00452675
-0.00447719
-0.00448361
-0.00448091
-0.00449199
-0.00447715
-0.00442164
-0.00440793
-0.00441238
-0.00440362
-0.00448354
-0.00440791
-0.00438991
-0.00441898
-0.00438162
-0.00448085
-0.00441235
-0.00441902
-0.00447282
-0.00429054
-0.00449189
-0.00440354
-0.00438175
-0.00429034
-0.00362006
-0.00448983
-0.00444549
-0.00442499
-0.00442133
-0.00443124
-0.00444544
-0.00437968
-0.00432206
-0.00428489
-0.00424221
-0.00442492
-0.00432203
-0.00424284
-0.00417779
-0.00421883
-0.00442125
-0.00428484
-0.00417776
-0.00393668
-0.00406544
-0.00443114
-0.0042421
-0.00421884
-0.00406547
-0.00383319
-0.00439415
-0.0043455
-0.00437778
-0.00437221
-0.00445475
-0.00434545
-0.00430317
-0.00430732
-0.00430283
-0.00434824
-0.0043777
-0.00430729
-0.00437409
-0.00435369
-0.00455026
-0.00437215
-0.00430276
-0.00435373
-0.00402192
-0.00395372
-0.00445465
-0.00434808
-0.00455064
-0.00395297
-0.00327657
-0.00434307
-0.00432999
-0.00432882
-0.00432993
-0.00442005
-0.00432992
-0.00429234
-0.00425459
-0.004233
-0.0041483
-0.00432876
-0.00425461
-0.00428353
-0.00414307
-0.00427838
-0.00432983
-0.00423295
-0.00414298
-0.00395784
-0.00371659
-0.00441991
-0.0041482
-0.00427827
-0.00371669
-0.00389629
-0.00416472
-0.00412742
-0.00416167
-0.00413588
-0.00422484
-0.00412734
-0.00410222
-0.00408282
-0.00403909
-0.00401951
-0.00416157
-0.0040828
-0.00414337
-0.00402093
-0.0039993
-0.00413577
-0.004039
-0.00402086
-0.0038644
-0.00331805
-0.00422468
-0.00401938
-0.00399913
-0.00331828
-0.0035442
-0.00414211
-0.00414391
-0.0041366
-0.00412152
-0.00414891
-0.00414384
-0.00416491
-0.00412892
-0.00413425
-0.00411214
-0.00413651
-0.00412892
-0.00412454
-0.00402577
-0.00408377
-0.00412139
-0.00413419
-0.00402572
-0.00406852
-0.00357181
-0.00414884
-0.00411199
-0.0040836
-0.00357184
-0.00396337
-0.00388413
-0.00388405
-0.00392297
-0.00391524
-0.00397932
-0.00388401
-0.00391149
-0.0039366
-0.00393817
-0.00397912
-0.0039229
-0.00393658
-0.00404148
-0.00404775
-0.00418667
-0.00391513
-0.0039381
-0.0040477
-0.00400723
-0.00424627
-0.00397921
-0.00397901
-0.00418655
-0.00424621
-0.00483215
-0.00396859
-0.00398182
-0.00400512
-0.00399279
-0.00406372
-0.00398179
-0.00401182
-0.00402188
-0.00396918
-0.00402094
-0.00400507
-0.00402187
-0.00415665
-0.00407991
-0.00420006
-0.00399272
-0.00396913
-0.00407987
-0.00364341
-0.00431124
-0.00406363
-0.00402086
-0.00420003
-0.00431119
-0.00324812
-0.00351353
-0.00351576
-0.003536
-0.00353005
-0.00353912
-0.00351574
-0.00354067
-0.00355187
-0.00355221
-0.00351375
-0.00353597
-0.00355185
-0.00359221
-0.00359209
-0.00353098
-0.00353
-0.00355217
-0.00359207
-0.00367834
-0.00345584
-0.00353906
-0.0035137
-0.00353095
-0.00345581
-0.00350118
-0.00355402
-0.00356373
-0.00357316
-0.00357714
-0.00359103
-0.00356372
-0.00358755
-0.00359266
-0.00360073
-0.00360559
-0.00357315
-0.00359266
-0.00361138
-0.0036163
-0.00367871
-0.00357711
-0.00360072
-0.0036163
-0.00367958
-0.0038399
-0.00359099
-0.00360557
-0.00367871
-0.0038399
-0.00390919
-0.00273506
-0.00273137
-0.00272898
-0.00271878
-0.00270448
-0.00273137
-0.002732
-0.00271678
-0.00270603
-0.00268219
-0.00272897
-0.00271678
-0.00269222
-0.00268492
-0.00264963
-0.00271877
-0.00270602
-0.00268492
-0.00269914
-0.00266038
-0.00270448
-0.00268219
-0.00264963
-0.00266038
-0.0025754
-0.0023259
-0.0023298
-0.00233163
-0.00233607
-0.00234017
-0.0023298
-0.0023446
-0.00234919
-0.00236408
-0.00237245
-0.00233162
-0.00234919
-0.00236885
-0.00241238
-0.00244798
-0.00233606
-0.00236408
-0.00241238
-0.00248978
-0.00253732
-0.00234015
-0.00237244
-0.00244797
-0.00253732
-0.00258836
-0.00103242
-0.00102725
-0.00102569
-0.00102882
-0.00103298
-0.00102725
-0.001023
-0.00102509
-0.00103596
-0.00104637
-0.00102569
-0.00102509
-0.00104827
-0.00107048
-0.00106283
-0.00102882
-0.00103597
-0.00107048
-0.00107669
-0.00106475
-0.00103298
-0.00104637
-0.00106283
-0.00106475
-0.00103917
-0.000551431
-0.000558088
-0.000561152
-0.000568913
-0.000573523
-0.000558082
-0.000570398
-0.000576333
-0.000593565
-0.000604097
-0.000561148
-0.000576335
-0.000591287
-0.000623226
-0.000660405
-0.000568906
-0.000593564
-0.000623223
-0.000696645
-0.000754556
-0.000573517
-0.000604097
-0.000660402
-0.000754559
-0.000822495
-0.00270799
-0.00270796
-0.00241292
-0.00293727
-0.00264046
-0.00264035
-0.000419067
-0.00277851
-0.0027784
-0.000195452
-0.00423738
-0.00558446
-0.00558426
-0.00481873
-0.00703341
-0.00703332
-0.00553047
-0.00326779
-0.00416896
-0.00416891
-0.00660669
-0.00477966
-0.00477962
-0.00445858
-0.00307473
-0.00362043
-0.00362039
-0.00337543
-0.00439569
-0.00439539
-0.00381632
-0.00319458
-0.00289152
-0.0028914
-0.00375581
-0.00318299
-0.00318286
-0.00241031
-0.00333564
-0.00340693
-0.00351896
-0.00351884
-0.00386726
-0.00434592
-0.00413583
-0.00368529
-0.00358574
-0.00366198
-0.00379892
-0.00434583
-0.00386687
-0.00413551
-0.00368535
-0.00366185
-0.0035855
-0.00379874
-0.0025524
-0.00364029
-0.00347536
-0.00372435
-0.00353181
-0.00347939
-0.00346751
-0.00255241
-0.00364014
-0.00347536
-0.00372429
-0.00353166
-0.00347926
-0.00346739
-0.00522814
-0.0061403
-0.00535202
-0.00535197
-0.00418625
-0.00571711
-0.00571705
-0.00425232
-0.00444434
-0.00485969
-0.00370315
-0.00395392
-0.00428564
-0.0048288
-0.00444432
-0.00425221
-0.00485963
-0.0037031
-0.00428565
-0.0039538
-0.00482885
-0.00559919
-0.00546519
-0.00344632
-0.00651034
-0.00503783
-0.00533916
-0.00599785
-0.00559918
-0.00546508
-0.0034463
-0.0065103
-0.00503776
-0.00533916
-0.0059978
-0.000889993
-0.000889321
-0.000128198
-0.00392548
-0.00508263
-0.00508204
-0.00398721
-0.00348491
-0.00396611
-0.00396588
-0.00391363
-0.00405996
-0.00364485
-0.00364465
-0.00400503
-0.00434204
-0.00419261
-0.00394791
-0.0041851
-0.00380177
-0.00406944
-0.00400495
-0.00434197
-0.00419218
-0.00394768
-0.00418491
-0.00380183
-0.0040692
-0.00561251
-0.00413572
-0.0042385
-0.00423849
-0.0047156
-0.00471556
-0.00556383
-0.00515506
-0.00421617
-0.00421605
-0.00321072
-0.00495668
-0.00417167
-0.00417164
-0.00593214
-0.00568591
-0.00568587
-0.00593329
-0.00586163
-0.00594914
-0.0059491
-0.0058337
-0.00684412
-0.00600523
-0.00613943
-0.00611581
-0.00579707
-0.00608073
-0.00583366
-0.00684404
-0.00600514
-0.00613933
-0.00611574
-0.00579702
-0.00608063
-0.00421788
-0.00421766
-0.00443764
-0.00449562
-0.00367546
-0.00408743
-0.00408723
-0.00435935
-0.00382827
-0.0043917
-0.00404519
-0.00399269
-0.0040168
-0.00431706
-0.00382659
-0.00435873
-0.00439091
-0.00404492
-0.00401678
-0.00399248
-0.00431667
-0.00420509
-0.00447404
-0.00441079
-0.00373842
-0.00405511
-0.0040097
-0.00392141
-0.00420467
-0.00447379
-0.00441061
-0.00373821
-0.00405493
-0.00400954
-0.00392121
-0.00628963
-0.00532138
-0.00532134
-0.00452239
-0.0068281
-0.00497284
-0.00497276
-0.00500778
-0.00454255
-0.00450583
-0.00515347
-0.00606454
-0.00549023
-0.0048987
-0.00500796
-0.00454201
-0.00450551
-0.00515321
-0.00606378
-0.00548915
-0.00489821
-0.0044172
-0.00441717
-0.00540873
-0.00604944
-0.00410709
-0.00457401
-0.00457383
-0.00403922
-0.00403922
-0.00418147
-0.00379233
-0.00408608
-0.00408606
-0.00406456
-0.00408313
-0.00362925
-0.00505687
-0.00505684
-0.00531412
-0.0039218
-0.00392177
-0.00295781
-0.00337601
-0.0025581
-0.00411561
-0.00426726
-0.0043276
-0.00469909
-0.00337596
-0.00295768
-0.00255791
-0.00411551
-0.0043276
-0.00426709
-0.00469901
-0.00469955
-0.00252734
-0.00510354
-0.00554368
-0.00315705
-0.00586847
-0.00493705
-0.0046996
-0.00252716
-0.00510346
-0.00554363
-0.00315693
-0.00586857
-0.00493708
-0.00480605
-0.00472107
-0.00559159
-0.00462708
-0.00500802
-0.00394909
-0.0040985
-0.00472098
-0.00480594
-0.00559151
-0.00462696
-0.0050079
-0.003949
-0.00409842
-0.00312933
-0.00313075
-0.00156317
-0.00277608
0.000777053
0.000780713
0.00382119
-0.00382872
-0.00091232
-0.000911679
-0.0025234
-0.00156586
-0.00314259
-0.00314233
-0.00527048
-0.0018366
-0.00304399
-0.00386607
-0.00274298
-0.00350901
-0.00436357
-0.00526972
-0.00183592
-0.00304223
-0.00386485
-0.00273645
-0.00350991
-0.00436301
-0.00420819
-0.00411451
-0.00406636
-0.00428308
-0.00424944
-0.00412453
-0.00437455
-0.00420787
-0.0041144
-0.00406646
-0.00428242
-0.00424847
-0.00412428
-0.0043744
-0.00330005
-0.00396461
-0.0051058
-0.00510568
-0.00451301
-0.00451289
-0.00639266
-0.00505324
-0.00353396
-0.00353512
-0.00348489
-0.00177159
-0.00430127
-0.0043012
-0.00431531
-0.00457677
-0.0044014
-0.00450684
-0.00479482
-0.00426656
-0.00407745
-0.00431532
-0.00457665
-0.00440137
-0.00450674
-0.00479473
-0.00426649
-0.00407745
-0.00193617
-0.00116276
-0.00116263
-0.00185154
-0.00223168
-0.00189877
-0.00189867
-0.00421724
-0.00421702
-0.00418684
-0.00412263
-0.00418299
-0.00418289
-0.00431778
-0.00431675
-0.00399225
-0.00414504
-0.00413734
-0.00425388
-0.00424558
-0.00401538
-0.00431653
-0.00399249
-0.00414499
-0.0041369
-0.00425342
-0.00424547
-0.00401564
-0.00180455
-0.00299445
0.000249321
-0.00161409
-0.000458164
-0.00273873
-0.00187914
-0.00180422
-0.00299436
0.00024961
-0.001614
-0.000457888
-0.00273858
-0.00187884
-0.00462743
-0.00426727
-0.00478223
-0.00432584
-0.00414145
-0.00387333
-0.00372051
-0.00462732
-0.00478223
-0.00426714
-0.00432578
-0.00414136
-0.00387325
-0.00372039
0.00324223
0.003244
0.00157056
0.00300864
0.00673838
0.00340865
0.00341135
-0.00415641
-0.00394608
-0.00368686
-0.0039492
-0.00335403
-0.00377107
-0.0011183
-0.00394538
-0.00415635
-0.00368627
-0.00394891
-0.00376959
-0.00335383
-0.00111402
-0.00395398
-0.00458296
-0.00460437
-0.00400365
-0.00494097
-0.00472387
-0.00420558
-0.00395266
-0.00458223
-0.00460447
-0.00400454
-0.00494152
-0.00472397
-0.00420547
-0.00032023
0.00115187
4.59184e-05
0.00343873
0.00166426
0.000917092
0.00475966
-0.000314176
0.00115265
5.37922e-05
0.00344087
0.00166697
0.000910338
0.00476539
-0.00170138
-0.00303906
-0.00303905
-0.00344247
-0.00132606
-0.00325869
-0.00325867
-0.00202036
-0.00202175
-0.000625383
0.000419157
-0.00282099
-0.00144819
-0.00144935
-0.00372994
-0.00372996
-0.00345661
-0.0039578
-0.00410253
-0.00410252
-0.00402535
-0.00411045
-0.00402732
-0.00449619
-0.00396398
-0.00421311
-0.00410141
-0.00407403
-0.00411039
-0.00402731
-0.00449611
-0.00396391
-0.00421302
-0.00410136
-0.004074
-0.00341187
-0.00228509
-0.00084868
-0.000848609
-0.00146363
-0.00290873
-0.00290871
-0.00364425
-0.00408485
-0.0041529
-0.00424836
-0.00403038
-0.00437599
-0.00395107
-0.00364367
-0.00408435
-0.00415242
-0.00424842
-0.00403075
-0.00437597
-0.00395165
-0.00295331
-0.00399731
-0.00412191
-0.00437516
-0.00431634
-0.0034056
-0.00285495
-0.00399716
-0.00295314
-0.00412169
-0.00437496
-0.00340554
-0.00431615
-0.00285486
-0.00297867
-0.0031077
-0.00299804
-0.00066833
-0.00359236
-0.00115345
-0.00264485
-0.0029786
-0.00310758
-0.00299802
-0.000668218
-0.00359225
-0.00115338
-0.00264477
-0.00338252
-0.00230809
-0.00268891
-0.00324772
-0.00266309
-0.0037501
-0.0035443
-0.00230791
-0.0033824
-0.00268871
-0.00324758
-0.00266287
-0.00374999
-0.00354421
-0.00454203
-0.00454193
-0.00525664
-0.0026476
-0.0011826
-0.00118434
0.000918814
0.00346218
-0.00204593
-0.00204539
0.00460325
-0.00174192
0.00430184
0.00430328
0.00209701
-0.00149914
-0.00462447
-0.0021594
-0.00275213
-0.00124276
0.00236335
0.00209389
-0.00150171
-0.00462472
-0.0021573
-0.00275351
-0.00124892
0.00237052
-0.000801288
-0.00649926
-0.00517319
-0.00106757
-0.000597968
-0.00410752
-0.00568498
-0.000801991
-0.00650051
-0.00517394
-0.00106449
-0.000604943
-0.00410808
-0.00568514
)
;

boundaryField
{
    inlet
    {
        type            fixedValue;
        value           uniform 0;
    }
    wall
    {
        type            zeroGradient;
    }
    outlet
    {
        type            fixedValue;
        value           uniform 0;
    }
    procBoundary0to1
    {
        type            processor;
        value           nonuniform List<scalar> 
329
(
-0.000126799
-0.000126744
-0.000126742
-0.000126721
-0.000126723
-0.000255132
-0.000255116
-0.000255105
-0.000255096
-0.000255092
-0.000595105
-0.000595035
-0.000595013
-0.000594981
-0.000594976
-0.000771362
-0.000771296
-0.000771267
-0.000771234
-0.000771226
-0.00108781
-0.0010877
-0.00108766
-0.00108761
-0.0010876
-0.0012888
-0.00128866
-0.0012886
-0.00128854
-0.00128852
-0.00158311
-0.00158291
-0.00158283
-0.00158273
-0.00158271
-0.0018022
-0.00180192
-0.00180181
-0.00180168
-0.00180165
-0.00207973
-0.00207934
-0.00207919
-0.00207901
-0.00207896
-0.00231067
-0.00231013
-0.00230992
-0.00230967
-0.00230961
-0.00257543
-0.00257467
-0.00257438
-0.00257403
-0.00257395
-0.00281273
-0.00281168
-0.00281129
-0.00281078
-0.00281067
-0.00306624
-0.0030648
-0.00306433
-0.00306373
-0.00306359
-0.00330442
-0.00330259
-0.00330219
-0.00330138
-0.0033013
-0.00354401
-0.00354202
-0.00354242
-0.00354268
-0.00354323
-0.00377307
-0.0037714
-0.00377338
-0.00377793
-0.00378138
-0.00398207
-0.00398166
-0.00398535
-0.00398641
-0.00398747
-0.00416571
-0.00416203
-0.00416143
-0.0041588
-0.0041578
-0.00429763
-0.00428751
-0.00428151
-0.00427429
-0.0042704
-0.00440472
-0.00438496
-0.00437071
-0.0043574
-0.00434747
-0.00445802
-0.00442441
-0.00440068
-0.00438
-0.00436337
-0.00450753
-0.00446636
-0.00443042
-0.00440717
-0.00438195
-0.00452212
-0.00446482
-0.00443475
-0.00441954
-0.00441866
-0.00454244
-0.00447509
-0.00440018
-0.00434393
-0.00420588
-0.00454929
-0.00449737
-0.00448845
-0.00451973
-0.00477004
-0.00448903
-0.00437396
-0.00417412
-0.0039938
-0.00292922
-0.00449118
-0.00440088
-0.00437979
-0.00428909
-0.00453047
-0.00443119
-0.00423972
-0.00421756
-0.00414898
-0.00314496
-0.00445489
-0.00434668
-0.00455052
-0.00435874
-0.000879947
-0.00442238
-0.00414858
-0.00428219
-0.00387045
-0.00439489
-0.00422736
-0.00402125
-0.00400098
-0.00295755
-0.00275319
-0.00415116
-0.00411472
-0.00408593
-0.00296547
-0.00273774
-0.00398327
-0.0039807
-0.00418783
-0.00425496
-0.00702241
-0.00406766
-0.00402512
-0.00420961
-0.00438245
-0.00466369
-0.00354346
-0.00351345
-0.00353311
-0.00345279
-0.00347748
-0.00359216
-0.00360777
-0.00368055
-0.00384833
-0.0039136
-0.00270795
-0.00268331
-0.00265372
-0.00266096
-0.00257902
-0.00234317
-0.00237604
-0.00244888
-0.00253862
-0.00258661
-0.00103517
-0.00104839
-0.00106504
-0.00106517
-0.00104099
-0.000575491
-0.000605094
-0.000660791
-0.000754702
-0.000821908
-0.00239513
-0.00035779
-0.0026246
-0.000240264
-0.00481948
-0.00558284
-0.00552951
-0.00661163
-0.00415692
-0.00445991
-0.00336984
-0.00369455
-0.00382803
-0.00374782
-0.002887
-0.0031768
-0.00352243
-0.00341626
-0.00413837
-0.00380318
-0.00359775
-0.00353315
-0.0034751
-0.00363824
-0.00535747
-0.00571063
-0.00613571
-0.00485674
-0.00483886
-0.00395351
-0.0054522
-0.00598321
-0.00651284
-0.000121496
-0.00399887
-0.00508479
-0.00392355
-0.00365088
-0.00397148
-0.00419637
-0.00407335
-0.00395023
-0.00593107
-0.00594086
-0.00568154
-0.00599753
-0.00606744
-0.00612894
-0.00422422
-0.00409085
-0.00368382
-0.00438515
-0.00431818
-0.00399246
-0.00447607
-0.00392365
-0.00405704
-0.00606484
-0.00490064
-0.0045482
-0.00505698
-0.00392555
-0.00363084
-0.00255148
-0.00469773
-0.00427188
-0.00252527
-0.00494151
-0.0055445
-0.00559272
-0.00410109
-0.00480563
-0.00154912
0.00383854
0.00084003
-0.00252595
-0.00314008
-0.000894581
-0.00302594
-0.00436179
-0.00386655
-0.00411656
-0.00437533
-0.00428393
-0.00185429
-0.00191026
-0.00118366
0.000251317
-0.00189823
-0.00163015
-0.00426717
-0.00372088
-0.00462544
0.00328975
0.00352191
0.00676368
-0.0036934
-0.00115025
-0.00336181
-0.00458634
-0.00420464
-0.00493433
0.00169414
0.00486191
0.00119965
-0.000813172
-0.00293023
-0.002353
-0.00414116
-0.00282635
-0.00431826
-0.00312655
-0.00265532
-0.000649857
-0.00269201
-0.00354072
-0.00337521
-0.0052362
0.000876043
-0.0012043
0.00462538
0.00430744
-0.0020335
-0.00460783
0.00230741
-0.00215622
-0.00648279
-0.00568185
-0.00105611
)
;
    }
    procBoundary0to2
    {
        type            processor;
        value           nonuniform List<scalar> 
329
(
-0.000126798
-0.000126744
-0.000126742
-0.000126721
-0.000126723
-0.000255132
-0.000255116
-0.000255105
-0.000255096
-0.000255092
-0.000595105
-0.000595034
-0.000595013
-0.000594981
-0.000594976
-0.000771362
-0.000771296
-0.000771267
-0.000771234
-0.000771226
-0.00108781
-0.0010877
-0.00108766
-0.00108761
-0.0010876
-0.0012888
-0.00128866
-0.0012886
-0.00128853
-0.00128852
-0.00158311
-0.00158291
-0.00158283
-0.00158273
-0.00158271
-0.00180219
-0.00180192
-0.00180181
-0.00180168
-0.00180165
-0.00207973
-0.00207934
-0.00207919
-0.00207901
-0.00207896
-0.00231067
-0.00231013
-0.00230992
-0.00230967
-0.00230961
-0.00257543
-0.00257467
-0.00257438
-0.00257403
-0.00257395
-0.00281273
-0.00281168
-0.00281129
-0.00281078
-0.00281067
-0.00306624
-0.0030648
-0.00306433
-0.00306373
-0.00306359
-0.00330442
-0.00330259
-0.00330219
-0.00330138
-0.0033013
-0.00354401
-0.00354202
-0.00354242
-0.00354268
-0.00354323
-0.00377307
-0.0037714
-0.00377338
-0.00377793
-0.00378139
-0.00398207
-0.00398165
-0.00398534
-0.00398641
-0.00398746
-0.0041657
-0.00416202
-0.00416143
-0.00415879
-0.0041578
-0.00429761
-0.0042875
-0.00428149
-0.00427427
-0.00427039
-0.00440469
-0.00438493
-0.00437069
-0.00435738
-0.00434746
-0.00445797
-0.00442437
-0.00440064
-0.00437996
-0.00436336
-0.00450747
-0.00446631
-0.00443038
-0.00440713
-0.00438193
-0.00452204
-0.00446476
-0.00443471
-0.00441949
-0.00441863
-0.00454237
-0.00447503
-0.00440012
-0.00434387
-0.00420583
-0.00454922
-0.0044973
-0.00448839
-0.00451964
-0.00476994
-0.00448892
-0.00437387
-0.00417405
-0.00399369
-0.00292924
-0.00449105
-0.00440073
-0.00437974
-0.00428898
-0.00453021
-0.00443101
-0.00423952
-0.00421738
-0.00414894
-0.00314647
-0.00445472
-0.00434644
-0.00455035
-0.00435825
-0.000879764
-0.00442218
-0.00414838
-0.00428196
-0.00387026
-0.00439456
-0.0042272
-0.00402105
-0.00400078
-0.00295753
-0.00275306
-0.00415103
-0.00411453
-0.00408574
-0.00296536
-0.00273762
-0.00398314
-0.00398055
-0.00418767
-0.00425481
-0.0070223
-0.00406755
-0.00402503
-0.00420952
-0.00438235
-0.0046636
-0.00354338
-0.00351337
-0.00353303
-0.00345273
-0.00347746
-0.00359212
-0.00360773
-0.00368052
-0.00384831
-0.00391359
-0.00270794
-0.00268331
-0.00265371
-0.00266095
-0.00257902
-0.00234316
-0.00237603
-0.00244887
-0.00253861
-0.0025866
-0.00103517
-0.00104838
-0.00106504
-0.00106517
-0.001041
-0.000575487
-0.000605093
-0.000660785
-0.000754695
-0.000821898
-0.00262452
-0.000357764
-0.00239505
-0.00558261
-0.00481945
-0.000240217
-0.00415686
-0.00661163
-0.00552948
-0.00369449
-0.00336981
-0.00445988
-0.00288682
-0.00374782
-0.00382789
-0.00341622
-0.00352224
-0.00317664
-0.0035976
-0.00380299
-0.00413799
-0.00363799
-0.00347483
-0.0035329
-0.00613571
-0.00571061
-0.00535743
-0.00395338
-0.00483881
-0.00485662
-0.00651279
-0.00598317
-0.00545209
-0.00508435
-0.00399872
-0.000121491
-0.00397117
-0.00365062
-0.00392346
-0.00394994
-0.00407299
-0.00419593
-0.00568149
-0.00594082
-0.00593105
-0.00612882
-0.00606735
-0.00599743
-0.00368369
-0.00409057
-0.00422389
-0.00399213
-0.00431783
-0.00438425
-0.00405677
-0.00392343
-0.0044758
-0.00454764
-0.00490014
-0.00606396
-0.00363081
-0.00392549
-0.00505692
-0.0042717
-0.00469758
-0.00255128
-0.00554441
-0.00494149
-0.00252509
-0.00480551
-0.00410096
-0.00559259
0.000839409
0.00383844
-0.00154964
-0.000894553
-0.00313995
-0.00252588
-0.00386569
-0.00436169
-0.00302645
-0.00428312
-0.00437494
-0.00411638
-0.0011836
-0.00191015
-0.00185424
-0.00163008
-0.00189805
0.000251518
-0.00462523
-0.00372073
-0.00426702
0.00676275
0.00352181
0.00328973
-0.00336153
-0.00115002
-0.00369339
-0.00493447
-0.00420462
-0.00458594
0.00119806
0.00486041
0.00169143
-0.00235296
-0.00293017
-0.000813104
-0.00431806
-0.00282621
-0.00414099
-0.000649791
-0.00265518
-0.00312641
-0.00337505
-0.00354058
-0.00269182
-0.00120476
0.000876289
-0.00523594
-0.00203404
0.00430733
0.00462531
-0.00215847
0.00230844
-0.00460877
-0.00105798
-0.00568285
-0.00648393
)
;
    }
}


// ************************************************************************* //
