/*--------------------------------*- C++ -*----------------------------------*\
| =========                 |                                                 |
| \\      /  F ield         | OpenFOAM: The Open Source CFD Toolbox           |
|  \\    /   O peration     | Version:  5.x                                   |
|   \\  /    A nd           | Web:      www.OpenFOAM.org                      |
|    \\/     M anipulation  |                                                 |
\*---------------------------------------------------------------------------*/
FoamFile
{
    version     2.0;
    format      ascii;
    class       volScalarField;
    location    "0.02";
    object      Ksl;
}
// * * * * * * * * * * * * * * * * * * * * * * * * * * * * * * * * * * * * * //

dimensions      [1 -3 -1 0 0 0 0];

internalField   nonuniform List<scalar> 
320
(
0
0
0
0
0
0
0
0
0
0
0
0
0
0
0
0
0
0
0
0
0.000137408
0.00118964
0.000840335
6.71755e-05
0.00118518
0.0171887
0.00893173
0.000606389
0.0461971
1.01669
0.681167
0.0227976
0.372229
2.23509
1.13255
0.185069
2.1061
3.04294
1.47116
1.00909
0.372236
2.23547
1.13258
0.185047
0.0463151
1.01719
0.681594
0.0228293
0.00119267
0.0171934
0.00893198
0.000606146
0.000139018
0.00119019
0.000840319
0
0
0
0
0
0
0
0
0
0
0
0
0
0
0
0
0
0
0
0
0
0
0
0
0
0
0
0
0
0
0
0
0
0
0
0
0
0
0
0
0
0
0.000609236
0.000305272
0
0.00118964
0.00525925
0.00320654
0.000746574
0.0171887
0.429242
0.15305
0.00878374
1.01669
25.7458
4.97444
0.670514
2.23509
3.0526
1.47847
1.10245
3.04294
3.11669
1.47413
1.44289
2.23547
3.05258
1.47847
1.10242
1.01719
25.7645
4.97907
0.670908
0.0171934
0.429255
0.153042
0.00878265
0.00119019
0.00525894
0.00320628
0.000746402
0
0.000609669
0.000305321
0
0
0
0
0
0
0
0
0
0
0
0
0
0
0
0
0
0
0
0
0
0
0
0
0
0
0
0
0
0
0
0
0
0
0
0
0
0
0.000305272
0.000224775
0
0.000840335
0.00320654
0.00196575
0.000449077
0.00893173
0.15305
0.142141
0.00593299
0.681167
4.97444
8.60328
0.344849
1.13255
1.47847
0.992549
0.731117
1.47116
1.47413
0.986148
0.975666
1.13258
1.47847
0.992545
0.731144
0.681594
4.97907
8.61025
0.34499
0.00893198
0.153042
0.14214
0.00593189
0.000840319
0.00320628
0.00196562
0.000449124
0
0.000305321
0.000224881
0
0
0
0
0
0
0
0
0
0
0
0
0
0
0
0
0
0
0
0
0
0
0
0
0
0
0
0
0
0
0
0
0
0
0
0
0
0
0
0
0
6.71755e-05
0.000746574
0.000449077
0
0.000606389
0.00878374
0.00593299
0.000404237
0.0227976
0.670514
0.344849
0.015935
0.185069
1.10245
0.731117
0.12098
1.00909
1.44289
0.975666
0.671971
0.185047
1.10242
0.731144
0.120978
0.0228293
0.670908
0.34499
0.015939
0.000606146
0.00878265
0.00593189
0.000404123
6.71561e-05
0.000746402
0.000449124
0
0
0
0
0
0
0
0
0
0
0
0
0
0
0
0
0
0
0
0
0
0
0
0
0
)
;

boundaryField
{
    inlet
    {
        type            zeroGradient;
    }
    outlet
    {
        type            zeroGradient;
    }
    walls
    {
        type            zeroGradient;
    }
}


// ************************************************************************* //
