/*--------------------------------*- C++ -*----------------------------------*\
| =========                 |                                                 |
| \\      /  F ield         | OpenFOAM: The Open Source CFD Toolbox           |
|  \\    /   O peration     | Version:  5.x                                   |
|   \\  /    A nd           | Web:      www.OpenFOAM.org                      |
|    \\/     M anipulation  |                                                 |
\*---------------------------------------------------------------------------*/
FoamFile
{
    version     2.0;
    format      ascii;
    class       volScalarField;
    location    "0.02";
    object      p;
}
// * * * * * * * * * * * * * * * * * * * * * * * * * * * * * * * * * * * * * //

dimensions      [0 2 -2 0 0 0 0];

internalField   nonuniform List<scalar> 
320
(
6.28699e-10
1.55524e-09
4.08202e-10
-8.55026e-10
6.26109e-10
1.95661e-09
1.27475e-10
-4.29344e-09
3.183e-09
1.51851e-08
9.19992e-09
-8.11586e-09
-1.4276e-08
-1.04286e-08
-2.27913e-08
-3.7747e-08
3.09867e-08
1.12742e-07
8.78281e-08
-1.72775e-08
-1.81903e-07
-1.61359e-07
-2.06979e-07
-2.77091e-07
1.05881e-07
5.97384e-07
4.54883e-07
-9.36831e-08
-1.03906e-06
-8.17716e-07
-1.10474e-06
-1.44274e-06
-7.34956e-07
1.88576e-06
1.10804e-06
-1.28713e-06
-5.81698e-06
-5.8175e-06
-5.81736e-06
-5.81688e-06
-1.08984e-05
-1.35196e-05
-1.27416e-05
-1.03458e-05
-1.05928e-05
-1.08135e-05
-1.05267e-05
-1.0189e-05
-1.1738e-05
-1.22295e-05
-1.2087e-05
-1.15384e-05
-1.14497e-05
-1.14702e-05
-1.14246e-05
-1.13546e-05
-1.16628e-05
-1.17445e-05
-1.17196e-05
-1.16144e-05
-1.16175e-05
-1.16213e-05
-1.16089e-05
-1.15939e-05
-1.16351e-05
-1.16471e-05
-1.16409e-05
-1.16235e-05
-1.16329e-05
-1.16342e-05
-1.16319e-05
-1.16271e-05
-1.16333e-05
-1.16344e-05
-1.16324e-05
-1.16301e-05
-1.16329e-05
-1.16331e-05
-1.16321e-05
-1.16308e-05
1.55524e-09
1.87165e-09
1.04944e-09
-1.67557e-11
1.95661e-09
6.14337e-09
3.43645e-09
-3.48089e-09
1.51851e-08
2.04413e-08
1.39813e-08
2.34977e-09
-1.04286e-08
1.96795e-08
1.45094e-09
-3.60502e-08
1.12742e-07
1.89988e-07
1.53561e-07
5.92038e-08
-1.61359e-07
1.61454e-08
-9.03768e-08
-2.65074e-07
5.97384e-07
1.48051e-06
1.17536e-06
3.20366e-07
-8.17716e-07
4.08221e-07
-6.36457e-07
-1.38548e-06
1.88576e-06
1.31266e-05
8.29831e-06
5.19776e-07
-5.8175e-06
-5.81911e-06
-5.81808e-06
-5.81735e-06
-1.35196e-05
-2.47605e-05
-1.9932e-05
-1.21533e-05
-1.08135e-05
-1.20376e-05
-1.0994e-05
-1.02459e-05
-1.22295e-05
-1.31125e-05
-1.28074e-05
-1.19525e-05
-1.14702e-05
-1.16475e-05
-1.15411e-05
-1.13665e-05
-1.17445e-05
-1.18217e-05
-1.17853e-05
-1.16909e-05
-1.16213e-05
-1.16514e-05
-1.16331e-05
-1.15955e-05
-1.16471e-05
-1.16523e-05
-1.16457e-05
-1.16339e-05
-1.16342e-05
-1.16384e-05
-1.16353e-05
-1.16279e-05
-1.16344e-05
-1.1635e-05
-1.16333e-05
-1.1631e-05
-1.16331e-05
-1.16334e-05
-1.16323e-05
-1.16309e-05
4.08202e-10
1.04944e-09
5.26635e-10
-6.3898e-10
1.27475e-10
3.43645e-09
1.50371e-09
-5.67233e-09
9.19992e-09
1.39813e-08
1.05227e-08
-1.91817e-09
-2.27913e-08
1.45094e-09
1.54584e-10
-4.48772e-08
8.78281e-08
1.53561e-07
1.44009e-07
4.32077e-08
-2.06979e-07
-9.03768e-08
-7.20753e-08
-3.14667e-07
4.54883e-07
1.17536e-06
1.26892e-06
3.25701e-07
-1.10474e-06
-6.36457e-07
-9.62651e-07
-1.62985e-06
1.10804e-06
8.29831e-06
8.48733e-06
2.11273e-07
-5.81736e-06
-5.81808e-06
-5.81912e-06
-5.81746e-06
-1.27416e-05
-1.9932e-05
-2.01214e-05
-1.1845e-05
-1.05267e-05
-1.0994e-05
-1.06665e-05
-1.00015e-05
-1.2087e-05
-1.28074e-05
-1.29009e-05
-1.19578e-05
-1.14246e-05
-1.15411e-05
-1.15593e-05
-1.13169e-05
-1.17196e-05
-1.17853e-05
-1.17757e-05
-1.16749e-05
-1.16089e-05
-1.16331e-05
-1.16317e-05
-1.15867e-05
-1.16409e-05
-1.16457e-05
-1.16421e-05
-1.16295e-05
-1.16319e-05
-1.16353e-05
-1.1633e-05
-1.16254e-05
-1.16324e-05
-1.16333e-05
-1.1632e-05
-1.16297e-05
-1.16321e-05
-1.16323e-05
-1.16314e-05
-1.163e-05
-8.55026e-10
-1.67557e-11
-6.3898e-10
-2.27447e-09
-4.29344e-09
-3.48089e-09
-5.67233e-09
-9.71261e-09
-8.11586e-09
2.34977e-09
-1.91817e-09
-1.95573e-08
-3.7747e-08
-3.60502e-08
-4.48772e-08
-6.26617e-08
-1.72775e-08
5.92038e-08
4.32077e-08
-6.47967e-08
-2.77091e-07
-2.65074e-07
-3.14667e-07
-3.80803e-07
-9.36831e-08
3.20366e-07
3.25701e-07
-2.58835e-07
-1.44274e-06
-1.38548e-06
-1.62985e-06
-1.84923e-06
-1.28713e-06
5.19776e-07
2.11273e-07
-1.81514e-06
-5.81688e-06
-5.81735e-06
-5.81746e-06
-5.81692e-06
-1.03458e-05
-1.21533e-05
-1.1845e-05
-9.81807e-06
-1.0189e-05
-1.02459e-05
-1.00015e-05
-9.78254e-06
-1.15384e-05
-1.19525e-05
-1.19578e-05
-1.13732e-05
-1.13546e-05
-1.13665e-05
-1.13169e-05
-1.12508e-05
-1.16144e-05
-1.16909e-05
-1.16749e-05
-1.15668e-05
-1.15939e-05
-1.15955e-05
-1.15867e-05
-1.15688e-05
-1.16235e-05
-1.16339e-05
-1.16295e-05
-1.16117e-05
-1.16271e-05
-1.16279e-05
-1.16254e-05
-1.16209e-05
-1.16301e-05
-1.1631e-05
-1.16297e-05
-1.1627e-05
-1.16308e-05
-1.16309e-05
-1.163e-05
-1.16288e-05
)
;

boundaryField
{
    inlet
    {
        type            zeroGradient;
    }
    outlet
    {
        type            totalPressure;
        rho             rho;
        psi             none;
        gamma           1;
        p0              uniform 0;
        value           nonuniform List<scalar> 
16
(
-2.84021e-17
-2.03081e-18
-4.07506e-18
-2.7358e-17
-2.03081e-18
0
0
-1.96553e-18
-4.07506e-18
0
0
-1.68223e-18
-2.7358e-17
-1.96553e-18
-1.68223e-18
-1.84838e-17
)
;
    }
    walls
    {
        type            zeroGradient;
    }
}


// ************************************************************************* //
