/*--------------------------------*- C++ -*----------------------------------*\
| =========                 |                                                 |
| \\      /  F ield         | OpenFOAM: The Open Source CFD Toolbox           |
|  \\    /   O peration     | Version:  5.x                                   |
|   \\  /    A nd           | Web:      www.OpenFOAM.org                      |
|    \\/     M anipulation  |                                                 |
\*---------------------------------------------------------------------------*/
FoamFile
{
    version     2.0;
    format      ascii;
    class       surfaceScalarField;
    location    "0.02";
    object      phi;
}
// * * * * * * * * * * * * * * * * * * * * * * * * * * * * * * * * * * * * * //

dimensions      [0 3 -1 0 0 0 0];

internalField   nonuniform List<scalar> 
784
(
-1.27561e-14
6.26889e-14
-1.27561e-14
4.88991e-15
-1.05018e-14
-1.27581e-14
1.30116e-14
1.40399e-14
-1.47314e-14
7.08516e-14
-1.37205e-14
-4.22499e-14
1.4719e-13
-4.22499e-14
8.56712e-15
3.40613e-15
-6.47195e-14
4.9245e-14
3.58191e-14
-6.24502e-14
1.63547e-13
-4.34455e-14
-1.61807e-13
4.70808e-13
-1.61807e-13
3.80117e-14
-5.08886e-14
-1.45514e-13
1.71075e-13
6.49878e-14
-1.62222e-13
5.03822e-13
-1.69197e-13
-2.46363e-13
9.63541e-13
-2.46363e-13
5.06538e-14
1.96326e-13
-5.44221e-13
2.73448e-13
3.54161e-13
-5.11962e-13
1.03167e-12
-2.54406e-13
-1.23681e-12
3.43716e-12
-1.23681e-12
2.1158e-13
5.56857e-14
-1.30774e-12
1.30587e-12
6.60147e-13
-1.40028e-12
3.61753e-12
-1.27999e-12
-1.18395e-12
5.80508e-12
-1.18395e-12
1.92139e-13
2.06504e-12
-3.38545e-12
1.30827e-12
2.67516e-12
-3.13115e-12
6.13491e-12
-1.20912e-12
-7.84059e-12
2.14863e-11
-7.84059e-12
1.22544e-12
7.1025e-12
-1.41035e-11
8.12094e-12
9.91982e-12
-1.41402e-11
2.21816e-11
-7.92575e-12
-5.20628e-12
3.18988e-11
-5.20628e-12
1.07185e-12
1.91974e-11
-1.8373e-11
5.44918e-12
2.11581e-11
-1.56156e-11
3.22704e-11
-4.63956e-12
-3.96545e-11
1.11208e-10
-3.96545e-11
4.59538e-12
1.36845e-10
-1.61897e-10
3.92575e-11
1.36861e-10
-1.50365e-10
1.09956e-10
-3.84279e-11
3.03539e-15
1.11202e-10
3.03539e-15
-1.14521e-15
1.36834e-10
1.54516e-14
-3.21182e-15
1.36851e-10
1.15095e-14
1.09949e-10
3.37784e-15
3.96563e-11
3.18891e-11
3.96563e-11
-4.59466e-12
1.91848e-11
1.619e-10
-3.92582e-11
2.11468e-11
1.50368e-10
3.22624e-11
3.84286e-11
5.20206e-12
2.1485e-11
5.20206e-12
-1.07074e-12
7.10083e-12
1.83568e-11
-5.44572e-12
9.91796e-12
1.56038e-11
2.21807e-11
4.63592e-12
7.84089e-12
5.80318e-12
7.84089e-12
-1.22564e-12
2.06487e-12
1.41025e-11
-8.12139e-12
2.67432e-12
1.41394e-11
6.13322e-12
7.92611e-12
1.18315e-12
3.43687e-12
1.18315e-12
-1.91864e-13
5.57361e-14
3.38414e-12
-1.30758e-12
6.59924e-13
3.13012e-12
3.61713e-12
1.20852e-12
1.23688e-12
9.63095e-13
1.23688e-12
-2.11551e-13
1.96452e-13
1.30773e-12
-1.30604e-12
3.54213e-13
1.40022e-12
1.03101e-12
1.28008e-12
2.46512e-13
4.70087e-13
2.46512e-13
-5.08893e-14
-5.05385e-14
5.44405e-13
-2.73715e-13
6.48204e-14
5.1223e-13
5.02639e-13
2.5466e-13
1.62629e-13
1.4483e-13
1.62629e-13
-3.84734e-14
4.2732e-15
1.46306e-13
-1.72295e-13
3.55236e-14
1.63123e-13
1.60209e-13
1.70136e-13
4.45572e-14
5.57273e-14
4.45572e-14
-9.88489e-15
-8.73807e-15
6.74648e-14
-5.22715e-14
1.25062e-14
6.54081e-14
6.18487e-14
4.60891e-14
1.95965e-14
1.65399e-14
1.95965e-14
-7.65772e-15
-2.11552e-15
2.06369e-14
-2.14813e-14
3.32566e-15
2.30086e-14
1.92238e-14
2.11421e-14
8.27127e-15
8.27127e-15
-3.46492e-15
9.627e-15
-1.02169e-14
1.00775e-14
9.0015e-15
-1.27581e-14
-1.05018e-14
4.88991e-15
4.01053e-15
-9.35583e-14
4.01053e-15
1.41536e-14
-7.02513e-14
7.02093e-16
1.97594e-15
1.09967e-15
-6.47195e-14
3.40613e-15
8.56712e-15
1.37863e-14
-2.50559e-13
1.37863e-14
7.04073e-14
-1.91177e-13
1.86314e-15
2.71301e-14
1.80911e-15
-1.45514e-13
-5.08886e-14
3.80117e-14
4.0668e-14
-6.22907e-13
4.0668e-14
1.62468e-13
-4.68786e-13
-6.4078e-15
1.79576e-14
2.44158e-15
-5.44221e-13
1.96326e-13
5.06538e-14
1.12835e-13
-1.93701e-12
1.12835e-13
5.53467e-13
-1.38213e-12
-3.92489e-14
3.19938e-13
-2.93044e-15
-1.30774e-12
5.56857e-14
2.1158e-13
2.92209e-13
-5.13691e-12
2.92209e-13
1.41678e-12
-3.77974e-12
-1.27251e-13
4.82539e-13
-2.58263e-14
-3.38545e-12
2.06504e-12
1.92139e-13
7.63591e-13
-1.3435e-11
7.63591e-13
3.35187e-12
-8.94991e-12
-5.49277e-13
2.63942e-12
-1.41552e-14
-1.41035e-11
7.1025e-12
1.22544e-12
2.86777e-12
-4.73775e-11
2.86777e-12
1.44193e-11
-3.26275e-11
-2.0141e-12
9.66003e-12
-5.2703e-13
-1.8373e-11
1.91974e-11
1.07185e-12
6.04148e-12
-9.62065e-11
6.04148e-12
1.67317e-11
-5.65206e-11
-2.41281e-12
2.1419e-11
3.33219e-13
-1.61897e-10
1.36845e-10
4.59538e-12
3.42617e-11
-4.88524e-10
3.42617e-11
1.51781e-10
-2.99315e-10
-2.50893e-11
1.37119e-10
-2.34666e-12
1.54516e-14
1.36834e-10
-1.14521e-15
-6.20643e-15
-4.88481e-10
-6.20643e-15
-1.22332e-14
-2.99303e-10
5.17515e-15
1.37109e-10
1.03346e-15
1.619e-10
1.91848e-11
-4.59466e-12
-3.42652e-11
-9.61513e-11
-3.42652e-11
-1.51784e-10
-5.65083e-11
2.50927e-11
2.14074e-11
2.34544e-12
1.83568e-11
7.10083e-12
-1.07074e-12
-6.03379e-12
-4.73702e-11
-6.03379e-12
-1.67192e-11
-3.26248e-11
2.40582e-12
9.65819e-12
-3.34091e-13
1.41025e-11
2.06487e-12
-1.22564e-12
-2.86761e-12
-1.343e-11
-2.86761e-12
-1.44186e-11
-8.94812e-12
2.01367e-12
2.63865e-12
5.27031e-13
3.38414e-12
5.57361e-14
-1.91864e-13
-7.6291e-13
-5.13588e-12
-7.6291e-13
-3.35064e-12
-3.77927e-12
5.49014e-13
4.82326e-13
1.41989e-14
1.30773e-12
1.96452e-13
-2.11551e-13
-2.92194e-13
-1.936e-12
-2.92194e-13
-1.41682e-12
-1.38152e-12
1.271e-13
3.19804e-13
2.57781e-14
5.44405e-13
-5.05385e-14
-5.08892e-14
-1.12965e-13
-6.21248e-13
-1.12965e-13
-5.53745e-13
-4.67673e-13
3.9164e-14
1.78785e-14
2.83841e-15
1.46306e-13
4.2732e-15
-3.84734e-14
-4.1137e-14
-2.46354e-13
-4.1137e-14
-1.63681e-13
-1.88093e-13
6.08841e-15
2.70137e-14
-2.68224e-15
6.74648e-14
-8.73807e-15
-9.88489e-15
-1.49858e-14
-8.14462e-14
-1.49858e-14
-7.3838e-14
-6.1333e-14
-2.49807e-15
1.60747e-15
-2.34604e-15
2.06369e-14
-2.11552e-15
-7.65772e-15
-6.90016e-15
-2.6365e-14
-6.90016e-15
-2.364e-14
-1.9632e-14
-1.9542e-15
1.20957e-15
-2.10817e-15
9.627e-15
-3.46492e-15
-3.55568e-15
-3.55568e-15
-1.14967e-14
-1.62216e-15
-1.294e-15
-1.47314e-14
1.40399e-14
1.30116e-14
7.02093e-16
-7.02513e-14
1.41536e-14
1.3526e-14
-6.62081e-14
1.3526e-14
7.08882e-15
1.35864e-14
-6.24502e-14
3.58191e-14
4.9245e-14
1.86314e-15
-1.91177e-13
7.04073e-14
6.57575e-14
-1.93994e-13
6.57575e-14
3.02441e-14
4.44138e-14
-1.62222e-13
6.49878e-14
1.71075e-13
-6.4078e-15
-4.68786e-13
1.62468e-13
1.54825e-13
-5.16459e-13
1.54825e-13
1.813e-14
1.69379e-13
-5.11962e-13
3.54161e-13
2.73448e-13
-3.92489e-14
-1.38213e-12
5.53467e-13
5.42077e-13
-1.67913e-12
5.42077e-13
2.92817e-13
2.64437e-13
-1.40028e-12
6.60147e-13
1.30587e-12
-1.27251e-13
-3.77974e-12
1.41678e-12
1.35801e-12
-4.64965e-12
1.35801e-12
3.4364e-13
1.28138e-12
-3.13115e-12
2.67516e-12
1.30827e-12
-5.49277e-13
-8.94991e-12
3.35187e-12
3.47549e-12
-1.26992e-11
3.47549e-12
2.52376e-12
1.28122e-12
-1.41402e-11
9.91982e-12
8.12094e-12
-2.0141e-12
-3.26275e-11
1.44193e-11
1.41455e-11
-4.50184e-11
1.41455e-11
7.95255e-12
8.18971e-12
-1.56156e-11
2.11581e-11
5.44918e-12
-2.41281e-12
-5.65206e-11
1.67317e-11
1.69807e-11
-8.38054e-11
1.69807e-11
2.04111e-11
4.85542e-12
-1.50365e-10
1.36861e-10
3.92575e-11
-2.50893e-11
-2.99315e-10
1.51781e-10
1.56575e-10
-4.47134e-10
1.56575e-10
1.3572e-10
3.89192e-11
1.15095e-14
1.36851e-10
-3.21182e-15
5.17515e-15
-2.99303e-10
-1.22332e-14
-1.52163e-14
-4.47093e-10
-1.52163e-14
1.35709e-10
-3.07865e-15
1.50368e-10
2.11468e-11
-3.92582e-11
2.50927e-11
-5.65083e-11
-1.51784e-10
-1.56578e-10
-8.37525e-11
-1.56578e-10
2.03977e-11
-3.89208e-11
1.56038e-11
9.91796e-12
-5.44572e-12
2.40582e-12
-3.26248e-11
-1.67192e-11
-1.69647e-11
-4.50115e-11
-1.69647e-11
7.95024e-12
-4.85131e-12
1.41394e-11
2.67432e-12
-8.12139e-12
2.01367e-12
-8.94812e-12
-1.44186e-11
-1.41446e-11
-1.2695e-11
-1.41446e-11
2.52263e-12
-8.18991e-12
3.13012e-12
6.59924e-13
-1.30758e-12
5.49014e-13
-3.77927e-12
-3.35064e-12
-3.4741e-12
-4.64881e-12
-3.4741e-12
3.43362e-13
-1.28064e-12
1.40022e-12
3.54213e-13
-1.30604e-12
1.271e-13
-1.38152e-12
-1.41682e-12
-1.35801e-12
-1.67858e-12
-1.35801e-12
2.92592e-13
-1.28147e-12
5.1223e-13
6.48204e-14
-2.73715e-13
3.9164e-14
-4.67673e-13
-5.53745e-13
-5.42333e-13
-5.15592e-13
-5.42333e-13
1.783e-14
-2.6474e-13
1.63123e-13
3.55236e-14
-1.72295e-13
6.08841e-15
-1.88093e-13
-1.63681e-13
-1.55911e-13
-1.91596e-13
-1.55911e-13
2.96652e-14
-1.70433e-13
6.54081e-14
1.25062e-14
-5.22715e-14
-2.49807e-15
-6.1333e-14
-7.3838e-14
-6.89676e-14
-5.866e-14
-6.89676e-14
5.59477e-15
-4.72504e-14
2.30086e-14
3.32566e-15
-2.14813e-14
-1.9542e-15
-1.9632e-14
-2.364e-14
-2.22605e-14
-1.80573e-14
-2.22605e-14
2.57145e-15
-2.13588e-14
1.00775e-14
-1.02169e-14
-1.62216e-15
-1.14967e-14
-1.06576e-14
-1.06576e-14
-9.39019e-15
-1.37205e-14
7.08516e-14
1.09967e-15
1.97594e-15
1.35864e-14
7.08882e-15
7.06234e-14
-4.34455e-14
1.63547e-13
1.80911e-15
2.71301e-14
4.44138e-14
3.02441e-14
1.59453e-13
-1.69197e-13
5.03822e-13
2.44158e-15
1.79576e-14
1.69379e-13
1.813e-14
4.982e-13
-2.54406e-13
1.03167e-12
-2.93044e-15
3.19938e-13
2.64437e-13
2.92817e-13
1.02708e-12
-1.27999e-12
3.61753e-12
-2.58263e-14
4.82539e-13
1.28138e-12
3.4364e-13
3.58984e-12
-1.20912e-12
6.13491e-12
-1.41552e-14
2.63942e-12
1.28122e-12
2.52376e-12
6.15232e-12
-7.92575e-12
2.21816e-11
-5.2703e-13
9.66003e-12
8.18971e-12
7.95255e-12
2.25317e-11
-4.63956e-12
3.22704e-11
3.33219e-13
2.1419e-11
4.85542e-12
2.04111e-11
3.22426e-11
-3.84279e-11
1.09956e-10
-2.34666e-12
1.37119e-10
3.89192e-11
1.3572e-10
1.10081e-10
3.37784e-15
1.09949e-10
1.03346e-15
1.37109e-10
-3.07865e-15
1.35709e-10
1.10075e-10
3.84286e-11
3.22624e-11
2.34544e-12
2.14074e-11
-3.89208e-11
2.03977e-11
3.2233e-11
4.63592e-12
2.21807e-11
-3.34091e-13
9.65819e-12
-4.85131e-12
7.95024e-12
2.25304e-11
7.92611e-12
6.13322e-12
5.27031e-13
2.63865e-12
-8.18991e-12
2.52263e-12
6.1506e-12
1.20852e-12
3.61713e-12
1.41989e-14
4.82326e-13
-1.28064e-12
3.43363e-13
3.58932e-12
1.28008e-12
1.03101e-12
2.5778e-14
3.19804e-13
-1.28147e-12
2.92592e-13
1.02637e-12
2.5466e-13
5.02639e-13
2.83841e-15
1.78785e-14
-2.6474e-13
1.783e-14
4.96886e-13
1.70136e-13
1.60209e-13
-2.68224e-15
2.70137e-14
-1.70433e-13
2.96652e-14
1.56017e-13
4.60891e-14
6.18487e-14
-2.34604e-15
1.60747e-15
-4.72504e-14
5.59477e-15
6.15075e-14
2.11421e-14
1.92238e-14
-2.10817e-15
1.20957e-15
-2.13588e-14
2.57145e-15
1.87801e-14
9.0015e-15
-1.294e-15
-9.39019e-15
)
;

boundaryField
{
    inlet
    {
        type            calculated;
        value           uniform 0;
    }
    outlet
    {
        type            calculated;
        value           nonuniform List<scalar> 
16
(
-3.71767e-14
5.61591e-15
-7.42846e-15
-4.41167e-14
5.61591e-15
6.00246e-14
4.46799e-14
-2.63924e-15
-7.42846e-15
4.46799e-14
4.05643e-14
-6.04908e-15
-4.41167e-14
-2.63924e-15
-6.04908e-15
-4.34475e-14
)
;
    }
    walls
    {
        type            calculated;
        value           nonuniform List<scalar> 
320
(
0
0
0
0
0
4.70427e-34
1.98468e-31
3.40602e-28
1.00704e-25
1.39409e-23
1.00665e-25
2.83672e-28
1.37872e-31
2.7783e-34
0
0
0
0
0
0
0
0
0
0
0
4.99961e-32
4.23734e-29
1.3785e-25
1.48194e-23
7.40218e-22
1.48193e-23
1.37248e-25
4.1647e-29
4.83681e-32
0
0
0
0
0
0
0
0
0
0
0
3.53113e-32
2.20171e-29
9.23586e-26
7.50995e-24
3.57924e-22
7.51028e-24
9.23571e-26
2.19103e-29
3.4932e-32
0
0
0
0
0
0
0
0
0
0
0
2.26758e-34
1.00695e-31
1.67496e-28
5.00674e-26
6.6796e-24
5.00528e-26
1.53663e-28
9.05337e-32
2.03883e-34
0
0
0
0
0
0
0
0
0
0
0
-2.26758e-34
-1.00695e-31
-1.67496e-28
-5.00674e-26
-6.6796e-24
-5.00528e-26
-1.53663e-28
-9.05337e-32
0
0
0
0
0
0
0
0
0
0
0
0
-3.10728e-32
-2.15644e-29
-9.08946e-26
-7.3104e-24
-3.51047e-22
-7.31098e-24
-9.05609e-26
-2.15025e-29
-3.11066e-32
0
0
0
0
0
0
0
0
0
0
0
-1.8423e-32
-1.44799e-29
-4.67595e-26
-4.84826e-24
-2.37387e-22
-4.8485e-24
-4.67571e-26
-1.46096e-29
-1.88489e-32
0
0
0
0
0
0
0
0
0
0
0
0
-6.03765e-32
-1.1722e-28
-3.27336e-26
-4.44862e-24
-3.27274e-26
-1.17478e-28
-6.76342e-32
0
0
0
0
0
0
0
0
0
0
0
0
4.70428e-34
1.98468e-31
3.40603e-28
1.00705e-25
1.39409e-23
1.00665e-25
2.83673e-28
1.37872e-31
2.77831e-34
0
0
0
0
0
0
0
0
0
0
0
4.99962e-32
4.23735e-29
1.3785e-25
1.48194e-23
7.40219e-22
1.48193e-23
1.37249e-25
4.1647e-29
4.83682e-32
0
0
0
0
0
0
0
0
0
0
0
3.53113e-32
2.20171e-29
9.23587e-26
7.50996e-24
3.57925e-22
7.51029e-24
9.23573e-26
2.19103e-29
3.4932e-32
0
0
0
0
0
0
0
0
0
0
0
2.26758e-34
1.00695e-31
1.67496e-28
5.00675e-26
6.6796e-24
5.00528e-26
1.53663e-28
9.05338e-32
0
0
0
0
0
0
0
0
0
0
0
0
-2.26758e-34
-1.00695e-31
-1.67496e-28
-5.00675e-26
-6.6796e-24
-5.00528e-26
-1.53663e-28
-9.05338e-32
-2.03883e-34
0
0
0
0
0
0
0
0
0
0
0
-3.10728e-32
-2.15645e-29
-9.08947e-26
-7.3104e-24
-3.51048e-22
-7.31099e-24
-9.05611e-26
-2.15025e-29
-3.11066e-32
0
0
0
0
0
0
0
0
0
0
0
-1.8423e-32
-1.44799e-29
-4.67596e-26
-4.84826e-24
-2.37387e-22
-4.8485e-24
-4.67571e-26
-1.46096e-29
-1.88489e-32
0
0
0
0
0
0
0
0
0
0
0
0
-6.03766e-32
-1.1722e-28
-3.27336e-26
-4.44862e-24
-3.27274e-26
-1.17478e-28
-6.76343e-32
0
0
0
0
0
0
0
)
;
    }
}


// ************************************************************************* //
