/*--------------------------------*- C++ -*----------------------------------*\
| =========                 |                                                 |
| \\      /  F ield         | OpenFOAM: The Open Source CFD Toolbox           |
|  \\    /   O peration     | Version:  5.x                                   |
|   \\  /    A nd           | Web:      www.OpenFOAM.org                      |
|    \\/     M anipulation  |                                                 |
\*---------------------------------------------------------------------------*/
FoamFile
{
    version     2.0;
    format      ascii;
    class       volVectorField;
    location    "0.02";
    object      U;
}
// * * * * * * * * * * * * * * * * * * * * * * * * * * * * * * * * * * * * * //

dimensions      [0 1 -1 0 0 0 0];

internalField   nonuniform List<vector> 
320
(
(-1.62284e-09 7.00849e-09 -1.62284e-09)
(-1.04175e-09 -3.61873e-10 -1.72762e-09)
(1.98148e-09 1.65052e-09 -1.80103e-09)
(1.31754e-09 8.19218e-09 -1.61882e-09)
(-5.63506e-09 1.34292e-08 -5.63506e-09)
(-4.41735e-09 -6.0724e-09 -8.28039e-09)
(6.74489e-09 -3.81666e-10 -7.58411e-09)
(5.15597e-09 1.56545e-08 -5.41605e-09)
(-2.08662e-08 4.62686e-08 -2.08662e-08)
(-1.50187e-08 1.73818e-08 -2.02742e-08)
(2.39427e-08 2.40039e-08 -2.03141e-08)
(1.71939e-08 4.97684e-08 -2.01101e-08)
(-3.38164e-08 6.94802e-08 -3.38164e-08)
(-2.73619e-08 -7.07757e-08 -7.15694e-08)
(3.99604e-08 -3.95359e-08 -6.13969e-08)
(3.04179e-08 8.06323e-08 -3.24429e-08)
(-1.59979e-07 3.7271e-07 -1.59979e-07)
(-1.25268e-07 2.41601e-07 -1.7639e-07)
(1.77035e-07 2.67193e-07 -1.68206e-07)
(1.36857e-07 3.85462e-07 -1.51949e-07)
(-1.62126e-07 3.64851e-07 -1.62126e-07)
(-1.39273e-07 -5.06637e-07 -4.66443e-07)
(1.90738e-07 -3.25347e-07 -3.65073e-07)
(1.46941e-07 4.20096e-07 -1.52678e-07)
(-1.02258e-06 2.30316e-06 -1.02258e-06)
(-8.2217e-07 1.81013e-06 -1.87436e-06)
(1.11289e-06 1.91025e-06 -1.63553e-06)
(8.78295e-07 2.36637e-06 -9.4008e-07)
(-6.63535e-07 2.84329e-06 -6.63535e-07)
(-5.80324e-07 -1.24673e-06 -2.54372e-06)
(7.96115e-07 -6.3096e-07 -1.74232e-06)
(6.14202e-07 2.92268e-06 -5.73947e-07)
(-5.06089e-06 1.0745e-05 -5.06089e-06)
(-4.33808e-06 1.14972e-05 -2.15022e-05)
(5.33121e-06 1.14397e-05 -1.66652e-05)
(4.40353e-06 1.06683e-05 -4.52184e-06)
(3.62647e-10 2.01339e-05 3.62647e-10)
(1.25021e-10 2.4443e-05 3.95765e-10)
(-3.17593e-10 2.48409e-05 -8.28395e-11)
(-3.23485e-10 1.99174e-05 3.53853e-10)
(5.06101e-06 1.07433e-05 5.06101e-06)
(4.33806e-06 1.14942e-05 2.1502e-05)
(-5.33082e-06 1.14373e-05 1.66644e-05)
(-4.40378e-06 1.06668e-05 4.5221e-06)
(6.63042e-07 2.8422e-06 6.63042e-07)
(5.80003e-07 -1.24821e-06 2.54183e-06)
(-7.95601e-07 -6.32289e-07 1.74137e-06)
(-6.13892e-07 2.92181e-06 5.73583e-07)
(1.02261e-06 2.30306e-06 1.02261e-06)
(8.22185e-07 1.81046e-06 1.87425e-06)
(-1.11294e-06 1.91041e-06 1.63546e-06)
(-8.78341e-07 2.36627e-06 9.40119e-07)
(1.62039e-07 3.6456e-07 1.62039e-07)
(1.39214e-07 -5.06953e-07 4.66275e-07)
(-1.90639e-07 -3.25643e-07 3.64972e-07)
(-1.46872e-07 4.19827e-07 1.52614e-07)
(1.59987e-07 3.72705e-07 1.59987e-07)
(1.25282e-07 2.41711e-07 1.76387e-07)
(-1.7705e-07 2.6725e-07 1.68202e-07)
(-1.36879e-07 3.85423e-07 1.5196e-07)
(3.38412e-08 6.93867e-08 3.38412e-08)
(2.7364e-08 -7.07577e-08 7.15989e-08)
(-4.00106e-08 -3.9586e-08 6.14321e-08)
(-3.04437e-08 8.0481e-08 3.24757e-08)
(2.09828e-08 4.6067e-08 2.09828e-08)
(1.50762e-08 1.74733e-08 2.03858e-08)
(-2.41285e-08 2.39739e-08 2.04315e-08)
(-1.7315e-08 4.94521e-08 2.02272e-08)
(5.94664e-09 1.27766e-08 5.94664e-09)
(4.591e-09 -5.88327e-09 8.65116e-09)
(-7.20707e-09 -5.00788e-10 7.95861e-09)
(-5.46392e-09 1.47687e-08 5.7458e-09)
(2.53677e-09 5.16739e-09 2.53677e-09)
(1.62139e-09 2.17057e-10 2.76903e-09)
(-3.21522e-09 1.3418e-09 2.83865e-09)
(-2.16832e-09 5.83e-09 2.53727e-09)
(1.08089e-09 1.11733e-09 1.08089e-09)
(6.9216e-10 -3.3811e-10 1.24141e-09)
(-1.45881e-09 2.12146e-10 1.23761e-09)
(-1.02877e-09 1.34384e-09 1.09708e-09)
(-1.72762e-09 -3.61873e-10 -1.04175e-09)
(-1.18569e-09 -1.05231e-08 -1.18569e-09)
(2.0711e-09 -7.85074e-09 -1.66036e-09)
(1.50728e-09 1.10188e-09 -1.4864e-09)
(-8.28039e-09 -6.0724e-09 -4.41735e-09)
(-6.25315e-09 -2.49288e-08 -6.25315e-09)
(9.58299e-09 -1.91422e-08 -7.14004e-09)
(7.33628e-09 -2.98755e-09 -5.14998e-09)
(-2.02742e-08 1.73818e-08 -1.50187e-08)
(-1.40408e-08 -4.73191e-08 -1.40408e-08)
(2.38832e-08 -3.09457e-08 -2.00274e-08)
(1.74274e-08 2.22557e-08 -1.93052e-08)
(-7.15694e-08 -7.07757e-08 -2.73619e-08)
(-5.43815e-08 -2.29206e-07 -5.43815e-08)
(7.91821e-08 -1.89126e-07 -6.59769e-08)
(5.94093e-08 -5.16921e-08 -3.31463e-08)
(-1.7639e-07 2.41601e-07 -1.25268e-07)
(-1.30612e-07 -1.62661e-07 -1.30612e-07)
(2.00313e-07 -4.34308e-08 -1.80178e-07)
(1.53115e-07 2.63484e-07 -1.53466e-07)
(-4.66443e-07 -5.06637e-07 -1.39273e-07)
(-3.40445e-07 -2.2348e-06 -3.40445e-07)
(5.07647e-07 -1.81411e-06 -4.58476e-07)
(3.59293e-07 -3.71977e-07 -1.65649e-07)
(-1.87436e-06 1.81013e-06 -8.2217e-07)
(-1.42049e-06 -3.11119e-07 -1.42049e-06)
(2.05104e-06 5.05231e-07 -1.92662e-06)
(1.57294e-06 1.95601e-06 -1.01762e-06)
(-2.54372e-06 -1.24673e-06 -5.80324e-07)
(-1.65655e-06 -2.13971e-05 -1.65655e-06)
(2.7978e-06 -1.60487e-05 -2.42059e-06)
(1.78065e-06 -6.8748e-07 -6.2688e-07)
(-2.15022e-05 1.14972e-05 -4.33808e-06)
(-1.59832e-05 7.70921e-06 -1.59832e-05)
(2.25456e-05 8.82063e-06 -2.17993e-05)
(1.65372e-05 1.14004e-05 -5.08078e-06)
(3.95765e-10 2.4443e-05 1.25021e-10)
(2.74024e-09 -0.000189191 2.74024e-09)
(-3.67445e-09 -0.000122803 3.38756e-09)
(7.23859e-11 2.50913e-05 3.19092e-10)
(2.1502e-05 1.14942e-05 4.33806e-06)
(1.59841e-05 7.72736e-06 1.59841e-05)
(-2.25474e-05 8.82644e-06 2.1801e-05)
(-1.65363e-05 1.13979e-05 5.08035e-06)
(2.54183e-06 -1.24821e-06 5.80003e-07)
(1.65535e-06 -2.13991e-05 1.65535e-06)
(-2.79533e-06 -1.60503e-05 2.41833e-06)
(-1.77976e-06 -6.8882e-07 6.2641e-07)
(1.87425e-06 1.81046e-06 8.22185e-07)
(1.42039e-06 -3.08653e-07 1.42039e-06)
(-2.05093e-06 5.06479e-07 1.92647e-06)
(-1.57288e-06 1.95623e-06 1.01765e-06)
(4.66275e-07 -5.06953e-07 1.39214e-07)
(3.40368e-07 -2.23501e-06 3.40368e-07)
(-5.0744e-07 -1.81435e-06 4.58332e-07)
(-3.59186e-07 -3.72276e-07 1.6559e-07)
(1.76387e-07 2.41711e-07 1.25282e-07)
(1.30614e-07 -1.62347e-07 1.30614e-07)
(-2.00313e-07 -4.32318e-08 1.80158e-07)
(-1.53122e-07 2.63543e-07 1.53472e-07)
(7.15989e-08 -7.07577e-08 2.7364e-08)
(5.43931e-08 -2.29069e-07 5.43931e-08)
(-7.92294e-08 -1.89052e-07 6.60013e-08)
(-5.94381e-08 -5.17359e-08 3.31692e-08)
(2.03858e-08 1.74733e-08 1.50762e-08)
(1.40961e-08 -4.68795e-08 1.40961e-08)
(-2.40642e-08 -3.06316e-08 2.01092e-08)
(-1.75501e-08 2.22392e-08 1.93991e-08)
(8.65116e-09 -5.88327e-09 4.591e-09)
(6.48218e-09 -2.37587e-08 6.48218e-09)
(-1.00857e-08 -1.82947e-08 7.43628e-09)
(-7.69107e-09 -3.03572e-09 5.42083e-09)
(2.76903e-09 2.17057e-10 1.62139e-09)
(1.86875e-09 -7.31153e-09 1.86875e-09)
(-3.4232e-09 -5.47137e-09 2.52532e-09)
(-2.48112e-09 1.13106e-09 2.28873e-09)
(1.24141e-09 -3.3811e-10 6.9216e-10)
(8.30494e-10 -1.85064e-09 8.30494e-10)
(-1.61015e-09 -1.37641e-09 1.03832e-09)
(-1.17392e-09 -9.01464e-11 9.53654e-10)
(-1.80103e-09 1.65052e-09 1.98148e-09)
(-1.66036e-09 -7.85074e-09 2.0711e-09)
(1.69992e-09 -7.1325e-09 1.69992e-09)
(1.52239e-09 1.71179e-09 1.66524e-09)
(-7.58411e-09 -3.81666e-10 6.74489e-09)
(-7.14004e-09 -1.91422e-08 9.58299e-09)
(7.91423e-09 -1.88245e-08 7.91423e-09)
(7.23444e-09 -1.92534e-09 5.65018e-09)
(-2.03141e-08 2.40039e-08 2.39427e-08)
(-2.00274e-08 -3.09457e-08 2.38832e-08)
(1.88473e-08 -3.47609e-08 1.88473e-08)
(1.82299e-08 2.25807e-08 2.02447e-08)
(-6.13969e-08 -3.95359e-08 3.99604e-08)
(-6.59769e-08 -1.89126e-07 7.91821e-08)
(6.15366e-08 -2.00494e-07 6.15366e-08)
(6.3524e-08 -5.19367e-08 3.38153e-08)
(-1.68206e-07 2.67193e-07 1.77035e-07)
(-1.80178e-07 -4.34308e-08 2.00313e-07)
(1.55111e-07 -1.2269e-07 1.55111e-07)
(1.65227e-07 2.59761e-07 1.50955e-07)
(-3.65073e-07 -3.25347e-07 1.90738e-07)
(-4.58476e-07 -1.81411e-06 5.07647e-07)
(3.67028e-07 -2.08228e-06 3.67028e-07)
(4.38739e-07 -4.35437e-07 1.65643e-07)
(-1.63553e-06 1.91025e-06 1.11289e-06)
(-1.92662e-06 5.05231e-07 2.05104e-06)
(1.521e-06 -2.72772e-08 1.521e-06)
(1.78875e-06 1.95391e-06 9.36748e-07)
(-1.74232e-06 -6.3096e-07 7.96115e-07)
(-2.42059e-06 -1.60487e-05 2.7978e-06)
(1.8338e-06 -2.07051e-05 1.8338e-06)
(2.38348e-06 -1.09226e-06 6.6987e-07)
(-1.66652e-05 1.14397e-05 5.33121e-06)
(-2.17993e-05 8.82063e-06 2.25456e-05)
(1.62625e-05 7.9037e-06 1.62625e-05)
(2.09371e-05 1.13555e-05 4.53733e-06)
(-8.28394e-11 2.48409e-05 -3.17593e-10)
(3.38756e-09 -0.000122803 -3.67445e-09)
(-2.74509e-09 -0.000175709 -2.74509e-09)
(-2.97654e-10 2.447e-05 -1.40089e-10)
(1.66644e-05 1.14373e-05 -5.33082e-06)
(2.1801e-05 8.82644e-06 -2.25474e-05)
(-1.62634e-05 7.92093e-06 -1.62634e-05)
(-2.09369e-05 1.13525e-05 -4.53731e-06)
(1.74137e-06 -6.32289e-07 -7.95601e-07)
(2.41833e-06 -1.60503e-05 -2.79533e-06)
(-1.83255e-06 -2.07071e-05 -1.83255e-06)
(-2.38178e-06 -1.09374e-06 -6.69501e-07)
(1.63546e-06 1.91041e-06 -1.11294e-06)
(1.92647e-06 5.06479e-07 -2.05093e-06)
(-1.52093e-06 -2.50501e-08 -1.52093e-06)
(-1.78863e-06 1.95423e-06 -9.36771e-07)
(3.64972e-07 -3.25643e-07 -1.90639e-07)
(4.58332e-07 -1.81435e-06 -5.0744e-07)
(-3.66911e-07 -2.08247e-06 -3.66911e-07)
(-4.38589e-07 -4.35738e-07 -1.65575e-07)
(1.68202e-07 2.6725e-07 -1.7705e-07)
(1.80158e-07 -4.32318e-08 -2.00313e-07)
(-1.55122e-07 -1.22464e-07 -1.55122e-07)
(-1.65225e-07 2.59803e-07 -1.5097e-07)
(6.14321e-08 -3.9586e-08 -4.00106e-08)
(6.60013e-08 -1.89052e-07 -7.92294e-08)
(-6.15776e-08 -2.00443e-07 -6.15776e-08)
(-6.35531e-08 -5.2002e-08 -3.38579e-08)
(2.04315e-08 2.39739e-08 -2.41285e-08)
(2.01092e-08 -3.06316e-08 -2.40642e-08)
(-1.89992e-08 -3.45175e-08 -1.89992e-08)
(-1.83432e-08 2.25078e-08 -2.03867e-08)
(7.95861e-09 -5.00788e-10 -7.20707e-09)
(7.43628e-09 -1.82947e-08 -1.00857e-08)
(-8.34381e-09 -1.81319e-08 -8.34381e-09)
(-7.57723e-09 -2.09327e-09 -6.02656e-09)
(2.83865e-09 1.3418e-09 -3.21522e-09)
(2.52532e-09 -5.47137e-09 -3.4232e-09)
(-2.83257e-09 -5.04677e-09 -2.83257e-09)
(-2.45702e-09 1.47106e-09 -2.66756e-09)
(1.23761e-09 2.12146e-10 -1.45881e-09)
(1.03832e-09 -1.37641e-09 -1.61015e-09)
(-1.35697e-09 -1.25618e-09 -1.35697e-09)
(-1.13123e-09 5.07056e-11 -1.18666e-09)
(-1.61882e-09 8.19218e-09 1.31754e-09)
(-1.4864e-09 1.10188e-09 1.50728e-09)
(1.66524e-09 1.71179e-09 1.52239e-09)
(1.45307e-09 8.23735e-09 1.45307e-09)
(-5.41605e-09 1.56545e-08 5.15597e-09)
(-5.14998e-09 -2.98755e-09 7.33628e-09)
(5.65018e-09 -1.92534e-09 7.23444e-09)
(5.03383e-09 1.53421e-08 5.03383e-09)
(-2.01101e-08 4.97684e-08 1.71939e-08)
(-1.93052e-08 2.22557e-08 1.74274e-08)
(2.02447e-08 2.25807e-08 1.82299e-08)
(1.86019e-08 4.95962e-08 1.86019e-08)
(-3.24429e-08 8.06323e-08 3.04179e-08)
(-3.31463e-08 -5.16921e-08 5.94093e-08)
(3.38153e-08 -5.19367e-08 6.3524e-08)
(3.15963e-08 7.74238e-08 3.15963e-08)
(-1.51949e-07 3.85462e-07 1.36857e-07)
(-1.53466e-07 2.63484e-07 1.53115e-07)
(1.50955e-07 2.59761e-07 1.65227e-07)
(1.4748e-07 3.88562e-07 1.4748e-07)
(-1.52678e-07 4.20096e-07 1.46941e-07)
(-1.65649e-07 -3.71977e-07 3.59293e-07)
(1.65643e-07 -4.35437e-07 4.38739e-07)
(1.58554e-07 4.05525e-07 1.58554e-07)
(-9.4008e-07 2.36637e-06 8.78295e-07)
(-1.01762e-06 1.95601e-06 1.57294e-06)
(9.36748e-07 1.95391e-06 1.78875e-06)
(9.83332e-07 2.41189e-06 9.83332e-07)
(-5.73947e-07 2.92268e-06 6.14202e-07)
(-6.2688e-07 -6.8748e-07 1.78065e-06)
(6.6987e-07 -1.09226e-06 2.38348e-06)
(6.25909e-07 2.86813e-06 6.25909e-07)
(-4.52184e-06 1.06683e-05 4.40353e-06)
(-5.08078e-06 1.14004e-05 1.65372e-05)
(4.53733e-06 1.13555e-05 2.09371e-05)
(4.90416e-06 1.06177e-05 4.90416e-06)
(3.53853e-10 1.99174e-05 -3.23485e-10)
(3.19092e-10 2.50913e-05 7.23858e-11)
(-1.40089e-10 2.447e-05 -2.97654e-10)
(-3.52845e-10 2.001e-05 -3.52845e-10)
(4.5221e-06 1.06668e-05 -4.40378e-06)
(5.08035e-06 1.13979e-05 -1.65363e-05)
(-4.53731e-06 1.13525e-05 -2.09369e-05)
(-4.90425e-06 1.0616e-05 -4.90425e-06)
(5.73583e-07 2.92181e-06 -6.13892e-07)
(6.2641e-07 -6.8882e-07 -1.77976e-06)
(-6.69501e-07 -1.09374e-06 -2.38178e-06)
(-6.25461e-07 2.86703e-06 -6.25461e-07)
(9.40119e-07 2.36627e-06 -8.78341e-07)
(1.01765e-06 1.95623e-06 -1.57288e-06)
(-9.36771e-07 1.95423e-06 -1.78863e-06)
(-9.83355e-07 2.41181e-06 -9.83355e-07)
(1.52614e-07 4.19827e-07 -1.46872e-07)
(1.6559e-07 -3.72276e-07 -3.59186e-07)
(-1.65575e-07 -4.35738e-07 -4.38589e-07)
(-1.58493e-07 4.0524e-07 -1.58493e-07)
(1.5196e-07 3.85423e-07 -1.36879e-07)
(1.53472e-07 2.63543e-07 -1.53122e-07)
(-1.5097e-07 2.59803e-07 -1.65225e-07)
(-1.47491e-07 3.88511e-07 -1.47491e-07)
(3.24757e-08 8.0481e-08 -3.04437e-08)
(3.31692e-08 -5.17359e-08 -5.94381e-08)
(-3.38579e-08 -5.2002e-08 -6.35531e-08)
(-3.16267e-08 7.72564e-08 -3.16267e-08)
(2.02272e-08 4.9452e-08 -1.7315e-08)
(1.93991e-08 2.22392e-08 -1.75501e-08)
(-2.03867e-08 2.25078e-08 -1.83432e-08)
(-1.87139e-08 4.9253e-08 -1.87139e-08)
(5.7458e-09 1.47686e-08 -5.46392e-09)
(5.42083e-09 -3.03572e-09 -7.69107e-09)
(-6.02656e-09 -2.09327e-09 -7.57723e-09)
(-5.33337e-09 1.44192e-08 -5.33337e-09)
(2.53727e-09 5.83e-09 -2.16832e-09)
(2.28873e-09 1.13106e-09 -2.48112e-09)
(-2.66756e-09 1.47106e-09 -2.45702e-09)
(-2.28975e-09 5.83774e-09 -2.28975e-09)
(1.09708e-09 1.34384e-09 -1.02877e-09)
(9.53654e-10 -9.01465e-11 -1.17392e-09)
(-1.18666e-09 5.07056e-11 -1.13123e-09)
(-1.00487e-09 1.32605e-09 -1.00487e-09)
)
;

boundaryField
{
    inlet
    {
        type            fixedValue;
        value           uniform (0 0 0);
    }
    outlet
    {
        type            zeroGradient;
    }
    walls
    {
        type            fixedValue;
        value           uniform (0 0 0);
    }
}


// ************************************************************************* //
