/*--------------------------------*- C++ -*----------------------------------*\
| =========                 |                                                 |
| \\      /  F ield         | OpenFOAM: The Open Source CFD Toolbox           |
|  \\    /   O peration     | Version:  5.x                                   |
|   \\  /    A nd           | Web:      www.OpenFOAM.org                      |
|    \\/     M anipulation  |                                                 |
\*---------------------------------------------------------------------------*/
FoamFile
{
    version     2.0;
    format      ascii;
    class       volVectorField;
    location    "0.02";
    object      Us;
}
// * * * * * * * * * * * * * * * * * * * * * * * * * * * * * * * * * * * * * //

dimensions      [0 1 -1 0 0 0 0];

internalField   nonuniform List<vector> 
320
(
(-9.74277e-30 -3.54689e-20 -9.74279e-30)
(-6.53634e-29 -2.37958e-19 -6.53635e-29)
(-6.52747e-29 -2.37635e-19 -6.52747e-29)
(-9.28061e-30 -3.37864e-20 -9.28062e-30)
(-5.75083e-28 -2.09361e-18 -5.75084e-28)
(-4.24453e-27 -1.54524e-17 -4.24454e-27)
(-4.24041e-27 -1.54373e-17 -4.24041e-27)
(-5.5193e-28 -2.00932e-18 -5.5193e-28)
(-3.37379e-26 -1.22824e-16 -3.37379e-26)
(-2.76378e-25 -1.00616e-15 -2.76378e-25)
(-2.76193e-25 -1.00549e-15 -2.76194e-25)
(-3.26132e-26 -1.1873e-16 -3.26133e-26)
(-1.92453e-24 -7.00632e-15 -1.92453e-24)
(-1.7719e-23 -6.45066e-14 -1.7719e-23)
(-1.77114e-23 -6.44788e-14 -1.77114e-23)
(-1.87332e-24 -6.81987e-15 -1.87332e-24)
(-1.05875e-22 -3.8544e-13 -1.05875e-22)
(-1.11307e-21 -4.05217e-12 -1.11307e-21)
(-1.11279e-21 -4.05113e-12 -1.11279e-21)
(-1.03742e-22 -3.77676e-13 -1.03742e-22)
(-5.54784e-21 -2.01971e-11 -5.54785e-21)
(-6.7995e-20 -2.47538e-10 -6.7995e-20)
(-6.79858e-20 -2.47504e-10 -6.79858e-20)
(-5.4701e-21 -1.99141e-11 -5.47011e-21)
(-2.71362e-19 -9.87904e-10 -2.71363e-19)
(-3.98848e-18 -1.45202e-08 -3.98849e-18)
(-3.98825e-18 -1.45193e-08 -3.98825e-18)
(-2.69092e-19 -9.79639e-10 -2.69093e-19)
(-1.19476e-17 -4.34955e-08 -1.19476e-17)
(-2.19391e-16 -7.98699e-07 -2.19391e-16)
(-2.19387e-16 -7.98685e-07 -2.19387e-16)
(-1.19059e-17 -4.33437e-08 -1.19059e-17)
(-4.38429e-16 -1.59612e-06 -4.3843e-16)
(-1.07298e-14 -3.9062e-05 -1.07298e-14)
(-1.07297e-14 -3.90619e-05 -1.07297e-14)
(-4.38404e-16 -1.59603e-06 -4.38405e-16)
(-1.07288e-14 -3.90584e-05 -1.07288e-14)
(-3.93692e-13 -0.00143325 -3.93692e-13)
(-3.93691e-13 -0.00143324 -3.93691e-13)
(-1.07277e-14 -3.90546e-05 -1.07277e-14)
(-4.38247e-16 -1.59545e-06 -4.38248e-16)
(-1.07279e-14 -3.90553e-05 -1.07279e-14)
(-1.07298e-14 -3.90623e-05 -1.07298e-14)
(-4.38328e-16 -1.59575e-06 -4.38329e-16)
(-9.92522e-18 -3.61331e-08 -9.92524e-18)
(-2.18327e-16 -7.94826e-07 -2.18327e-16)
(-2.19246e-16 -7.98173e-07 -2.19246e-16)
(-1.09074e-17 -3.97087e-08 -1.09074e-17)
(-1.87326e-19 -6.81968e-10 -1.87327e-19)
(-3.91904e-18 -1.42674e-08 -3.91905e-18)
(-3.96879e-18 -1.44485e-08 -3.9688e-18)
(-2.42034e-19 -8.81133e-10 -2.42034e-19)
(-3.23856e-21 -1.17901e-11 -3.23857e-21)
(-6.57504e-20 -2.39367e-10 -6.57505e-20)
(-6.72568e-20 -2.44851e-10 -6.72569e-20)
(-4.9197e-21 -1.79103e-11 -4.91971e-21)
(-5.31637e-23 -1.93544e-13 -5.31637e-23)
(-1.05739e-21 -3.84945e-12 -1.05739e-21)
(-1.09331e-21 -3.98024e-12 -1.09331e-21)
(-9.37841e-23 -3.41424e-13 -9.37842e-23)
(-8.43376e-25 -3.07034e-15 -8.43377e-25)
(-1.65183e-23 -6.01354e-14 -1.65183e-23)
(-1.72702e-23 -6.28728e-14 -1.72702e-23)
(-1.70432e-24 -6.20464e-15 -1.70432e-24)
(-1.30581e-26 -4.75383e-17 -1.30581e-26)
(-2.52646e-25 -9.19768e-16 -2.52647e-25)
(-2.67138e-25 -9.72527e-16 -2.67139e-25)
(-2.98584e-26 -1.087e-16 -2.98584e-26)
(-1.98545e-28 -7.22809e-19 -1.98545e-28)
(-3.80253e-27 -1.38432e-17 -3.80253e-27)
(-4.06641e-27 -1.48039e-17 -4.06641e-27)
(-5.08242e-28 -1.85027e-18 -5.08243e-28)
(-2.9767e-30 -1.08368e-20 -2.9767e-30)
(-5.65113e-29 -2.05731e-19 -5.65114e-29)
(-6.11206e-29 -2.22512e-19 -6.11207e-29)
(-8.45299e-30 -3.07734e-20 -8.453e-30)
(-4.50767e-32 -1.64103e-22 -4.50767e-32)
(-8.43841e-31 -3.07203e-21 -8.43842e-31)
(-9.22902e-31 -3.35985e-21 -9.22903e-31)
(-1.40194e-31 -5.10382e-22 -1.40195e-31)
(-6.53634e-29 -2.37958e-19 -6.53635e-29)
(-4.81128e-28 -1.75156e-18 -4.81129e-28)
(-4.80229e-28 -1.74829e-18 -4.80229e-28)
(-6.22317e-29 -2.26557e-19 -6.22318e-29)
(-4.24453e-27 -1.54524e-17 -4.24454e-27)
(-3.47284e-26 -1.2643e-16 -3.47285e-26)
(-3.46833e-26 -1.26266e-16 -3.46833e-26)
(-4.07784e-27 -1.48455e-17 -4.07785e-27)
(-2.76378e-25 -1.00616e-15 -2.76378e-25)
(-2.54185e-24 -9.25368e-15 -2.54185e-24)
(-2.53967e-24 -9.24575e-15 -2.53967e-24)
(-2.67781e-25 -9.74864e-16 -2.67781e-25)
(-1.7719e-23 -6.45066e-14 -1.7719e-23)
(-1.86107e-22 -6.7753e-13 -1.86108e-22)
(-1.8601e-22 -6.77176e-13 -1.8601e-22)
(-1.73048e-23 -6.29987e-14 -1.73048e-23)
(-1.11307e-21 -4.05217e-12 -1.11307e-21)
(-1.36311e-20 -4.96243e-11 -1.36311e-20)
(-1.36271e-20 -4.96101e-11 -1.36272e-20)
(-1.09507e-21 -3.98664e-12 -1.09507e-21)
(-6.7995e-20 -2.47538e-10 -6.7995e-20)
(-9.98733e-19 -3.63592e-09 -9.98734e-19)
(-9.98601e-19 -3.63544e-09 -9.98602e-19)
(-6.73387e-20 -2.45149e-10 -6.73387e-20)
(-3.98848e-18 -1.45202e-08 -3.98849e-18)
(-7.32025e-17 -2.66496e-07 -7.32026e-17)
(-7.31993e-17 -2.66484e-07 -7.31994e-17)
(-3.97207e-18 -1.44604e-08 -3.97207e-18)
(-2.19391e-16 -7.98699e-07 -2.19391e-16)
(-5.36737e-15 -1.95401e-05 -5.36737e-15)
(-5.36733e-15 -1.95399e-05 -5.36734e-15)
(-2.19339e-16 -7.98512e-07 -2.1934e-16)
(-1.07298e-14 -3.9062e-05 -1.07298e-14)
(-3.93692e-13 -0.00143325 -3.93692e-13)
(-3.93692e-13 -0.00143325 -3.93692e-13)
(-1.07298e-14 -3.9062e-05 -1.07298e-14)
(-3.93692e-13 -0.00143325 -3.93692e-13)
(-2.88849e-11 -0.105157 -2.8885e-11)
(-2.88849e-11 -0.105157 -2.8885e-11)
(-3.93691e-13 -0.00143324 -3.93691e-13)
(-1.07279e-14 -3.90553e-05 -1.07279e-14)
(-3.9369e-13 -0.00143324 -3.9369e-13)
(-3.93692e-13 -0.00143325 -3.93692e-13)
(-1.07308e-14 -3.90659e-05 -1.07308e-14)
(-2.18327e-16 -7.94826e-07 -2.18327e-16)
(-5.36722e-15 -1.95395e-05 -5.36722e-15)
(-5.36636e-15 -1.95364e-05 -5.36636e-15)
(-2.18406e-16 -7.95114e-07 -2.18406e-16)
(-3.91904e-18 -1.42674e-08 -3.91905e-18)
(-7.31704e-17 -2.66379e-07 -7.31705e-17)
(-7.31732e-17 -2.66389e-07 -7.31733e-17)
(-3.96115e-18 -1.44207e-08 -3.96116e-18)
(-6.57504e-20 -2.39367e-10 -6.57505e-20)
(-9.97489e-19 -3.63139e-09 -9.97491e-19)
(-9.98077e-19 -3.63353e-09 -9.98078e-19)
(-6.74274e-20 -2.45472e-10 -6.74275e-20)
(-1.05739e-21 -3.84945e-12 -1.05739e-21)
(-1.35976e-20 -4.95025e-11 -1.35976e-20)
(-1.36178e-20 -4.9576e-11 -1.36178e-20)
(-1.10258e-21 -4.01396e-12 -1.10258e-21)
(-1.65183e-23 -6.01354e-14 -1.65183e-23)
(-1.8535e-22 -6.74772e-13 -1.8535e-22)
(-1.85853e-22 -6.76604e-13 -1.85853e-22)
(-1.75364e-23 -6.3842e-14 -1.75365e-23)
(-2.52646e-25 -9.19768e-16 -2.52647e-25)
(-2.52635e-24 -9.19726e-15 -2.52635e-24)
(-2.53714e-24 -9.23654e-15 -2.53714e-24)
(-2.73318e-25 -9.95024e-16 -2.73319e-25)
(-3.80253e-27 -1.38432e-17 -3.80253e-27)
(-3.44321e-26 -1.25351e-16 -3.44321e-26)
(-3.46436e-26 -1.26121e-16 -3.46436e-26)
(-4.19446e-27 -1.52701e-17 -4.19447e-27)
(-5.65113e-29 -2.05731e-19 -5.65114e-29)
(-4.69244e-28 -1.7083e-18 -4.69244e-28)
(-4.73148e-28 -1.72251e-18 -4.73148e-28)
(-6.35905e-29 -2.31503e-19 -6.35905e-29)
(-8.43841e-31 -3.07203e-21 -8.43842e-31)
(-6.48174e-30 -2.3597e-20 -6.48175e-30)
(-6.55169e-30 -2.38516e-20 -6.5517e-30)
(-9.68852e-31 -3.52714e-21 -9.68854e-31)
(-6.52747e-29 -2.37635e-19 -6.52747e-29)
(-4.80229e-28 -1.74829e-18 -4.80229e-28)
(-4.7585e-28 -1.73235e-18 -4.7585e-28)
(-5.82579e-29 -2.1209e-19 -5.8258e-29)
(-4.24041e-27 -1.54373e-17 -4.24041e-27)
(-3.46833e-26 -1.26266e-16 -3.46833e-26)
(-3.44442e-26 -1.25395e-16 -3.44443e-26)
(-3.85874e-27 -1.40479e-17 -3.85874e-27)
(-2.76193e-25 -1.00549e-15 -2.76194e-25)
(-2.53967e-24 -9.24575e-15 -2.53967e-24)
(-2.52703e-24 -9.19975e-15 -2.52704e-24)
(-2.56088e-25 -9.32296e-16 -2.56088e-25)
(-1.77114e-23 -6.44788e-14 -1.77114e-23)
(-1.8601e-22 -6.77176e-13 -1.8601e-22)
(-1.85387e-22 -6.74908e-13 -1.85387e-22)
(-1.67229e-23 -6.08804e-14 -1.67229e-23)
(-1.11279e-21 -4.05113e-12 -1.11279e-21)
(-1.36271e-20 -4.96101e-11 -1.36272e-20)
(-1.35995e-20 -4.95095e-11 -1.35995e-20)
(-1.06906e-21 -3.89193e-12 -1.06906e-21)
(-6.79858e-20 -2.47504e-10 -6.79858e-20)
(-9.98601e-19 -3.63544e-09 -9.98602e-19)
(-9.97583e-19 -3.63173e-09 -9.97584e-19)
(-6.63737e-20 -2.41636e-10 -6.63738e-20)
(-3.98825e-18 -1.45193e-08 -3.98825e-18)
(-7.31993e-17 -2.66484e-07 -7.31994e-17)
(-7.31744e-17 -2.66394e-07 -7.31745e-17)
(-3.94864e-18 -1.43752e-08 -3.94865e-18)
(-2.19387e-16 -7.98685e-07 -2.19387e-16)
(-5.36733e-15 -1.95399e-05 -5.36734e-15)
(-5.36735e-15 -1.954e-05 -5.36736e-15)
(-2.19388e-16 -7.9869e-07 -2.19388e-16)
(-1.07297e-14 -3.90619e-05 -1.07297e-14)
(-3.93692e-13 -0.00143325 -3.93692e-13)
(-3.93692e-13 -0.00143325 -3.93692e-13)
(-1.07298e-14 -3.9062e-05 -1.07298e-14)
(-3.93691e-13 -0.00143324 -3.93691e-13)
(-2.88849e-11 -0.105157 -2.8885e-11)
(-2.88849e-11 -0.105157 -2.8885e-11)
(-3.93692e-13 -0.00143325 -3.93692e-13)
(-1.07298e-14 -3.90623e-05 -1.07298e-14)
(-3.93692e-13 -0.00143325 -3.93692e-13)
(-3.9369e-13 -0.00143324 -3.9369e-13)
(-1.07299e-14 -3.90625e-05 -1.07299e-14)
(-2.19246e-16 -7.98173e-07 -2.19246e-16)
(-5.36636e-15 -1.95364e-05 -5.36636e-15)
(-5.3654e-15 -1.95329e-05 -5.36541e-15)
(-2.19287e-16 -7.98322e-07 -2.19287e-16)
(-3.96879e-18 -1.44485e-08 -3.9688e-18)
(-7.31732e-17 -2.66389e-07 -7.31733e-17)
(-7.31498e-17 -2.66304e-07 -7.31498e-17)
(-3.98476e-18 -1.45067e-08 -3.98477e-18)
(-6.72568e-20 -2.44851e-10 -6.72569e-20)
(-9.98077e-19 -3.63353e-09 -9.98078e-19)
(-9.97665e-19 -3.63203e-09 -9.97666e-19)
(-6.79011e-20 -2.47196e-10 -6.79012e-20)
(-1.09331e-21 -3.98024e-12 -1.09331e-21)
(-1.36178e-20 -4.9576e-11 -1.36178e-20)
(-1.36118e-20 -4.95542e-11 -1.36118e-20)
(-1.11105e-21 -4.04481e-12 -1.11105e-21)
(-1.72702e-23 -6.28728e-14 -1.72702e-23)
(-1.85853e-22 -6.76604e-13 -1.85853e-22)
(-1.85782e-22 -6.76347e-13 -1.85783e-22)
(-1.76792e-23 -6.43617e-14 -1.76792e-23)
(-2.67138e-25 -9.72527e-16 -2.67139e-25)
(-2.53714e-24 -9.23654e-15 -2.53714e-24)
(-2.53658e-24 -9.23449e-15 -2.53658e-24)
(-2.75641e-25 -1.00348e-15 -2.75641e-25)
(-4.06641e-27 -1.48039e-17 -4.06641e-27)
(-3.46436e-26 -1.26121e-16 -3.46436e-26)
(-3.46452e-26 -1.26127e-16 -3.46452e-26)
(-4.23145e-27 -1.54048e-17 -4.23146e-27)
(-6.11206e-29 -2.22512e-19 -6.11207e-29)
(-4.73148e-28 -1.72251e-18 -4.73148e-28)
(-4.73356e-28 -1.72327e-18 -4.73356e-28)
(-6.41719e-29 -2.3362e-19 -6.4172e-29)
(-9.22902e-31 -3.35985e-21 -9.22903e-31)
(-6.55169e-30 -2.38516e-20 -6.5517e-30)
(-6.55805e-30 -2.38748e-20 -6.55806e-30)
(-9.78044e-31 -3.5606e-21 -9.78046e-31)
(-9.28061e-30 -3.37864e-20 -9.28062e-30)
(-6.22317e-29 -2.26557e-19 -6.22318e-29)
(-5.82579e-29 -2.1209e-19 -5.8258e-29)
(-4.49426e-30 -1.63615e-20 -4.49426e-30)
(-5.5193e-28 -2.00932e-18 -5.5193e-28)
(-4.07784e-27 -1.48455e-17 -4.07785e-27)
(-3.85874e-27 -1.40479e-17 -3.85874e-27)
(-2.91128e-28 -1.05986e-18 -2.91129e-28)
(-3.26132e-26 -1.1873e-16 -3.26133e-26)
(-2.67781e-25 -9.74864e-16 -2.67781e-25)
(-2.56088e-25 -9.32296e-16 -2.56088e-25)
(-1.88513e-26 -6.86289e-17 -1.88514e-26)
(-1.87332e-24 -6.81987e-15 -1.87332e-24)
(-1.73048e-23 -6.29987e-14 -1.73048e-23)
(-1.67229e-23 -6.08804e-14 -1.67229e-23)
(-1.19572e-24 -4.35306e-15 -1.19572e-24)
(-1.03742e-22 -3.77676e-13 -1.03742e-22)
(-1.09507e-21 -3.98664e-12 -1.09507e-21)
(-1.06906e-21 -3.89193e-12 -1.06906e-21)
(-7.37305e-23 -2.68418e-13 -7.37306e-23)
(-5.4701e-21 -1.99141e-11 -5.47011e-21)
(-6.73387e-20 -2.45149e-10 -6.73387e-20)
(-6.63737e-20 -2.41636e-10 -6.63738e-20)
(-4.36375e-21 -1.58864e-11 -4.36375e-21)
(-2.69092e-19 -9.79639e-10 -2.69093e-19)
(-3.97207e-18 -1.44604e-08 -3.97207e-18)
(-3.94864e-18 -1.43752e-08 -3.94865e-18)
(-2.42034e-19 -8.81131e-10 -2.42034e-19)
(-1.19059e-17 -4.33437e-08 -1.19059e-17)
(-2.19339e-16 -7.98512e-07 -2.1934e-16)
(-2.19388e-16 -7.9869e-07 -2.19388e-16)
(-1.19205e-17 -4.33968e-08 -1.19205e-17)
(-4.38404e-16 -1.59603e-06 -4.38405e-16)
(-1.07298e-14 -3.9062e-05 -1.07298e-14)
(-1.07298e-14 -3.9062e-05 -1.07298e-14)
(-4.3846e-16 -1.59623e-06 -4.3846e-16)
(-1.07277e-14 -3.90546e-05 -1.07277e-14)
(-3.93691e-13 -0.00143324 -3.93691e-13)
(-3.93692e-13 -0.00143325 -3.93692e-13)
(-1.07288e-14 -3.90584e-05 -1.07288e-14)
(-4.38328e-16 -1.59575e-06 -4.38329e-16)
(-1.07308e-14 -3.90659e-05 -1.07308e-14)
(-1.07299e-14 -3.90625e-05 -1.07299e-14)
(-4.38383e-16 -1.59595e-06 -4.38384e-16)
(-1.09074e-17 -3.97087e-08 -1.09074e-17)
(-2.18406e-16 -7.95114e-07 -2.18406e-16)
(-2.19287e-16 -7.98322e-07 -2.19287e-16)
(-1.19437e-17 -4.34816e-08 -1.19438e-17)
(-2.42034e-19 -8.81133e-10 -2.42034e-19)
(-3.96115e-18 -1.44207e-08 -3.96116e-18)
(-3.98476e-18 -1.45067e-08 -3.98477e-18)
(-2.71204e-19 -9.87328e-10 -2.71204e-19)
(-4.9197e-21 -1.79103e-11 -4.91971e-21)
(-6.74274e-20 -2.45472e-10 -6.74275e-20)
(-6.79011e-20 -2.47196e-10 -6.79012e-20)
(-5.54306e-21 -2.01797e-11 -5.54307e-21)
(-9.37841e-23 -3.41424e-13 -9.37842e-23)
(-1.10258e-21 -4.01396e-12 -1.10258e-21)
(-1.11105e-21 -4.04481e-12 -1.11105e-21)
(-1.05753e-22 -3.84999e-13 -1.05754e-22)
(-1.70432e-24 -6.20464e-15 -1.70432e-24)
(-1.75364e-23 -6.3842e-14 -1.75365e-23)
(-1.76792e-23 -6.43617e-14 -1.76792e-23)
(-1.92179e-24 -6.99633e-15 -1.92179e-24)
(-2.98584e-26 -1.087e-16 -2.98584e-26)
(-2.73318e-25 -9.95024e-16 -2.73319e-25)
(-2.75641e-25 -1.00348e-15 -2.75641e-25)
(-3.36803e-26 -1.22614e-16 -3.36803e-26)
(-5.08242e-28 -1.85027e-18 -5.08243e-28)
(-4.19446e-27 -1.52701e-17 -4.19447e-27)
(-4.23145e-27 -1.54048e-17 -4.23146e-27)
(-5.73938e-28 -2.08944e-18 -5.73938e-28)
(-8.45299e-30 -3.07734e-20 -8.453e-30)
(-6.35905e-29 -2.31503e-19 -6.35905e-29)
(-6.41719e-29 -2.3362e-19 -6.4172e-29)
(-9.5642e-30 -3.48188e-20 -9.56421e-30)
(-1.40194e-31 -5.10382e-22 -1.40195e-31)
(-9.68852e-31 -3.52714e-21 -9.68854e-31)
(-9.78044e-31 -3.5606e-21 -9.78046e-31)
(-1.59022e-31 -5.78926e-22 -1.59023e-31)
)
;

boundaryField
{
    inlet
    {
        type            zeroGradient;
    }
    outlet
    {
        type            zeroGradient;
    }
    walls
    {
        type            zeroGradient;
    }
}


// ************************************************************************* //
