/*--------------------------------*- C++ -*----------------------------------*\
| =========                 |                                                 |
| \\      /  F ield         | OpenFOAM: The Open Source CFD Toolbox           |
|  \\    /   O peration     | Version:  5.x                                   |
|   \\  /    A nd           | Web:      www.OpenFOAM.org                      |
|    \\/     M anipulation  |                                                 |
\*---------------------------------------------------------------------------*/
FoamFile
{
    version     2.0;
    format      ascii;
    class       surfaceScalarField;
    location    "0.084";
    object      phi;
}
// * * * * * * * * * * * * * * * * * * * * * * * * * * * * * * * * * * * * * //

dimensions      [0 3 -1 0 0 0 0];

internalField   nonuniform List<scalar> 
4324
(
-4.27604e-07
-4.28717e-07
9.49922e-08
-3.5572e-07
-4.75171e-07
3.02276e-08
-3.12412e-07
-4.9605e-07
6.0462e-08
-2.05459e-07
-5.25655e-07
4.71173e-09
-5.38926e-07
1.84668e-08
-4.74015e-07
-3.56627e-07
2.9994e-08
-4.13081e-07
-4.13999e-07
-1.22088e-07
-3.51e-07
-4.36072e-07
-1.22042e-07
-2.34449e-07
-4.64911e-07
-1.77277e-07
-4.78588e-07
-1.65817e-07
-4.94898e-07
-3.13115e-07
6.02367e-08
-4.35151e-07
-3.51715e-07
-1.22015e-07
-3.66391e-07
-3.67111e-07
-1.37705e-07
-2.45826e-07
-3.91412e-07
-1.94049e-07
-4.03437e-07
-1.83082e-07
-5.24501e-07
-2.05975e-07
4.50509e-09
-4.6399e-07
-2.34972e-07
-1.77236e-07
-3.90693e-07
-2.46358e-07
-1.94036e-07
-2.66412e-07
-2.66935e-07
-2.48744e-07
-2.77484e-07
-2.3703e-07
-5.37776e-07
1.84276e-08
-4.77672e-07
-1.65601e-07
-4.02716e-07
-1.82889e-07
-2.76963e-07
-2.36846e-07
-2.23893e-07
-1.67126e-07
-1.66559e-07
1.93258e-07
-1.91458e-07
-9.14463e-08
8.05225e-08
-1.85542e-07
-6.73371e-08
7.22282e-08
-1.62905e-07
-4.72927e-08
-5.08922e-09
-4.06296e-08
-1.11598e-08
-9.19894e-08
-1.90856e-07
8.05177e-08
-1.30921e-07
-1.30347e-07
-4.42322e-08
-1.53977e-07
-1.10016e-07
-5.62843e-08
-1.45245e-07
-9.379e-08
-1.39489e-07
-8.92299e-08
-1.48071e-07
-6.78849e-08
-1.84961e-07
7.22821e-08
-1.1059e-07
-1.53419e-07
-5.62139e-08
-1.44605e-07
-1.44049e-07
-6.96351e-08
-1.41663e-07
-1.36157e-07
-1.54606e-07
-1.35828e-07
-1.63735e-07
-4.78369e-08
-1.62344e-07
-5.02219e-09
-9.43687e-08
-1.447e-07
-1.394e-07
-1.36716e-07
-1.41128e-07
-1.54591e-07
-1.39039e-07
-1.38499e-07
-2.44068e-07
-1.40923e-07
-2.55128e-07
-4.11674e-08
-1.09911e-08
-8.98001e-08
-1.47869e-07
-1.36378e-07
-1.63609e-07
-1.41452e-07
-2.55013e-07
-2.66763e-07
-3.85181e-07
-3.85924e-07
3.20422e-07
-3.54344e-07
-4.14814e-07
1.20743e-07
-3.15273e-07
-4.24397e-07
1.06534e-07
-2.13201e-07
-4.45177e-07
-2.81768e-08
-4.54571e-07
-3.60585e-08
-4.14073e-07
-3.54921e-07
1.20632e-07
-3.832e-07
-3.83774e-07
-1.0612e-07
-3.40972e-07
-3.93708e-07
-1.29178e-07
-2.35516e-07
-4.15562e-07
-2.74536e-07
-4.25877e-07
-2.86932e-07
-4.23654e-07
-3.15722e-07
1.0652e-07
-3.93131e-07
-3.41417e-07
-1.29069e-07
-3.5016e-07
-3.50608e-07
-1.55683e-07
-2.43782e-07
-3.72065e-07
-3.04458e-07
-3.8269e-07
-3.18161e-07
-4.44435e-07
-2.13526e-07
-2.81713e-08
-4.14987e-07
-2.35837e-07
-2.74404e-07
-3.71619e-07
-2.44104e-07
-3.0444e-07
-2.6365e-07
-2.63967e-07
-4.60114e-07
-2.74258e-07
-4.76704e-07
-4.53823e-07
-3.58702e-08
-4.25299e-07
-2.86609e-07
-3.82241e-07
-3.17951e-07
-2.73937e-07
-4.76503e-07
-4.94046e-07
-3.63764e-07
-3.63571e-07
4.44824e-07
-3.47803e-07
-3.51704e-07
1.6394e-07
-3.12853e-07
-3.48859e-07
1.29611e-07
-2.26394e-07
-3.47989e-07
-5.6625e-08
-3.49349e-07
-7.79512e-08
-3.51897e-07
-3.47453e-07
1.63947e-07
-3.39698e-07
-3.39345e-07
-1.30651e-07
-3.11059e-07
-3.37659e-07
-1.68991e-07
-2.28191e-07
-3.39401e-07
-3.65965e-07
-3.42179e-07
-3.915e-07
-3.4905e-07
-3.12362e-07
1.29733e-07
-3.38007e-07
-3.10564e-07
-1.68867e-07
-3.11729e-07
-3.11241e-07
-2.08355e-07
-2.30353e-07
-3.16445e-07
-4.08764e-07
-3.21119e-07
-4.35544e-07
-3.48183e-07
-2.25827e-07
-5.64161e-08
-3.39756e-07
-2.27617e-07
-3.65752e-07
-3.16941e-07
-2.29787e-07
-4.08682e-07
-2.37746e-07
-2.3717e-07
-6.18558e-07
-2.43108e-07
-6.49392e-07
-3.49536e-07
-7.75655e-08
-3.42523e-07
-3.91094e-07
-3.21604e-07
-4.35271e-07
-2.43673e-07
-6.49187e-07
-6.81699e-07
-5.5027e-07
-5.50751e-07
6.14253e-07
-5.04337e-07
-5.77445e-07
2.09267e-07
-4.40376e-07
-5.85713e-07
1.58696e-07
-2.85817e-07
-6.09109e-07
-1.11994e-07
-6.19253e-07
-1.41826e-07
-5.76969e-07
-5.04613e-07
2.09246e-07
-5.32675e-07
-5.32941e-07
-2.19417e-07
-4.68334e-07
-5.42009e-07
-2.77006e-07
-3.11029e-07
-5.6746e-07
-5.6489e-07
-5.79002e-07
-6.01172e-07
-5.85227e-07
-4.40476e-07
1.58816e-07
-5.41735e-07
-4.6842e-07
-2.76851e-07
-4.77721e-07
-4.77815e-07
-3.36535e-07
-3.20013e-07
-5.04215e-07
-6.29689e-07
-5.16865e-07
-6.67884e-07
-6.08626e-07
-2.85775e-07
-1.11749e-07
-5.67194e-07
-3.10968e-07
-5.64607e-07
-5.04132e-07
-3.19958e-07
-6.29573e-07
-3.45061e-07
-3.4499e-07
-9.36822e-07
-3.5793e-07
-9.80684e-07
-6.18752e-07
-1.41358e-07
-5.78719e-07
-6.00641e-07
-5.16767e-07
-6.67521e-07
-3.57982e-07
-9.80416e-07
-1.02637e-06
-7.07206e-07
-7.07129e-07
8.36246e-07
-6.4693e-07
-7.24749e-07
2.64009e-07
-5.58995e-07
-7.30761e-07
1.86645e-07
-3.59773e-07
-7.48786e-07
-1.90637e-07
-7.57396e-07
-2.36947e-07
-7.24833e-07
-6.46587e-07
2.64069e-07
-6.67293e-07
-6.66935e-07
-3.34733e-07
-5.80584e-07
-6.73936e-07
-4.20506e-07
-3.80272e-07
-6.94834e-07
-8.1912e-07
-7.05055e-07
-8.73596e-07
-7.30831e-07
-5.58396e-07
1.86853e-07
-6.74281e-07
-5.79965e-07
-4.20336e-07
-5.88414e-07
-5.87808e-07
-5.08498e-07
-3.88128e-07
-6.10644e-07
-9.14132e-07
-6.2237e-07
-9.71085e-07
-7.48859e-07
-3.59011e-07
-1.90203e-07
-6.95191e-07
-3.79484e-07
-8.18721e-07
-6.11267e-07
-3.87352e-07
-9.13921e-07
-4.10761e-07
-4.09961e-07
-1.33798e-06
-4.22256e-07
-1.40256e-06
-7.57447e-07
-2.36284e-07
-7.0539e-07
-8.72932e-07
-6.2297e-07
-9.70609e-07
-4.23036e-07
-1.40226e-06
-1.46979e-06
-9.64352e-07
-9.64626e-07
1.1271e-06
-8.73156e-07
-1.01014e-06
3.28707e-07
-7.44008e-07
-1.02328e-06
2.15777e-07
-4.54671e-07
-1.06305e-06
-3.11688e-07
-1.07871e-06
-3.7735e-07
-1.00988e-06
-8.73129e-07
3.28785e-07
-9.21307e-07
-9.21252e-07
-5.12142e-07
-7.90968e-07
-9.3561e-07
-6.38477e-07
-4.95199e-07
-9.78507e-07
-1.19939e-06
-9.96241e-07
-1.27722e-06
-1.023e-06
-7.43686e-07
2.16005e-07
-9.35642e-07
-7.90609e-07
-6.38291e-07
-8.05675e-07
-8.05339e-07
-7.68698e-07
-5.08811e-07
-8.49238e-07
-1.34023e-06
-8.68488e-07
-1.42185e-06
-1.06277e-06
-4.54138e-07
-3.1114e-07
-9.7856e-07
-4.94618e-07
-1.19888e-06
-8.49603e-07
-5.08247e-07
-1.33993e-06
-5.48986e-07
-5.48382e-07
-1.93941e-06
-5.6753e-07
-2.03191e-06
-1.07839e-06
-3.76565e-07
-9.96252e-07
-1.27641e-06
-8.68812e-07
-1.42125e-06
-5.68103e-07
-2.03156e-06
-2.12825e-06
-1.35523e-06
-1.3551e-06
1.54625e-06
-1.22282e-06
-1.40703e-06
4.17882e-07
-1.03198e-06
-1.42385e-06
2.49241e-07
-6.17703e-07
-1.46893e-06
-4.9019e-07
-1.48789e-06
-5.87516e-07
-1.40719e-06
-1.22229e-06
4.18039e-07
-1.279e-06
-1.27843e-06
-7.68882e-07
-1.08608e-06
-1.29658e-06
-9.58611e-07
-6.64701e-07
-1.34622e-06
-1.74342e-06
-1.36755e-06
-1.85854e-06
-1.42397e-06
-1.03103e-06
2.49526e-07
-1.29712e-06
-1.08508e-06
-9.58431e-07
-1.10426e-06
-1.10329e-06
-1.1548e-06
-6.80937e-07
-1.15379e-06
-1.95593e-06
-1.17665e-06
-2.07683e-06
-1.46906e-06
-6.16476e-07
-4.89434e-07
-1.34679e-06
-6.63408e-07
-1.74276e-06
-1.1548e-06
-6.7967e-07
-1.9555e-06
-7.27625e-07
-7.26301e-07
-2.79402e-06
-7.48773e-07
-2.93032e-06
-1.48796e-06
-5.8656e-07
-1.36806e-06
-1.85759e-06
-1.1776e-06
-2.07611e-06
-7.50051e-07
-2.92994e-06
-3.07236e-06
-1.81603e-06
-1.8161e-06
2.09945e-06
-1.63437e-06
-1.91416e-06
5.35155e-07
-1.3665e-06
-1.94244e-06
2.85453e-07
-7.93242e-07
-2.02401e-06
-7.39228e-07
-2.05361e-06
-8.81628e-07
-1.91413e-06
-1.63399e-06
5.35364e-07
-1.73666e-06
-1.73622e-06
-1.12423e-06
-1.46263e-06
-1.76641e-06
-1.40861e-06
-8.70544e-07
-1.85294e-06
-2.50651e-06
-1.88582e-06
-2.67688e-06
-1.94234e-06
-1.36565e-06
2.85732e-07
-1.7668e-06
-1.46168e-06
-1.40845e-06
-1.49192e-06
-1.49103e-06
-1.705e-06
-8.95445e-07
-1.57675e-06
-2.82854e-06
-1.61115e-06
-3.00869e-06
-2.02394e-06
-7.92061e-07
-7.38293e-07
-1.85338e-06
-8.69241e-07
-2.5057e-06
-1.57772e-06
-8.94185e-07
-2.82795e-06
-9.69269e-07
-9.67907e-07
-4.01125e-06
-1.00042e-06
-4.21456e-06
-2.05341e-06
-8.80582e-07
-1.88615e-06
-2.6758e-06
-1.61201e-06
-3.00784e-06
-1.0017e-06
-4.21417e-06
-4.42659e-06
-2.62286e-06
-2.62253e-06
2.92359e-06
-2.361e-06
-2.74189e-06
7.14247e-07
-1.9621e-06
-2.78419e-06
3.34992e-07
-1.12202e-06
-2.88155e-06
-1.1055e-06
-2.92197e-06
-1.32119e-06
-2.74226e-06
-2.3601e-06
7.14544e-07
-2.48945e-06
-2.48846e-06
-1.6304e-06
-2.08032e-06
-2.53295e-06
-2.0689e-06
-1.21862e-06
-2.63903e-06
-3.61065e-06
-2.68325e-06
-3.87072e-06
-2.78448e-06
-1.96054e-06
3.35248e-07
-2.53386e-06
-2.07863e-06
-2.06881e-06
-2.12213e-06
-2.12052e-06
-2.52908e-06
-1.25223e-06
-2.22351e-06
-4.11388e-06
-2.26853e-06
-4.39081e-06
-2.88186e-06
-1.12e-06
-1.10436e-06
-2.64002e-06
-1.21643e-06
-3.60967e-06
-2.22522e-06
-1.25011e-06
-4.11309e-06
-1.34266e-06
-1.3404e-06
-5.77684e-06
-1.38184e-06
-6.08869e-06
-2.92214e-06
-1.32012e-06
-2.6841e-06
-3.86958e-06
-2.2701e-06
-4.38987e-06
-1.38399e-06
-6.08835e-06
-6.41656e-06
-3.51509e-06
-3.51494e-06
4.03734e-06
-3.17186e-06
-3.74391e-06
9.81675e-07
-2.61877e-06
-3.81599e-06
4.07327e-07
-1.46858e-06
-3.99847e-06
-1.58489e-06
-4.06384e-06
-1.9127e-06
-3.74414e-06
-3.17114e-06
9.8205e-07
-3.41078e-06
-3.40988e-06
-2.2977e-06
-2.83585e-06
-3.48593e-06
-2.97381e-06
-1.63151e-06
-3.67847e-06
-5.13491e-06
-3.74997e-06
-5.53841e-06
-3.81604e-06
-2.61731e-06
4.07464e-07
-3.48667e-06
-2.83416e-06
-2.97383e-06
-2.90506e-06
-2.90352e-06
-3.69301e-06
-1.68468e-06
-3.08859e-06
-5.92405e-06
-3.15893e-06
-6.36009e-06
-3.9986e-06
-1.46663e-06
-1.58353e-06
-3.67935e-06
-1.62927e-06
-5.13373e-06
-3.09033e-06
-1.68254e-06
-5.923e-06
-1.8331e-06
-1.83072e-06
-8.29186e-06
-1.89108e-06
-8.7857e-06
-4.06368e-06
-1.91174e-06
-3.75058e-06
-5.53725e-06
-3.16041e-06
-6.35909e-06
-1.89327e-06
-8.78544e-06
-9.3039e-06
-5.13139e-06
-5.13077e-06
5.72324e-06
-4.64982e-06
-5.40785e-06
1.41674e-06
-3.82739e-06
-5.52551e-06
5.25709e-07
-2.1342e-06
-5.73888e-06
-2.27719e-06
-5.83543e-06
-2.78912e-06
-5.40857e-06
-4.64846e-06
1.41719e-06
-4.95151e-06
-4.94992e-06
-3.21259e-06
-4.09345e-06
-5.07295e-06
-4.28434e-06
-2.33899e-06
-5.30612e-06
-7.32202e-06
-5.4097e-06
-7.96162e-06
-5.52602e-06
-3.825e-06
5.25599e-07
-5.07435e-06
-4.09074e-06
-4.28459e-06
-4.20343e-06
-4.20092e-06
-5.43589e-06
-2.4188e-06
-4.41465e-06
-8.60007e-06
-4.51568e-06
-9.29809e-06
-5.73945e-06
-2.13104e-06
-2.27572e-06
-5.30769e-06
-2.33542e-06
-7.3207e-06
-4.41742e-06
-2.41538e-06
-8.59872e-06
-2.59771e-06
-2.59394e-06
-1.19322e-05
-2.68037e-06
-1.27244e-05
-5.83563e-06
-2.78864e-06
-5.41095e-06
-7.96069e-06
-4.5181e-06
-9.29722e-06
-2.68387e-06
-1.27244e-05
-1.35772e-05
-6.91406e-06
-6.91384e-06
8.09358e-06
-6.32321e-06
-7.46872e-06
2.15153e-06
-5.18791e-06
-7.67958e-06
7.68181e-07
-2.86368e-06
-8.11058e-06
-3.11166e-06
-8.28197e-06
-3.92001e-06
-7.46916e-06
-6.32235e-06
2.15205e-06
-6.91674e-06
-6.91547e-06
-4.31816e-06
-5.71508e-06
-7.13981e-06
-6.02566e-06
-3.2393e-06
-7.60364e-06
-1.03046e-05
-7.79262e-06
-1.13472e-05
-7.6796e-06
-5.18601e-06
7.67667e-07
-7.1407e-06
-5.71264e-06
-6.02622e-06
-5.90748e-06
-5.90537e-06
-7.90346e-06
-3.37661e-06
-6.34611e-06
-1.23884e-05
-6.51259e-06
-1.35671e-05
-8.11081e-06
-2.86112e-06
-3.11001e-06
-7.60487e-06
-3.23606e-06
-1.03031e-05
-6.34868e-06
-3.37362e-06
-1.23866e-05
-3.7031e-06
-3.69955e-06
-1.72242e-05
-3.82342e-06
-1.85635e-05
-8.28148e-06
-3.92024e-06
-7.79321e-06
-1.13466e-05
-6.51458e-06
-1.35665e-05
-3.82654e-06
-1.85639e-05
-1.99823e-05
-1.01401e-05
-1.01393e-05
1.17404e-05
-9.36538e-06
-1.08271e-05
3.41408e-06
-7.68519e-06
-1.12002e-05
1.22478e-06
-4.25504e-06
-1.17063e-05
-4.23607e-06
-1.19824e-05
-5.52954e-06
-1.08281e-05
-9.36373e-06
3.41458e-06
-1.01363e-05
-1.01341e-05
-5.70287e-06
-8.34192e-06
-1.05374e-05
-8.48271e-06
-4.73586e-06
-1.11008e-05
-1.4516e-05
-1.13955e-05
-1.62332e-05
-1.12007e-05
-7.682e-06
1.2235e-06
-1.05392e-05
-8.33793e-06
-8.4838e-06
-8.69882e-06
-8.69535e-06
-1.15858e-05
-4.97213e-06
-9.17169e-06
-1.80441e-05
-9.46978e-06
-1.99778e-05
-1.17069e-05
-4.25063e-06
-4.23466e-06
-1.1103e-05
-4.73039e-06
-1.45145e-05
-9.17582e-06
-4.96705e-06
-1.80419e-05
-5.36389e-06
-5.35797e-06
-2.48498e-05
-5.59848e-06
-2.71126e-05
-1.19821e-05
-5.53155e-06
-1.13968e-05
-1.62337e-05
-9.47303e-06
-1.9978e-05
-5.60376e-06
-2.71138e-05
-2.96563e-05
-1.38454e-05
-1.38456e-05
1.72176e-05
-1.30488e-05
-1.52335e-05
5.77781e-06
-1.07347e-05
-1.59644e-05
2.32453e-06
-5.95204e-06
-1.7054e-05
-5.26647e-06
-1.76158e-05
-7.36819e-06
-1.52338e-05
-1.30486e-05
5.77826e-06
-1.46439e-05
-1.46429e-05
-6.88333e-06
-1.21499e-05
-1.54819e-05
-1.14591e-05
-6.93393e-06
-1.67692e-05
-2.00167e-05
-1.74664e-05
-2.29171e-05
-1.59637e-05
-1.07333e-05
2.3223e-06
-1.54821e-05
-1.21474e-05
-1.14608e-05
-1.28691e-05
-1.28673e-05
-1.68134e-05
-7.47868e-06
-1.41896e-05
-2.60141e-05
-1.48345e-05
-2.96196e-05
-1.70539e-05
-5.94989e-06
-5.2652e-06
-1.67701e-05
-6.93034e-06
-2.00153e-05
-1.41923e-05
-7.47576e-06
-2.60112e-05
-8.46577e-06
-8.46175e-06
-3.63041e-05
-8.9929e-06
-4.06744e-05
-1.76141e-05
-7.37213e-06
-1.74659e-05
-2.29188e-05
-1.48359e-05
-2.96209e-05
-8.99579e-06
-4.06774e-05
-4.59577e-05
-2.02655e-05
-2.02652e-05
2.57575e-05
-1.9526e-05
-2.22324e-05
1.01127e-05
-1.61857e-05
-2.36799e-05
4.66237e-06
-9.07153e-06
-2.51791e-05
-5.9823e-06
-2.62299e-05
-9.36243e-06
-2.22333e-05
-1.9525e-05
1.01129e-05
-2.19146e-05
-2.19123e-05
-7.52206e-06
-1.83069e-05
-2.38409e-05
-1.49057e-05
-1.06708e-05
-2.58188e-05
-2.70131e-05
-2.73004e-05
-3.20046e-05
-2.36795e-05
-1.61828e-05
4.65838e-06
-2.38419e-05
-1.83022e-05
-1.49085e-05
-2.05773e-05
-2.05728e-05
-2.33459e-05
-1.2421e-05
-2.2923e-05
-3.70662e-05
-2.52386e-05
-4.34769e-05
-2.51792e-05
-9.06696e-06
-5.9819e-06
-2.58207e-05
-1.06639e-05
-2.7012e-05
-2.29281e-05
-1.2414e-05
-3.70625e-05
-1.45721e-05
-1.45634e-05
-5.30196e-05
-1.67452e-05
-6.26834e-05
-2.62275e-05
-9.37159e-06
-2.73011e-05
-3.20095e-05
-2.52426e-05
-4.34813e-05
-1.67535e-05
-6.26912e-05
-7.68994e-05
-2.78125e-05
-2.78145e-05
3.84504e-05
-2.7839e-05
-3.17281e-05
1.83124e-05
-2.36214e-05
-3.48562e-05
1.02125e-05
-1.38245e-05
-3.80838e-05
-4.51299e-06
-4.09754e-05
-1.01049e-05
-3.17271e-05
-2.78409e-05
1.83117e-05
-3.30226e-05
-3.30235e-05
-4.93113e-06
-2.93764e-05
-3.68659e-05
-1.65421e-05
-1.78962e-05
-4.3415e-05
-3.31622e-05
-4.89096e-05
-4.15252e-05
-3.48536e-05
-2.36225e-05
1.02069e-05
-3.68642e-05
-2.93754e-05
-1.6546e-05
-3.31621e-05
-3.31626e-05
-3.07513e-05
-2.17229e-05
-4.12356e-05
-5.06847e-05
-4.40573e-05
-6.94641e-05
-3.80823e-05
-1.38241e-05
-4.51455e-06
-4.34129e-05
-1.78946e-05
-3.31621e-05
-4.1237e-05
-2.17231e-05
-5.06779e-05
-2.51991e-05
-2.51962e-05
-8.5097e-05
-2.62813e-05
-0.000104546
-4.09703e-05
-1.01178e-05
-4.89062e-05
-4.15332e-05
-4.40554e-05
-6.9475e-05
-2.62824e-05
-0.000104556
-0.000127002
-3.78049e-05
-3.78064e-05
5.34284e-05
-3.92954e-05
-4.46824e-05
3.12927e-05
-3.43152e-05
-5.00529e-05
1.95102e-05
-2.1038e-05
-5.55099e-05
1.29473e-08
-6.23601e-05
-8.49597e-06
-4.46824e-05
-3.92957e-05
3.12901e-05
-4.7576e-05
-4.75748e-05
8.54924e-07
-4.2901e-05
-5.49629e-05
-1.63071e-05
-2.69577e-05
-6.50704e-05
-3.95448e-05
-6.80725e-05
-6.21507e-05
-5.00506e-05
-3.43145e-05
1.95032e-05
-5.49646e-05
-4.28948e-05
-1.63119e-05
-5.05134e-05
-5.05114e-05
-3.9654e-05
-2.93253e-05
-5.26838e-05
-8.42594e-05
-5.58949e-05
-0.000110241
-5.55075e-05
-2.10361e-05
9.39425e-09
-6.50711e-05
-2.69464e-05
-3.95468e-05
-5.26909e-05
-2.93169e-05
-8.42526e-05
-3.20237e-05
-3.20095e-05
-0.000126438
-3.43524e-05
-0.000156892
-6.23562e-05
-8.51796e-06
-6.80678e-05
-6.21721e-05
-5.58951e-05
-0.00011026
-3.43625e-05
-0.000156905
-0.000192999
-5.13406e-05
-5.13479e-05
7.50804e-05
-5.25068e-05
-5.92151e-05
4.7178e-05
-4.48389e-05
-6.95995e-05
3.20146e-05
-2.69572e-05
-7.80133e-05
7.47884e-06
-8.51184e-05
-6.93113e-06
-5.92095e-05
-5.25111e-05
4.71684e-05
-6.51624e-05
-6.51655e-05
1.27583e-05
-5.88745e-05
-7.80526e-05
-1.41418e-05
-3.51081e-05
-8.37234e-05
-5.7601e-05
-9.2237e-05
-8.98046e-05
-6.95931e-05
-4.48509e-05
3.20134e-05
-7.80504e-05
-5.88706e-05
-1.41494e-05
-6.38989e-05
-6.39037e-05
-6.79544e-05
-4.04654e-05
-7.04515e-05
-0.000120965
-7.89323e-05
-0.000163553
-7.80083e-05
-2.69651e-05
7.46963e-06
-8.37168e-05
-3.51012e-05
-5.76077e-05
-7.04477e-05
-4.04666e-05
-0.000120959
-4.63637e-05
-4.63635e-05
-0.00017461
-5.3269e-05
-0.000227744
-8.51108e-05
-6.95748e-06
-9.22247e-05
-8.98264e-05
-7.89256e-05
-0.000163571
-5.32675e-05
-0.00022776
-0.000296883
-7.29076e-05
-7.29109e-05
0.000107563
-7.29572e-05
-8.16792e-05
6.7265e-05
-6.02107e-05
-9.46901e-05
4.49325e-05
-3.63291e-05
-0.000106262
1.54566e-05
-0.00011775
-6.41379e-06
-8.16793e-05
-7.29616e-05
6.72567e-05
-8.79698e-05
-8.79668e-05
2.53364e-05
-7.67024e-05
-0.000105493
-1.46066e-05
-4.80113e-05
-0.00011792
-7.46343e-05
-0.000131998
-0.000122904
-9.46812e-05
-6.02109e-05
4.49239e-05
-0.000105491
-7.66922e-05
-1.46139e-05
-9.07075e-05
-9.07067e-05
-9.75241e-05
-5.81603e-05
-0.000102543
-0.000168888
-0.000116639
-0.000236283
-0.000106259
-3.63236e-05
1.54415e-05
-0.000117922
-4.79917e-05
-7.46453e-05
-0.000102556
-5.81465e-05
-0.000168885
-6.84166e-05
-6.83899e-05
-0.000242903
-7.76476e-05
-0.00033362
-0.000117733
-6.45282e-06
-0.000131994
-0.000122929
-0.000116636
-0.000236315
-7.7669e-05
-0.000333633
-0.000448729
-0.000103453
-0.000103469
0.000162263
-0.000110011
-0.000117251
0.000108465
-9.41526e-05
-0.000139363
7.23727e-05
-5.72686e-05
-0.000150856
2.87437e-05
-0.000175445
-2.17933e-06
-0.000117236
-0.000110032
0.000108454
-0.00012957
-0.00012959
5.00094e-05
-0.000112086
-0.000161427
-1.00264e-05
-7.51461e-05
-0.000183548
-7.88825e-05
-0.000219684
-0.000153467
-0.000139347
-9.41749e-05
7.23581e-05
-0.000161409
-0.000112105
-1.00362e-05
-0.00014664
-0.000146658
-0.000127061
-0.000102989
-0.00017069
-0.000225397
-0.00021261
-0.000345934
-0.000150836
-5.72917e-05
2.87206e-05
-0.000183526
-7.51621e-05
-7.88986e-05
-0.00017067
-0.000103001
-0.000225398
-0.000124272
-0.000124282
-0.00033571
-0.000158904
-0.000509988
-0.000175427
-2.22912e-06
-0.000219663
-0.000153498
-0.000212594
-0.000345971
-0.000158898
-0.000510005
-0.000763201
-0.000137188
-0.000137199
0.000234554
-0.000148353
-0.000160164
0.000168373
-0.000129358
-0.000197627
0.000117784
-8.11236e-05
-0.000221493
5.8809e-05
-0.000263413
1.32679e-05
-0.000160159
-0.000148358
0.000168356
-0.000182952
-0.00018295
9.55892e-05
-0.000164612
-0.000237295
1.13018e-05
-0.000114269
-0.00027773
-7.29888e-05
-0.000339538
-0.00019088
-0.000197609
-0.000129362
0.000117766
-0.000237293
-0.000164602
1.12995e-05
-0.000221782
-0.000221793
-0.000158075
-0.000157338
-0.00026823
-0.000299341
-0.000340347
-0.000501562
-0.000221487
-8.11135e-05
5.87712e-05
-0.000277729
-0.000114239
-7.30196e-05
-0.000268249
-0.000157318
-0.000299354
-0.000203139
-0.000203092
-0.000465958
-0.000260549
-0.000790916
-0.000263388
1.32239e-05
-0.000339533
-0.000190915
-0.000340329
-0.000501618
-0.000260596
-0.000790911
-0.00127949
-0.000186171
-0.000186207
0.000347094
-0.000217987
-0.000221522
0.000281276
-0.000201076
-0.000298738
0.000218645
-0.000140028
-0.000335912
0.000142648
-0.00042787
6.61999e-05
-0.000221484
-0.000218031
0.000281256
-0.000276328
-0.000276373
0.000205285
-0.000254882
-0.000383862
7.49798e-05
-0.000187014
-0.000459971
-1.67978e-05
-0.000624958
-0.000180553
-0.000298706
-0.000201133
0.00021863
-0.00038382
-0.000254941
7.49803e-05
-0.000390125
-0.000390179
-0.000145452
-0.000311367
-0.000494866
-0.000343204
-0.000735954
-0.000701612
-0.000335862
-0.000140084
0.000142591
-0.000459915
-0.000187072
-1.68348e-05
-0.000494806
-0.000311414
-0.000343227
-0.000419385
-0.00041942
-0.000616825
-0.00067918
-0.0012647
-0.000427835
6.61286e-05
-0.000624919
-0.000180585
-0.000735909
-0.000701695
-0.000679165
-0.00126467
-0.00263301
-0.000235133
-0.000235156
0.000488234
-0.000274253
-0.00028633
0.000426348
-0.000258899
-0.000402351
0.00036403
-0.00018341
-0.000471968
0.000281014
-0.000639792
0.000182239
-0.000286314
-0.000274254
0.000426308
-0.000363232
-0.000363238
0.00035911
-0.000358505
-0.000546014
0.000213915
-0.000284715
-0.000680887
0.000118331
-0.000977607
-0.00012679
-0.000402324
-0.000258901
0.000364017
-0.000546013
-0.000358493
0.000213924
-0.000579962
-0.000579995
-7.75223e-05
-0.000482434
-0.000781529
-0.000340089
-0.00119865
-0.000961995
-0.000471956
-0.000183401
0.000280941
-0.000680873
-0.00028467
0.000118258
-0.00078158
-0.000482391
-0.000340124
-0.000735054
-0.000734943
-0.000709938
-0.00113684
-0.00205929
-0.000639744
0.000182198
-0.000977589
-0.000126828
-0.00119858
-0.000962068
-0.00113698
-0.00205913
-0.00490069
-0.000290597
-0.000290678
0.000684912
-0.000358676
-0.00035616
0.000646716
-0.000353726
-0.000556755
0.000615604
-0.000266841
-0.000676584
0.000550478
-0.00101756
0.000472218
-0.000356067
-0.000358769
0.000646665
-0.000488704
-0.000488808
0.000624397
-0.000516958
-0.000825254
0.000510667
-0.000451432
-0.0010958
0.000472021
-0.00179206
0.000196342
-0.000556686
-0.000353839
0.000615596
-0.000825165
-0.000517094
0.000510689
-0.000993519
-0.000993662
0.000259239
-0.000907646
-0.0014649
-5.68623e-05
-0.00292394
-0.000737314
-0.000676483
-0.000266927
0.00055036
-0.00109569
-0.000451551
0.000471921
-0.00146475
-0.000907792
-5.69288e-05
-0.00157569
-0.00157563
-0.000488272
-0.00335401
-0.000699006
-0.000657127
-0.000853588
-0.000990956
-0.00101754
0.000472191
-0.00179201
0.000196396
-0.00292377
-0.000737541
-0.00335402
-0.000698959
-0.000853514
-0.000656973
-0.000990704
-0.00219301
-0.00277331
-0.00277267
-0.00385772
-0.000322685
-0.000322715
0.000882652
-0.000393579
-0.000405826
0.000889917
-0.000404177
-0.000679008
0.000938789
-0.000324769
-0.00084418
0.000938073
-0.00144762
0.000985772
-0.00040579
-0.000393566
0.000889831
-0.000556617
-0.000556647
0.000926045
-0.000632927
-0.00103228
0.000940252
-0.000608763
-0.0013807
0.000984377
-0.00281255
0.00095296
-0.000678985
-0.00040415
0.000938778
-0.00103231
-0.00063291
0.000940274
-0.00139896
-0.00139896
0.000992577
-0.00148577
-0.0023066
0.000955842
-0.00143204
0.000945394
-0.00140235
-0.0014963
-0.00164892
-0.000844161
-0.000324716
0.000937899
-0.00138064
-0.000608724
0.000984217
-0.00230669
-0.00148563
0.000955783
-0.000712171
-0.000712146
0.000197354
0.000340093
0.000340108
0.000270474
-0.000727684
-0.000680278
-0.0010048
-0.000727635
-0.000680299
-0.00100457
-0.00052101
-0.00169894
-0.000623264
-0.00144758
0.000985801
-0.00281249
0.0009529
-0.001432
0.000945334
-0.00140225
-0.00149632
-0.00164879
-0.00169891
-0.000520968
-0.00062323
-0.00134279
-0.00134283
0.00163638
0.00163638
-0.000726056
-0.000690106
-0.000682063
-0.00068193
-0.000305579
-0.000305726
0.00107418
-0.000388295
-0.000381769
0.00115176
-0.000411965
-0.000686038
0.00128931
-0.000328364
-0.000894707
0.00139993
-0.00155162
0.00157739
-0.000381606
-0.000388479
0.00115169
-0.000553182
-0.000553387
0.00126924
-0.000648622
-0.0011158
0.00146545
-0.000647121
-0.0015384
0.00162657
-0.00311431
0.00186799
-0.000685909
-0.000412187
0.00128933
-0.0011156
-0.000648868
0.00146545
-0.00157079
-0.00157125
0.00190322
-0.00157638
-0.000749022
0.00241214
-0.000916417
-0.000601969
-0.000721698
-0.00172629
0.00323576
-0.00215592
-0.00139132
-0.00170622
-0.000894548
-0.000328624
0.00139978
-0.00153818
-0.000647398
0.00162638
-0.000748921
-0.00157706
0.00241196
-0.000916319
-0.000601789
-0.000721526
-0.000898561
-0.000898235
0.000496207
-0.000813529
-0.00267296
0.000595048
0.000941864
0.000223283
-0.00155171
0.00157768
-0.00311378
0.00186781
-0.00172652
0.00323612
-0.00215637
-0.00139102
-0.00170607
-0.00267077
-0.000813908
0.000593973
0.000940721
0.000223467
0.000904617
0.000904141
0.000453203
-0.00103889
-0.00103881
-0.000184262
-0.000250573
-0.000250627
0.0011661
-0.000271245
-0.000303054
0.0012832
-0.000268049
-0.000496221
0.00146345
-0.00019617
-0.000588689
0.00159754
-0.000988602
0.00182131
-0.000302956
-0.000271233
0.00128307
-0.000389234
-0.000389343
0.00144181
-0.000443587
-0.00066791
0.00169149
-0.000445034
-0.000829983
0.00186931
-0.00170232
0.00213687
-0.000496205
-0.000267925
0.00146338
-0.00066802
-0.000443643
0.00169156
-0.000851258
-0.000851174
0.00226972
-0.000882405
-0.0010825
0.0026958
-0.00101027
0.00373406
-0.00135736
-0.000267239
-0.000449885
-0.000588604
-0.000195928
0.00159716
-0.000830003
-0.000445026
0.00186916
-0.00108288
-0.000881763
0.00269543
-0.000458892
-0.000458333
0.00322533
-0.000314344
-0.000207512
0.000315267
-0.000313404
-0.000207716
0.0003156
-0.000787154
-0.000926561
-0.000926429
-0.00142124
-0.000383142
-0.000964974
0.00103634
-0.00115739
-0.000988518
0.00182125
-0.00170225
0.00213679
-0.00101007
0.00373394
-0.00135799
-0.000266817
-0.000449835
-0.000964138
-0.000383028
0.00103529
-0.00115653
0.000340993
0.000340627
-7.53225e-05
-0.000224202
-0.000224629
-0.000157466
-0.000116226
-0.000116401
0.00116519
-9.3733e-05
-0.000101232
0.0012917
-6.28076e-05
-0.000153104
0.00143487
1.0778e-05
-0.000118993
0.00154591
-0.000193828
0.00168923
-0.000100995
-9.39839e-05
0.00129161
-0.000112145
-0.000112509
0.00146423
-0.000155879
-0.000101926
0.00168405
-0.000221129
-4.85095e-05
0.00186407
-0.000432771
0.00215241
-0.000152985
-6.30493e-05
0.00143476
-0.000101614
-0.000156442
0.00168413
6.60665e-07
2.83948e-07
0.00206524
9.75777e-05
0.000146146
0.00240422
0.000652344
0.00274618
-0.000118874
1.03746e-05
0.0015457
-4.84058e-05
-0.000221868
0.00186412
0.000146551
9.68778e-05
0.00240388
0.000730615
0.000730734
0.000540367
0.000523044
0.000523074
0.000470197
0.00152593
-0.00050121
0.00108161
0.00117297
0.000571294
-0.000240868
-0.000330131
-5.66265e-05
0.00238023
-0.0007323
-0.00127429
-0.00221486
-0.000194015
0.001689
-0.00043284
0.00215268
0.000652751
0.00274594
0.00152624
-0.000501169
0.0010824
0.00117356
0.000571733
-0.000239944
-5.78794e-05
-0.000329917
0.00237902
-0.00127392
-0.000732249
-0.00221454
0.00135135
0.00135051
-0.00716139
0.00109999
0.00181726
0.001817
0.00277745
-7.20671e-05
-7.22591e-05
0.00108068
-5.40485e-06
-7.69048e-05
0.0012227
3.13192e-05
-0.00010187
0.00133213
6.38997e-05
-0.000113304
0.00147336
-0.000219186
0.00159791
-7.67274e-05
-5.57494e-06
0.00122265
-6.09552e-05
-6.10944e-05
0.00143265
-0.00011728
-1.35274e-05
0.00165203
-0.000153592
-0.000115667
0.00190275
-0.000458545
0.00223652
-0.000101656
3.12111e-05
0.00133201
-1.33011e-05
-0.000117292
0.00165197
2.35563e-05
2.33554e-05
0.0019915
1.56592e-05
-4.7067e-05
0.00241643
-5.02038e-05
-1.09893e-05
-1.1722e-05
3.30589e-05
0.00287601
-0.000214776
-0.000157579
-0.000235558
-0.000113147
6.38365e-05
0.00147324
-0.000115642
-0.000153402
0.00190273
-4.72469e-05
1.57037e-05
0.00241657
-5.03561e-05
-1.1173e-05
-1.19043e-05
-5.36497e-05
-5.32979e-05
0.000553
3.25406e-05
-7.18359e-05
-0.000411378
-1.74776e-05
-0.000218905
0.00159761
-0.000457914
0.00223633
3.31493e-05
0.00287574
-0.00021481
-0.000157669
-0.000235668
-7.21152e-05
3.32107e-05
-0.000411065
-1.805e-05
0.00151939
-7.42886e-05
-7.41358e-05
3.23563e-05
3.24763e-05
-0.0014358
5.75014e-05
5.7236e-05
0.00094282
0.00012231
0.000185088
0.00108121
0.000133959
0.000263537
0.00115673
0.000133659
0.000449479
0.00129451
0.00057796
0.00137319
0.000185295
0.000122049
0.0010812
0.000272908
0.00027263
0.00125749
0.00030066
0.00044384
0.00144397
0.000193608
0.000839617
0.00161966
0.00112494
0.00188008
0.000263684
0.000133688
0.00115665
0.000444115
0.000300258
0.00144391
0.000584436
0.000584117
0.0017109
0.000537658
0.00022723
0.00213476
8.37599e-05
0.000452899
0.000404179
0.00034593
0.0024659
0.000184466
0.000773773
0.000765533
0.000449686
0.000133292
0.00129451
0.000839906
0.000193105
0.00161966
0.000227346
0.000537235
0.00213493
8.38368e-05
0.000452988
0.000404255
0.000178622
0.000178489
0.000709661
-0.000612196
1.16878e-05
0.000250729
-0.000105398
0.000132302
-9.25411e-06
-8.35791e-05
6.91388e-05
8.03026e-05
0.000577947
0.00137291
0.00112512
0.00187985
0.000345983
0.00246574
0.000184535
0.000773837
0.00076558
1.13032e-05
0.000250776
-0.000105144
0.000132259
-9.20994e-06
-8.3537e-05
6.91848e-05
8.03517e-05
0.000683993
0.000153723
0.000153675
-0.000280317
-0.000280368
-0.000430705
0.000112869
0.000112612
0.00074944
0.000228099
0.000232069
0.000856203
0.000262433
0.000388548
0.000876191
0.000248091
0.000612604
0.000964628
0.000874783
0.000967708
0.000232325
0.000227853
0.000856231
0.000371221
0.000371023
0.000979644
0.000393475
0.00074278
0.00106749
0.000280384
0.00119122
0.00115414
0.00176399
0.00126901
0.000388815
0.000262207
0.00087613
0.000742998
0.000393314
0.00106743
0.00102692
0.00102672
0.00114304
0.000991105
0.00201776
0.00134403
0.000890716
0.00130737
0.000838814
0.00100228
0.00117578
0.0006129
0.000247885
0.00096465
0.00119144
0.000280272
0.00115417
0.00201803
0.000990941
0.00134412
0.000502036
0.00050192
0.0012215
0.000795179
0.000504582
0.00106249
0.000795113
0.000504488
0.00106241
-0.000605984
-0.000667056
-0.000667083
-0.000973806
0.000353013
0.00139831
-0.000196691
-0.000161877
0.000875004
0.000967461
0.00176412
0.00126894
0.00089073
0.00130721
0.000838818
0.00100228
0.00117574
0.00139836
0.000352875
-0.000196644
-0.000161942
0.000472084
-0.000427234
-0.000427253
0.000522461
0.000522422
-0.00066248
0.000177062
0.000176858
0.000582412
0.000262999
0.00036834
0.000650446
0.000285951
0.000560462
0.00062556
0.00023557
0.000875584
0.000666958
0.00121751
0.000614715
0.000368568
0.000262776
0.000650499
0.000507516
0.00050729
0.000701746
0.000559637
0.000876389
0.000699441
0.000414029
0.00146651
0.000708828
0.00221268
0.000684008
0.000560665
0.000285704
0.000625532
0.000876616
0.000559392
0.000699382
0.00113259
0.00113235
0.000631106
0.00102211
0.00227911
0.000641905
0.00425324
0.000282317
0.000875769
0.000235281
0.000667064
0.00146674
0.000413717
0.000708872
0.00227939
0.00102182
0.000642
0.00275753
0.00275722
0.000265244
0.00671289
-0.00282194
0.000473247
0.00039529
0.000719701