/*--------------------------------*- C++ -*----------------------------------*\
| =========                 |                                                 |
| \\      /  F ield         | OpenFOAM: The Open Source CFD Toolbox           |
|  \\    /   O peration     | Version:  5.x                                   |
|   \\  /    A nd           | Web:      www.OpenFOAM.org                      |
|    \\/     M anipulation  |                                                 |
\*---------------------------------------------------------------------------*/
FoamFile
{
    version     2.0;
    format      ascii;
    class       volVectorField;
    location    "0.084";
    object      U;
}
// * * * * * * * * * * * * * * * * * * * * * * * * * * * * * * * * * * * * * //

dimensions      [0 1 -1 0 0 0 0];

internalField   nonuniform List<vector> 
1560
(
(-4.44427e-05 -4.45883e-05 0.0424761)
(-4.60583e-05 -5.12598e-05 0.0424554)
(-3.2537e-05 -5.37024e-05 0.0424628)
(-3.27004e-05 -5.66388e-05 0.0424504)
(-1.15191e-05 -5.79529e-05 0.0424546)
(-5.11142e-05 -4.6182e-05 0.0424554)
(-5.48758e-05 -5.49992e-05 0.0424154)
(-3.77624e-05 -5.84025e-05 0.0424155)
(-3.68362e-05 -6.2258e-05 0.0424022)
(-1.43287e-05 -6.40301e-05 0.0424056)
(-5.35565e-05 -3.26258e-05 0.0424627)
(-5.82788e-05 -3.78502e-05 0.0424155)
(-3.97977e-05 -3.98855e-05 0.0424118)
(-3.83285e-05 -4.26822e-05 0.042398)
(-1.53592e-05 -4.39925e-05 0.0424011)
(-5.64923e-05 -3.2772e-05 0.0424503)
(-6.21337e-05 -3.69075e-05 0.0424022)
(-4.25944e-05 -3.83995e-05 0.042398)
(-4.09432e-05 -4.10148e-05 0.0423843)
(-1.74095e-05 -4.22274e-05 0.0423875)
(-5.78068e-05 -1.15785e-05 0.0424545)
(-6.39058e-05 -1.43861e-05 0.0424056)
(-4.39049e-05 -1.54157e-05 0.0424011)
(-4.21564e-05 -1.74646e-05 0.0423875)
(-1.8413e-05 -1.84677e-05 0.042391)
(-1.6292e-05 -1.62442e-05 -0.0243976)
(-2.3373e-05 -8.90789e-06 -0.0243959)
(-2.11593e-05 -6.66744e-06 -0.0243984)
(-2.11251e-05 -4.56042e-06 -0.0243986)
(-1.50983e-05 -3.84255e-06 -0.0244005)
(-8.95567e-06 -2.3301e-05 -0.0243958)
(-1.41505e-05 -1.40797e-05 -0.0243906)
(-1.69783e-05 -1.10571e-05 -0.0243918)
(-1.84125e-05 -8.5214e-06 -0.0243911)
(-1.40137e-05 -7.67723e-06 -0.0243926)
(-6.71643e-06 -2.11003e-05 -0.0243983)
(-1.11291e-05 -1.69212e-05 -0.0243918)
(-1.56064e-05 -1.55498e-05 -0.0243923)
(-1.7749e-05 -1.44391e-05 -0.0243913)
(-1.38912e-05 -1.4246e-05 -0.0243927)
(-4.61009e-06 -2.10682e-05 -0.0243985)
(-8.59452e-06 -1.83565e-05 -0.024391)
(-1.44962e-05 -1.76928e-05 -0.0243913)
(-1.71089e-05 -1.70518e-05 -0.0243902)
(-1.39409e-05 -1.71589e-05 -0.0243915)
(-3.8924e-06 -1.50385e-05 -0.0244004)
(-7.74993e-06 -1.39548e-05 -0.0243926)
(-1.43017e-05 -1.38347e-05 -0.0243926)
(-1.72152e-05 -1.38842e-05 -0.0243915)
(-1.43354e-05 -1.42804e-05 -0.0243929)
(-4.39388e-05 -4.40385e-05 0.0327285)
(-4.82286e-05 -4.69474e-05 0.0327048)
(-3.62926e-05 -4.79168e-05 0.0327046)
(-3.56837e-05 -4.99957e-05 0.032689)
(-1.36559e-05 -5.09266e-05 0.0326893)
(-4.68476e-05 -4.83049e-05 0.0327047)
(-5.19961e-05 -5.20719e-05 0.0326751)
(-3.92618e-05 -5.33745e-05 0.0326729)
(-3.86194e-05 -5.60948e-05 0.0326554)
(-1.59317e-05 -5.73488e-05 0.0326548)
(-4.78166e-05 -3.6351e-05 0.0327045)
(-5.32983e-05 -3.93197e-05 0.0326729)
(-4.03158e-05 -4.0374e-05 0.0326699)
(-3.96581e-05 -4.27405e-05 0.0326518)
(-1.67952e-05 -4.38815e-05 0.0326509)
(-4.98954e-05 -3.57312e-05 0.032689)
(-5.60187e-05 -3.86659e-05 0.0326553)
(-4.26827e-05 -3.97048e-05 0.0326517)
(-4.21269e-05 -4.21732e-05 0.0326326)
(-1.88964e-05 -4.33896e-05 0.0326313)
(-5.08255e-05 -1.36909e-05 0.0326893)
(-5.72718e-05 -1.59658e-05 0.0326548)
(-4.38231e-05 -1.68296e-05 0.0326509)
(-4.33429e-05 -1.893e-05 0.0326314)
(-2.001e-05 -2.00441e-05 0.03263)
(-4.09936e-05 -4.09931e-05 -0.0149991)
(-4.74023e-05 -3.97707e-05 -0.0150177)
(-3.69275e-05 -3.95282e-05 -0.015021)
(-3.63791e-05 -3.94205e-05 -0.0150336)
(-1.66728e-05 -3.95681e-05 -0.0150358)
(-3.97713e-05 -4.73669e-05 -0.0150176)
(-4.60134e-05 -4.59777e-05 -0.0150359)
(-3.66155e-05 -4.56839e-05 -0.0150392)
(-3.64465e-05 -4.57156e-05 -0.0150519)
(-1.72004e-05 -4.59739e-05 -0.0150543)
(-3.95285e-05 -3.68833e-05 -0.015021)
(-4.57192e-05 -3.65709e-05 -0.0150391)
(-3.66669e-05 -3.66232e-05 -0.0150423)
(-3.66706e-05 -3.71441e-05 -0.0150552)
(-1.75832e-05 -3.76193e-05 -0.0150576)
(-3.94205e-05 -3.63235e-05 -0.0150335)
(-4.57516e-05 -3.63902e-05 -0.0150519)
(-3.71887e-05 -3.66146e-05 -0.0150552)
(-3.74427e-05 -3.73855e-05 -0.0150686)
(-1.86171e-05 -3.80165e-05 -0.0150712)
(-3.95675e-05 -1.66072e-05 -0.0150357)
(-4.60088e-05 -1.71337e-05 -0.0150542)
(-3.76623e-05 -1.75176e-05 -0.0150576)
(-3.80726e-05 -1.85502e-05 -0.0150711)
(-1.93832e-05 -1.93177e-05 -0.0150738)
(-6.3351e-05 -6.34267e-05 0.0248727)
(-7.00339e-05 -6.61886e-05 0.0248346)
(-5.22201e-05 -6.70753e-05 0.0248301)
(-5.04886e-05 -6.94558e-05 0.0248048)
(-1.69802e-05 -7.05038e-05 0.0248024)
(-6.61129e-05 -7.00749e-05 0.0248346)
(-7.35845e-05 -7.36244e-05 0.0247933)
(-5.54069e-05 -7.47924e-05 0.0247879)
(-5.3837e-05 -7.79088e-05 0.0247606)
(-1.96299e-05 -7.93127e-05 0.0247575)
(-6.69985e-05 -5.22418e-05 0.0248301)
(-7.47514e-05 -5.54273e-05 0.0247879)
(-5.65039e-05 -5.65253e-05 0.0247822)
(-5.50083e-05 -5.94539e-05 0.0247543)
(-2.06579e-05 -6.08422e-05 0.024751)
(-6.93788e-05 -5.04955e-05 0.0248048)
(-7.78686e-05 -5.38418e-05 0.0247606)
(-5.94335e-05 -5.50139e-05 0.0247543)
(-5.81539e-05 -5.81578e-05 0.024725)
(-2.33796e-05 -5.96753e-05 0.024721)
(-7.04248e-05 -1.69703e-05 0.0248024)
(-7.92704e-05 -1.96178e-05 0.0247575)
(-6.08199e-05 -2.06465e-05 0.024751)
(-5.96697e-05 -2.33662e-05 0.024721)
(-2.48558e-05 -2.48443e-05 0.0247168)
(-8.10055e-05 -8.10249e-05 -0.00824239)
(-9.0146e-05 -8.28784e-05 -0.00828817)
(-6.66802e-05 -8.35857e-05 -0.00829501)
(-6.40584e-05 -8.54313e-05 -0.00832509)
(-2.08375e-05 -8.63545e-05 -0.0083291)
(-8.28591e-05 -9.01161e-05 -0.00828815)
(-9.26466e-05 -9.26152e-05 -0.00833571)
(-6.91799e-05 -9.35496e-05 -0.00834309)
(-6.67732e-05 -9.60783e-05 -0.0083748)
(-2.31352e-05 -9.73275e-05 -0.00837941)
(-8.35647e-05 -6.6627e-05 -0.00829497)
(-9.35795e-05 -6.91247e-05 -0.00834308)
(-7.0143e-05 -7.00894e-05 -0.00835063)
(-6.78361e-05 -7.26562e-05 -0.00838285)
(-2.41047e-05 -7.39744e-05 -0.00838766)
(-8.54099e-05 -6.39846e-05 -0.00832503)
(-9.61094e-05 -6.66965e-05 -0.00837475)
(-7.27114e-05 -6.77607e-05 -0.00838282)
(-7.06583e-05 -7.05804e-05 -0.00841654)
(-2.66952e-05 -7.2055e-05 -0.00842195)
(-8.63306e-05 -2.07421e-05 -0.00832902)
(-9.73558e-05 -2.30366e-05 -0.00837934)
(-7.40269e-05 -2.40074e-05 -0.00838761)
(-7.21304e-05 -2.6595e-05 -0.00842192)
(-2.81763e-05 -2.80782e-05 -0.00842758)
(-0.000111274 -0.000111333 0.019222)
(-0.00012256 -0.000116134 0.019151)
(-8.91714e-05 -0.000117612 0.0191407)
(-8.46405e-05 -0.000121719 0.0190939)
(-2.27371e-05 -0.000123382 0.0190882)
(-0.000116074 -0.000122568 0.019151)
(-0.000128661 -0.000128667 0.0190763)
(-9.46114e-05 -0.000130585 0.0190648)
(-9.02677e-05 -0.0001359 0.0190152)
(-2.68201e-05 -0.000138099 0.0190084)
(-0.000117549 -8.91484e-05 0.0191407)
(-0.000130577 -9.45849e-05 0.0190648)
(-9.64031e-05 -9.63793e-05 0.019053)
(-9.21531e-05 -0.000101326 0.0190025)
(-2.83716e-05 -0.000103509 0.0189953)
(-0.000121656 -8.45955e-05 0.019094)
(-0.000135894 -9.02172e-05 0.0190153)
(-0.000101353 -9.21049e-05 0.0190025)
(-9.73979e-05 -9.73452e-05 0.0189497)
(-3.26361e-05 -9.97192e-05 0.0189416)
(-0.000123313 -2.26622e-05 0.0190882)
(-0.000138088 -2.67396e-05 0.0190085)
(-0.000103531 -2.82926e-05 0.0189953)
(-9.97674e-05 -3.25526e-05 0.0189416)
(-3.48658e-05 -3.47856e-05 0.0189331)
(-0.000155588 -0.000155608 -0.00342991)
(-0.000171664 -0.000161049 -0.00352327)
(-0.000123694 -0.000162978 -0.00353784)
(-0.000116535 -0.000167607 -0.00359859)
(-2.87008e-05 -0.000169651 -0.00360666)
(-0.00016103 -0.000171617 -0.00352325)
(-0.000178805 -0.000178754 -0.00362172)
(-0.000130068 -0.000181235 -0.00363787)
(-0.000123032 -0.000187397 -0.00370279)
(-3.35223e-05 -0.000190078 -0.0037123)
(-0.000162954 -0.000123603 -0.0035378)
(-0.000181283 -0.000129972 -0.00363785)
(-0.000132334 -0.000132242 -0.00365456)
(-0.000125375 -0.000138006 -0.00372076)
(-3.53417e-05 -0.000140639 -0.00373076)
(-0.000167583 -0.000116414 -0.00359851)
(-0.000187448 -0.000122903 -0.00370273)
(-0.000138101 -0.00012525 -0.00372072)
(-0.000131429 -0.000131297 -0.00379044)
(-4.03868e-05 -0.000134131 -0.00380173)
(-0.000169619 -2.85367e-05 -0.00360655)
(-0.000190121 -3.33504e-05 -0.00371221)
(-0.000140728 -3.51725e-05 -0.00373069)
(-0.000134256 -4.0211e-05 -0.0038017)
(-4.29921e-05 -4.28213e-05 -0.00381351)
(-0.000209065 -0.000209106 0.015299)
(-0.000230396 -0.000219464 0.0151613)
(-0.00016455 -0.000222635 0.0151392)
(-0.000153553 -0.000231091 0.0150494)
(-3.27384e-05 -0.000234241 0.0150372)
(-0.000219422 -0.00023037 0.0151614)
(-0.000243512 -0.000243478 0.0150168)
(-0.000175846 -0.000247588 0.0149919)
(-0.000164846 -0.000258414 0.014897)
(-3.99082e-05 -0.00026255 0.0148826)
(-0.000222585 -0.000164468 0.0151393)
(-0.000247615 -0.000175755 0.014992)
(-0.000179481 -0.000179396 0.0149662)
(-0.000168511 -0.000189153 0.0148692)
(-4.25368e-05 -0.000193119 0.014854)
(-0.000231041 -0.000153442 0.0150495)
(-0.000258446 -0.00016472 0.0148971)
(-0.000189244 -0.000168391 0.0148692)
(-0.000178568 -0.000178437 0.0147681)
(-4.99109e-05 -0.000182627 0.0147511)
(-0.000234177 -3.25694e-05 0.0150373)
(-0.000262569 -3.97255e-05 0.0148827)
(-0.000193198 -4.23577e-05 0.0148541)
(-0.000182746 -4.97207e-05 0.0147511)
(-5.35384e-05 -5.33555e-05 0.0147334)
(-0.000300075 -0.000300076 -4.44188e-05)
(-0.000331714 -0.000312397 -0.000228193)
(-0.000235543 -0.000317146 -0.000260317)
(-0.00021847 -0.000327029 -0.000379168)
(-4.32557e-05 -0.000331353 -0.00039663)
(-0.000312396 -0.000331631 -0.000228163)
(-0.000348189 -0.000348096 -0.000424667)
(-0.000249704 -0.000354189 -0.000461229)
(-0.000232241 -0.000367488 -0.00059004)
(-5.25516e-05 -0.000373115 -0.000611071)
(-0.000317135 -0.00023538 -0.000260286)
(-0.000354272 -0.00024953 -0.000461216)
(-0.000254927 -0.000254761 -0.000499531)
(-0.000237389 -0.000266683 -0.000631586)
(-5.58725e-05 -0.000271907 -0.00065396)
(-0.000327017 -0.000218268 -0.000379058)
(-0.000367578 -0.000232021 -0.00058995)
(-0.000266857 -0.000237177 -0.000631518)
(-0.000249388 -0.00024916 -0.000771754)
(-6.52035e-05 -0.000254616 -0.000797016)
(-0.000331323 -4.2965e-05 -0.000396522)
(-0.000373188 -5.22429e-05 -0.000610962)
(-0.000272066 -5.55693e-05 -0.000653874)
(-0.000254828 -6.4885e-05 -0.000796981)
(-6.96773e-05 -6.93699e-05 -0.00082338)
(-0.000401692 -0.000401706 0.0126781)
(-0.00044625 -0.000425619 0.0124098)
(-0.000315616 -0.000433455 0.0123611)
(-0.000290006 -0.000452258 0.0121873)
(-5.15593e-05 -0.000459085 0.0121604)
(-0.000425606 -0.000446192 0.0124099)
(-0.00047697 -0.000476892 0.0121265)
(-0.000341433 -0.000487272 0.01207)
(-0.000314883 -0.000511362 0.0118854)
(-6.52582e-05 -0.000520418 0.011853)
(-0.000433421 -0.000315454 0.0123612)
(-0.000487329 -0.000341251 0.01207)
(-0.000350071 -0.000349906 0.0120107)
(-0.00032314 -0.000371098 0.0118205)
(-7.01637e-05 -0.000379299 0.0117859)
(-0.000452224 -0.000289819 0.0121874)
(-0.000511436 -0.000314662 0.0118855)
(-0.00037128 -0.000322935 0.0118206)
(-0.000344277 -0.000344044 0.0116226)
(-8.373e-05 -0.000352263 0.0115837)
(-0.000459016 -5.12604e-05 0.0121606)
(-0.000520457 -6.49273e-05 0.0118531)
(-0.000379452 -6.98403e-05 0.0117861)
(-0.000352469 -8.33809e-05 0.0115837)
(-8.98335e-05 -8.94996e-05 0.0115426)
(-0.000581704 -0.000581664 0.00235502)
(-0.000649193 -0.000609381 0.00199617)
(-0.000457978 -0.000622113 0.00192237)
(-0.000419024 -0.000643138 0.00169112)
(-7.21502e-05 -0.000653185 0.00165039)
(-0.000609421 -0.000649068 0.00199622)
(-0.000688119 -0.00068797 0.00160657)
(-0.000490536 -0.000704627 0.00151951)
(-0.000449025 -0.000734206 0.00126442)
(-9.06976e-05 -0.000747525 0.00121373)
(-0.000622129 -0.000457702 0.00192237)
(-0.000704752 -0.000490233 0.00151949)
(-0.00050419 -0.000503908 0.00142616)
(-0.000461902 -0.000529265 0.00116228)
(-9.73557e-05 -0.000540932 0.00110692)
(-0.000643151 -0.000418712 0.00169126)
(-0.000734348 -0.000448665 0.00126453)
(-0.000529568 -0.000461565 0.00116239)
(-0.000486051 -0.000485674 0.000878172)
(-0.000115076 -0.000497684 0.000815517)
(-0.000653153 -7.16473e-05 0.00165044)
(-0.000747625 -9.01533e-05 0.00121381)
(-0.000541198 -9.68211e-05 0.00110699)
(-0.000498021 -0.000114507 0.000815517)
(-0.000123513 -0.000122966 0.000750054)
(-0.000778015 -0.000777987 0.0110803)
(-0.000878973 -0.000834344 0.010561)
(-0.000620781 -0.000856015 0.0104503)
(-0.000562188 -0.000899571 0.010115)
(-9.1524e-05 -0.000916666 0.0100527)
(-0.000834372 -0.000878915 0.0105611)
(-0.000954342 -0.000954236 0.0100058)
(-0.000683868 -0.000984276 0.00987127)
(-0.000620928 -0.00104107 0.00951173)
(-0.000120415 -0.00106478 0.00943304)
(-0.000855994 -0.00062053 0.0104504)
(-0.000984334 -0.000683575 0.00987125)
(-0.000707578 -0.00070732 0.00972661)
(-0.000642658 -0.000757658 0.00935002)
(-0.000131325 -0.000777838 0.00926425)
(-0.000899556 -0.000561949 0.0101152)
(-0.00104117 -0.000620611 0.00951192)
(-0.000757952 -0.00064238 0.00935021)
(-0.000691447 -0.000691104 0.00895965)
(-0.000158062 -0.00070943 0.00886133)
(-0.000916565 -9.10683e-05 0.0100528)
(-0.0010648 -0.00011989 0.0094332)
(-0.000778068 -0.000130811 0.00926439)
(-0.000709709 -0.000157494 0.00886135)
(-0.000168798 -0.000168257 0.0087532)
(-0.0011271 -0.00112699 0.00413042)
(-0.00128006 -0.00119183 0.00343408)
(-0.000903871 -0.00122917 0.00325884)
(-0.000816483 -0.00127543 0.00280947)
(-0.000135074 -0.00130239 0.00270802)
(-0.00119194 -0.00127992 0.00343414)
(-0.00137823 -0.00137803 0.0026669)
(-0.00098429 -0.0014285 0.0024499)
(-0.000886958 -0.00149927 0.00194416)
(-0.000176011 -0.00153602 0.00181216)
(-0.00122921 -0.000903441 0.00325874)
(-0.00142864 -0.000983795 0.0024498)
(-0.00102504 -0.00102459 0.0022088)
(-0.000923948 -0.00108094 0.0016793)
(-0.000191667 -0.00111222 0.00152606)
(-0.00127547 -0.000816061 0.00280959)
(-0.00149945 -0.000886414 0.00194427)
(-0.00108143 -0.000923468 0.00167948)
(-0.000974596 -0.000974014 0.0010921)
(-0.000229112 -0.00100839 0.0009203)
(-0.00130231 -0.000134231 0.00270785)
(-0.0015361 -0.000175074 0.00181208)
(-0.00111263 -0.000190737 0.00152604)
(-0.00100887 -0.000228105 0.000920179)
(-0.000250057 -0.000249085 0.000741969)
(-0.00150856 -0.00150848 0.0104163)
(-0.00175088 -0.00163929 0.00942947)
(-0.0012455 -0.00170441 0.00916981)
(-0.00111328 -0.00180657 0.00852748)
(-0.000187183 -0.00185525 0.00837579)
(-0.00163937 -0.00175093 0.00942955)
(-0.00193974 -0.00193968 0.00835078)
(-0.00140698 -0.00203573 0.00801587)
(-0.00125904 -0.00217279 0.00731574)
(-0.000255892 -0.00224833 0.00710892)
(-0.00170438 -0.00124518 0.00916971)
(-0.00203569 -0.00140659 0.00801577)
(-0.00147848 -0.00147815 0.00764585)
(-0.00132581 -0.00161016 0.00688755)
(-0.000289455 -0.00167015 0.00666313)
(-0.00180657 -0.00111311 0.00852776)
(-0.00217284 -0.00125871 0.00731601)
(-0.00161055 -0.00132555 0.00688787)
(-0.00145106 -0.00145066 0.00612301)
(-0.000344842 -0.00149398 0.00585554)
(-0.00185505 -0.000186596 0.00837569)
(-0.00224821 -0.000255163 0.00710902)
(-0.00167043 -0.000288738 0.00666319)
(-0.00149423 -0.000344029 0.00585543)
(-0.00036345 -0.000362667 0.00554327)
(-0.00216464 -0.00216446 0.00562726)
(-0.00252808 -0.00232492 0.00428993)
(-0.00180566 -0.00244019 0.00386064)
(-0.00161021 -0.00254695 0.0029828)
(-0.000283905 -0.00263094 0.00271546)
(-0.0023251 -0.00252805 0.00428994)
(-0.00279273 -0.00279255 0.00280737)
(-0.00201872 -0.00295307 0.00223984)
(-0.00179346 -0.00313973 0.00123434)
(-0.000389236 -0.0032492 0.000870301)
(-0.00244022 -0.00180504 0.0038603)
(-0.0029531 -0.00201795 0.00223957)
(-0.00215259 -0.00215192 0.00156844)
(-0.00190619 -0.00227294 0.000505594)
(-0.000425953 -0.00236484 2.75285e-05)
(-0.00254698 -0.00160978 0.00298277)
(-0.00313986 -0.00179272 0.00123432)
(-0.0022737 -0.00190564 0.000505864)
(-0.00200636 -0.00200557 -0.000751159)
(-0.000519994 -0.00212766 -0.00129774)
(-0.00263065 -0.000282538 0.00271473)
(-0.00324912 -0.000387645 0.000869767)
(-0.00236547 -0.000424323 2.71851e-05)
(-0.00212821 -0.000518188 -0.00129821)
(-0.000588955 -0.00058715 -0.00191381)
(-0.00291222 -0.00291214 0.0108761)
(-0.0035184 -0.00319615 0.00905526)
(-0.00255252 -0.00340501 0.00841188)
(-0.00225877 -0.00364048 0.00717655)
(-0.000438712 -0.00378944 0.00678551)
(-0.00319624 -0.00351878 0.00905533)
(-0.00399182 -0.00399201 0.00699236)
(-0.00298039 -0.0043304 0.00612232)
(-0.00262904 -0.0046527 0.00473609)
(-0.000620772 -0.00493899 0.00414383)
(-0.0034049 -0.00255226 0.0084115)
(-0.00433002 -0.00298001 0.00612205)
(-0.0032128 -0.00321246 0.00514471)
(-0.00286715 -0.00359582 0.00351626)
(-0.00077011 -0.00383834 0.00283231)
(-0.00364045 -0.00225898 0.00717687)
(-0.00465244 -0.00262897 0.00473648)
(-0.0035962 -0.00286724 0.00351682)
(-0.00325506 -0.00325487 0.00181685)
(-0.000916204 -0.00343579 0.000967315)
(-0.00378904 -0.00043818 0.00678471)
(-0.00493848 -0.00061998 0.00414367)
(-0.00383855 -0.000769242 0.00283202)
(-0.0034357 -0.000915212 0.000967057)
(-0.00100431 -0.00100326 3.12474e-05)
(-0.00408193 -0.00408169 0.0074224)
(-0.00499515 -0.00449438 0.00493851)
(-0.00368411 -0.00484542 0.00388056)
(-0.00323627 -0.00511021 0.00213278)
(-0.000663991 -0.00540229 0.00140421)
(-0.00449462 -0.0049955 0.00493826)
(-0.00572774 -0.00572777 0.00223232)
(-0.00427388 -0.006222 0.000745209)
(-0.00377134 -0.00680159 -0.001201)
(-0.000989642 -0.00720417 -0.0022621)
(-0.00484534 -0.00368324 0.0038798)
(-0.00622165 -0.00427272 0.000744659)
(-0.0047572 -0.00475624 -0.00115825)
(-0.00421805 -0.00519106 -0.00343326)
(-0.00111829 -0.00554038 -0.00486288)
(-0.00511016 -0.00323625 0.00213203)
(-0.00680148 -0.00377047 -0.00120149)
(-0.00519222 -0.00421779 -0.00343307)
(-0.00455572 -0.00455463 -0.0058047)
(-0.00139356 -0.0049289 -0.00758756)
(-0.00540135 -0.000661813 0.00140239)
(-0.00720358 -0.00098692 -0.00226365)
(-0.0055411 -0.0011154 -0.00486377)
(-0.00492916 -0.00139044 -0.00758873)
(-0.00155107 -0.00154772 -0.0098488)
(-0.00551744 -0.00551761 0.0134702)
(-0.00706188 -0.00604045 0.0100472)
(-0.00535713 -0.00669581 0.00859655)
(-0.00473507 -0.00714152 0.00628074)
(-0.0011365 -0.00763439 0.00524871)
(-0.00604027 -0.00706302 0.0100473)
(-0.00818762 -0.00818861 0.00638372)
(-0.0064134 -0.00937288 0.00430114)
(-0.00563695 -0.0102237 0.00154776)
(-0.00167244 -0.0112118 -5.64251e-05)
(-0.00669547 -0.00535736 0.0085956)
(-0.00937174 -0.00641351 0.00430067)
(-0.0073908 -0.00739082 0.00146273)
(-0.00657299 -0.00819993 -0.00180696)
(-0.0021872 -0.00916441 -0.00404907)
(-0.00714123 -0.00473634 0.00628106)
(-0.0102225 -0.00563788 0.00154815)
(-0.00819982 -0.00657397 -0.00180604)
(-0.00741056 -0.00741135 -0.00551782)
(-0.00272101 -0.00842286 -0.00843375)
(-0.00763369 -0.00113662 0.00524653)
(-0.0112103 -0.00167211 -5.70162e-05)
(-0.00916424 -0.00218653 -0.00405041)
(-0.00842189 -0.00272018 -0.00843448)
(-0.00327937 -0.00327815 -0.0119724)
(-0.00768638 -0.00768611 0.011381)
(-0.00987407 -0.00835146 0.006806)
(-0.00745007 -0.00936289 0.00424822)
(-0.00658441 -0.0100823 0.000811189)
(-0.00167329 -0.010967 -0.00115277)
(-0.00835174 -0.00987537 0.00680516)
(-0.0114785 -0.011479 0.00192482)
(-0.00910837 -0.0133608 -0.0017766)
(-0.00812889 -0.0148949 -0.00537189)
(-0.00259616 -0.0165085 -0.00850641)
(-0.0093623 -0.00744892 0.00424649)
(-0.0133595 -0.00910682 -0.00177765)
(-0.0108639 -0.0108625 -0.00689007)
(-0.00973043 -0.0122563 -0.0118995)
(-0.00336243 -0.0139177 -0.0168094)
(-0.0100822 -0.00658562 0.000808516)
(-0.0148942 -0.00812815 -0.00537348)
(-0.0122579 -0.00973151 -0.0118998)
(-0.0111836 -0.0111823 -0.0173073)
(-0.00434163 -0.0128526 -0.0238126)
(-0.0109644 -0.00166972 -0.00115661)
(-0.016507 -0.00259174 -0.00850964)
(-0.0139185 -0.003357 -0.0168114)
(-0.0128515 -0.00433622 -0.023815)
(-0.00511998 -0.0051129 -0.0331125)
(-0.0103324 -0.0103335 0.0200508)
(-0.0141987 -0.0111817 0.0143832)
(-0.0113492 -0.0130223 0.0112329)
(-0.0101358 -0.0136469 0.00682763)
(-0.00304536 -0.0153493 0.00429282)
(-0.0111806 -0.0142016 0.0143827)
(-0.016774 -0.0167769 0.0080464)
(-0.013709 -0.0205185 0.00299399)
(-0.012367 -0.0229428 -0.00198069)
(-0.0048058 -0.0268784 -0.00675518)
(-0.0130213 -0.0113513 0.0112315)
(-0.0205156 -0.0137107 0.00299364)
(-0.017513 -0.0175143 -0.00432761)
(-0.0164931 -0.0201365 -0.0116563)
(-0.00708061 -0.0244739 -0.0190976)
(-0.0136455 -0.0101392 0.00682753)
(-0.0229392 -0.0123701 -0.00198049)
(-0.0201348 -0.0164962 -0.0116551)
(-0.019324 -0.0193274 -0.0197113)
(-0.0092864 -0.0247284 -0.0306863)
(-0.015348 -0.00304794 0.00428895)
(-0.0268752 -0.00480719 -0.00675565)
(-0.0244728 -0.00708101 -0.019101)
(-0.0247253 -0.00928631 -0.0306864)
(-0.0126048 -0.0126035 -0.0455311)
(-0.0136816 -0.0136819 0.0193254)
(-0.0187031 -0.0150588 0.0124699)
(-0.0150045 -0.0180472 0.00741493)
(-0.0135252 -0.0193715 0.0016654)
(-0.00416959 -0.0225726 -0.00326173)
(-0.0150585 -0.0187058 0.0124674)
(-0.0228757 -0.022877 0.00512229)
(-0.0191331 -0.0289306 -0.00345683)
(-0.0178753 -0.033386 -0.00992106)
(-0.00737409 -0.0399055 -0.0187711)
(-0.0180454 -0.0150029 0.00741193)
(-0.0289279 -0.0191314 -0.00345803)
(-0.0255118 -0.0255096 -0.0168594)
(-0.024496 -0.0299873 -0.0279921)
(-0.010805 -0.0378528 -0.0446885)
(-0.0193711 -0.0135288 0.00165839)
(-0.033384 -0.0178747 -0.00992509)
(-0.0299891 -0.0245005 -0.0279944)
(-0.0302075 -0.0302051 -0.0409755)
(-0.0153779 -0.0392756 -0.0659188)
(-0.0225666 -0.00416366 -0.00326933)
(-0.0399036 -0.00736701 -0.0187777)
(-0.0378533 -0.0107938 -0.0446939)
(-0.0392711 -0.0153683 -0.0659229)
(-0.0200409 -0.0200233 -0.109335)
(-0.017593 -0.0175967 0.0345114)
(-0.0261143 -0.018988 0.0264712)
(-0.022147 -0.024493 0.0208865)
(-0.0208093 -0.0258922 0.0137666)
(-0.00788318 -0.0316687 0.00771662)
(-0.0189843 -0.0261202 0.0264695)
(-0.0327012 -0.0327078 0.01783)
(-0.0287516 -0.0448021 0.00710715)
(-0.0276776 -0.0526066 -0.000732452)
(-0.0136584 -0.0683165 -0.0144258)
(-0.0244901 -0.0221535 0.0208852)
(-0.0447962 -0.0287573 0.00710762)
(-0.0420525 -0.0420573 -0.0108912)
(-0.0443166 -0.0512082 -0.0269327)
(-0.0237621 -0.0716602 -0.053634)
(-0.0258877 -0.0208173 0.0137658)
(-0.0525983 -0.0276861 -0.000733112)
(-0.0512024 -0.0443249 -0.0269314)
(-0.0572291 -0.057239 -0.043905)
(-0.0344044 -0.0893804 -0.0903045)
(-0.0316662 -0.00789243 0.00771239)
(-0.068311 -0.0136643 -0.0144233)
(-0.0716567 -0.0237672 -0.0536397)
(-0.089372 -0.0344061 -0.0902973)
(-0.0562369 -0.0562369 -0.165616)
(-0.0222615 -0.0222635 0.0352135)
(-0.0323452 -0.0243097 0.0274438)
(-0.0277066 -0.0326795 0.0203833)
(-0.026695 -0.0348319 0.0124489)
(-0.0101629 -0.0459606 0.00391706)
(-0.0243076 -0.0323492 0.0274376)
(-0.0422441 -0.0422466 0.0196082)
(-0.0377013 -0.0607168 0.00531605)
(-0.0393893 -0.0740704 -0.00385725)
(-0.0210917 -0.101208 -0.0249611)
(-0.0326759 -0.0277042 0.0203783)
(-0.0607128 -0.0377002 0.00531582)
(-0.0595559 -0.059552 -0.020996)
(-0.067169 -0.073187 -0.0449819)
(-0.0375893 -0.113777 -0.0924426)
(-0.0348313 -0.0267015 0.0124331)
(-0.0740664 -0.0393867 -0.0038661)
(-0.073188 -0.0671792 -0.044991)
(-0.0934291 -0.0934183 -0.0773548)
(-0.0622057 -0.150753 -0.173851)
(-0.0459477 -0.0101526 0.00390403)
(-0.101207 -0.021081 -0.0249709)
(-0.113773 -0.0375637 -0.0924595)
(-0.150743 -0.0621881 -0.173855)
(-0.0969171 -0.0968647 -0.392852)
(-0.0259709 -0.0259809 0.0620201)
(-0.040936 -0.0274894 0.0548243)
(-0.0371229 -0.040586 0.0492512)
(-0.0372478 -0.0433909 0.0410008)
(-0.0163054 -0.0623013 0.0303276)
(-0.0274794 -0.0409469 0.0548208)
(-0.0547971 -0.0548102 0.0485558)
(-0.052236 -0.0861596 0.0338714)
(-0.057902 -0.109997 0.026638)
(-0.0348744 -0.164576 -0.00318871)
(-0.0405781 -0.0371391 0.0492523)
(-0.0861488 -0.0522506 0.0338735)
(-0.0924059 -0.0924199 0.00210626)
(-0.115587 -0.124803 -0.0285726)
(-0.0716494 -0.220808 -0.115823)
(-0.0433793 -0.0372639 0.040999)
(-0.109982 -0.0579201 0.026634)
(-0.124788 -0.115612 -0.0285707)
(-0.185855 -0.185878 -0.0544325)
(-0.133949 -0.392835 -0.262329)
(-0.0622955 -0.0163305 0.030334)
(-0.164574 -0.0348904 -0.00318135)
(-0.220798 -0.0716704 -0.115822)
(-0.39281 -0.133947 -0.262287)
(-0.290495 -0.290499 -0.690781)
(-0.0301707 -0.0301764 0.062829)
(-0.0451195 -0.0313504 0.061107)
(-0.0415331 -0.0493638 0.0608244)
(-0.0455992 -0.0507405 0.0563355)
(-0.0208358 -0.0820212 0.0537995)
(-0.0313447 -0.0451224 0.0610973)
(-0.0631918 -0.0631957 0.0620662)
(-0.0596715 -0.107852 0.0542102)
(-0.0762916 -0.143555 0.0541227)
(-0.0512756 -0.24701 0.0341254)
(-0.0493592 -0.0415288 0.0608185)
(-0.107849 -0.0596744 0.0542136)
(-0.122104 -0.122096 0.0391807)
(-0.184628 -0.153781 0.010687)
(-0.127278 -0.356288 -0.0432092)
(-0.0507421 -0.0456006 0.0563099)
(-0.143547 -0.0762837 0.0541068)
(-0.153778 -0.184638 0.0106662)
(-0.347305 -0.347296 -0.0589839)
(-0.274144 -0.659571 -0.257915)
(-0.0820072 -0.0208174 0.0537803)
(-0.247015 -0.0512692 0.0341284)
(-0.356262 -0.127234 -0.0432745)
(-0.659593 -0.274122 -0.257967)
(-0.694485 -0.694564 -1.04055)
(-0.0282602 -0.0282801 0.102183)
(-0.0429151 -0.0271281 0.105361)
(-0.0419239 -0.0483311 0.116096)
(-0.0442291 -0.0469113 0.12104)
(-0.0188436 -0.0845159 0.134673)
(-0.0271082 -0.0429318 0.105352)
(-0.0616023 -0.0616218 0.111296)
(-0.0601525 -0.107673 0.123854)
(-0.0774347 -0.154867 0.129967)
(-0.0554984 -0.254829 0.145746)
(-0.0483138 -0.041956 0.116099)
(-0.107657 -0.0601829 0.123858)
(-0.135517 -0.135549 0.154004)
(-0.193084 -0.174966 0.177871)
(-0.128565 -0.392293 0.230095)
(-0.0468897 -0.0442588 0.121027)
(-0.154847 -0.0774532 0.129954)
(-0.174933 -0.193174 0.17786)
(-0.372797 -0.372864 0.12872)
(-0.435068 -0.920882 0.0568829)
(-0.0844875 -0.0188982 0.1347)
(-0.254872 -0.055532 0.145747)
(-0.39211 -0.128648 0.230135)
(-0.921205 -0.434826 0.0566201)
(-1.67218 -1.67185 -0.467586)
(-0.0273368 -0.0273512 0.0881425)
(-0.0312065 -0.0257848 0.10055)
(-0.0258325 -0.0425518 0.118074)
(-0.026971 -0.0429601 0.133769)
(-0.00725387 -0.0734002 0.158783)
(-0.0257704 -0.0312068 0.100543)
(-0.0446577 -0.0446659 0.118047)
(-0.0410526 -0.069844 0.145953)
(-0.0540149 -0.0855326 0.167512)
(-0.03618 -0.13939 0.198972)
(-0.0425455 -0.0258326 0.118076)
(-0.0698438 -0.0410693 0.145951)
(-0.0672319 -0.0672308 0.209513)
(-0.098551 -0.0931517 0.274296)
(-0.0746526 -0.225126 0.406691)
(-0.0429626 -0.0269474 0.133749)
(-0.0855247 -0.054011 0.167488)
(-0.0931593 -0.0984979 0.274263)
(-0.116317 -0.116239 0.421078)
(-0.225194 -0.457814 0.480177)
(-0.0734137 -0.00723301 0.158804)
(-0.139367 -0.0361876 0.198921)
(-0.225131 -0.0745742 0.406742)
(-0.457627 -0.224927 0.479843)
(-0.540081 -0.540624 -0.0397321)
(-0.0156443 -0.015672 0.123087)
(-0.0128972 -0.00932817 0.134571)
(-0.00854642 -0.0204414 0.151184)
(-0.00328991 -0.0132306 0.161901)
(0.00663167 -0.0451083 0.181292)
(-0.00930045 -0.012912 0.134554)
(-0.0162973 -0.0163256 0.148912)
(-0.01106 -0.0167429 0.170479)
(-0.0252938 -0.0179592 0.182976)
(-0.0244526 -0.00401858 0.205628)
(-0.020427 -0.00859154 0.151169)
(-0.016728 -0.0111146 0.170493)
(-0.0104276 -0.01049 0.215905)
(0.00980767 0.00124787 0.239353)
(0.0106529 -0.10298 0.298988)
(-0.0132125 -0.00329991 0.161855)
(-0.0179477 -0.0253595 0.182973)
(0.00128485 0.0097904 0.23929)
(0.0234484 0.0234208 0.228538)
(0.104402 0.216288 -0.414463)
(-0.0451497 0.00655409 0.181256)
(-0.00401699 -0.0245334 0.205653)
(-0.102994 0.0105011 0.298937)
(0.216395 0.104578 -0.41446)
(0.836968 0.836869 -3.14209)
(-0.0152369 -0.0152688 0.0741404)
(-0.00320447 -0.0105603 0.0875589)
(0.00143888 -0.0221501 0.0984119)
(0.00313223 -0.020319 0.109498)
(0.0125515 -0.0477841 0.117852)
(-0.0105285 -0.00321953 0.0875559)
(-0.00879989 -0.00881097 0.108479)
(-0.00691137 -0.00502328 0.129153)
(-0.0198401 -0.0096316 0.15246)
(-0.0134524 -0.0125831 0.187487)
(-0.0221137 0.00140927 0.0984049)
(-0.0050083 -0.00693165 0.129153)
(0.000161359 0.000113454 0.157775)
(-0.00332412 -0.0180113 0.193209)
(0.00207329 -0.0798475 0.20703)
(-0.0202775 0.00313491 0.109493)
(-0.00963826 -0.019826 0.152464)
(-0.0179892 -0.00331474 0.193218)
(-0.0215406 -0.0214106 0.219665)
(0.0230145 0.0252951 -0.15498)
(-0.0477357 0.0125288 0.117832)
(-0.0125648 -0.0134316 0.187498)
(-0.0797314 0.00206243 0.20701)
(0.0252901 0.0232926 -0.154885)
(0.130311 0.130527 -2.28208)
(-0.00130047 -0.00133136 0.114957)
(0.0111773 0.0128371 0.130862)
(0.0131048 0.0122204 0.140151)
(0.0156328 0.032038 0.155793)
(0.0150813 0.0279177 0.166694)
(0.012868 0.0111555 0.13086)
(0.0249709 0.0249394 0.152716)
(0.0326037 0.0416331 0.174709)
(0.0319803 0.0625442 0.201152)
(0.0108806 0.0966347 0.230733)
(0.0122419 0.0130584 0.140141)
(0.0416549 0.0325538 0.174697)
(0.0508358 0.0507845 0.211097)
(0.0713661 0.120582 0.263809)
(0.043469 0.154822 0.324786)
(0.0320655 0.0156105 0.155785)
(0.0625708 0.0319292 0.201142)
(0.120629 0.0713324 0.263837)
(0.0837381 0.0836736 0.288561)
(0.0272792 0.125244 0.050437)
(0.0279107 0.0150092 0.166665)
(0.0966436 0.0108098 0.230685)
(0.154858 0.0433825 0.324769)
(0.125282 0.0271366 0.0504199)
(-0.321517 -0.321613 -0.716143)
(0.00201376 0.00197909 0.0330302)
(0.0221214 0.0132158 0.0435807)
(0.0265725 0.0154109 0.0487377)
(0.0298752 0.0289245 0.0591126)
(0.0242977 0.0225953 0.0634287)
(0.0132505 0.0220969 0.0435823)
(0.0351541 0.0351283 0.055214)
(0.041717 0.0659369 0.0688597)
(0.0366337 0.0970514 0.0776099)
(0.01687 0.159053 0.093703)
(0.0154447 0.0265374 0.0487318)
(0.0659613 0.0416866 0.0688577)
(0.0884944 0.0884633 0.0879737)
(0.124876 0.148471 0.119661)
(0.0865668 0.185608 0.139018)
(0.0289642 0.0298583 0.0591185)
(0.0970815 0.0366108 0.0776188)
(0.148504 0.124859 0.119674)
(0.247608 0.247561 0.136201)
(0.170386 0.485495 -0.0358395)
(0.0226237 0.0242589 0.0634099)
(0.159078 0.0168412 0.0937099)
(0.185609 0.0865349 0.139013)
(0.485514 0.170309 -0.0358162)
(0.782171 0.782132 -1.07769)
(0.0103896 0.0103603 0.0934914)
(0.0267216 0.0263999 0.103021)
(0.028433 0.0352341 0.101326)
(0.0301173 0.0548763 0.107857)
(0.0196988 0.0644504 0.103226)
(0.0264292 0.0266939 0.103025)
(0.0501379 0.0501062 0.113873)