/*--------------------------------*- C++ -*----------------------------------*\
| =========                 |                                                 |
| \\      /  F ield         | OpenFOAM: The Open Source CFD Toolbox           |
|  \\    /   O peration     | Version:  5.x                                   |
|   \\  /    A nd           | Web:      www.OpenFOAM.org                      |
|    \\/     M anipulation  |                                                 |
\*---------------------------------------------------------------------------*/
FoamFile
{
    version     2.0;
    format      ascii;
    class       volScalarField;
    location    "0.14";
    object      Ksl;
}
// * * * * * * * * * * * * * * * * * * * * * * * * * * * * * * * * * * * * * //

dimensions      [1 -3 -1 0 0 0 0];

internalField   nonuniform List<scalar> 
320
(
0.000640997
0.00778922
0.00542956
0.000363802
0.023835
0.113554
0.09039
0.00776359
0.543128
1.67024
1.11172
0.154744
2.79727
3.15164
1.5237
1.15686
1.17068
1.98221
1.27948
0.131115
0.0702034
0.0596888
0.0643593
0.00814843
0.000580916
0.000933877
0.00102238
0.000309759
2.87541e-05
1.37757e-05
1.44141e-05
3.59121e-06
0
0
0
0
0
0
0
0
0
0
0
0
0
0
0
0
0
0
0
0
0
0
0
0
0
0
0
0
0
0
0
0
0
0
0
0
0
0
0
0
0
0
0
0
0
0
0
0
0.00778922
0.0320732
0.0275891
0.00318607
0.113554
1.51409
1.45001
0.106681
1.67024
3.33784
1.56722
1.50617
3.15164
3.19578
1.5094
1.49905
1.98221
4.78821
1.84478
1.18265
0.0596888
0.136566
0.135504
0.162819
0.000933877
0.00175256
0.00166253
0.00404309
1.37757e-05
2.65567e-05
2.42657e-05
3.50561e-05
0
4.36942e-07
3.90209e-07
0
0
0
0
0
0
0
0
0
0
0
0
0
0
0
0
0
0
0
0
0
0
0
0
0
0
0
0
0
0
0
0
0
0
0
0
0
0
0
0
0
0
0
0
0
0.00542956
0.0275891
0.0279137
0.00355935
0.09039
1.45001
1.69677
0.132431
1.11172
1.56722
1.04014
1.00192
1.5237
1.5094
1.0086
1.01103
1.27948
1.84478
1.15625
0.840639
0.0643593
0.135504
0.140793
0.284705
0.00102238
0.00166253
0.00164372
0.010182
1.44141e-05
2.42657e-05
2.29995e-05
5.24867e-05
0
3.90209e-07
3.62885e-07
0
0
0
0
0
0
0
0
0
0
0
0
0
0
0
0
0
0
0
0
0
0
0
0
0
0
0
0
0
0
0
0
0
0
0
0
0
0
0
0
0
0
0
0
0
0.000363802
0.00318607
0.00355935
0.000293533
0.00776359
0.106681
0.132431
0.0216573
0.154744
1.50617
1.00192
0.575173
1.15686
1.49905
1.01103
0.883041
0.131115
1.18265
0.840639
0.127911
0.00814843
0.162819
0.284705
0.00310762
0.000309759
0.00404309
0.010182
6.8097e-05
3.59121e-06
3.50561e-05
5.24867e-05
0
0
0
0
0
0
0
0
0
0
0
0
0
0
0
0
0
0
0
0
0
0
0
0
0
0
0
0
0
0
0
0
0
0
0
0
0
0
0
0
0
0
0
0
0
0
0
0
0
)
;

boundaryField
{
    inlet
    {
        type            zeroGradient;
    }
    outlet
    {
        type            zeroGradient;
    }
    walls
    {
        type            zeroGradient;
    }
}


// ************************************************************************* //
