/*--------------------------------*- C++ -*----------------------------------*\
| =========                 |                                                 |
| \\      /  F ield         | OpenFOAM: The Open Source CFD Toolbox           |
|  \\    /   O peration     | Version:  5.x                                   |
|   \\  /    A nd           | Web:      www.OpenFOAM.org                      |
|    \\/     M anipulation  |                                                 |
\*---------------------------------------------------------------------------*/
FoamFile
{
    version     2.0;
    format      ascii;
    class       surfaceScalarField;
    location    "0.14";
    object      phi;
}
// * * * * * * * * * * * * * * * * * * * * * * * * * * * * * * * * * * * * * //

dimensions      [0 3 -1 0 0 0 0];

internalField   nonuniform List<scalar> 
784
(
-5.81627e-12
3.84772e-11
-5.81627e-12
-1.52573e-12
1.5008e-11
-4.5624e-11
1.51863e-12
1.95044e-11
-3.09442e-11
2.98558e-11
-2.16549e-11
-1.74443e-11
3.87974e-11
-1.74443e-11
-2.82932e-12
1.17289e-11
-1.76176e-10
8.81781e-12
1.88361e-11
-1.13599e-10
3.93526e-11
-6.3494e-11
-3.38821e-11
4.22413e-11
-3.38821e-11
4.57309e-13
2.4317e-11
-5.01395e-10
2.25783e-11
3.54563e-11
-2.99191e-10
5.78388e-11
-1.1695e-10
-2.42022e-11
2.30071e-11
-2.42022e-11
-1.16173e-12
-6.92913e-11
-6.75629e-10
2.85487e-11
-1.01802e-11
-3.89628e-10
6.2398e-11
-1.52563e-10
1.65266e-11
1.8752e-11
1.65266e-11
1.34089e-12
-2.64336e-10
-2.40768e-10
4.4248e-12
-1.09391e-10
-1.68845e-10
3.26533e-11
-1.03096e-10
-6.75456e-12
1.50527e-11
-6.75456e-12
2.16781e-11
-2.89936e-10
4.41576e-11
2.97307e-11
-1.33931e-10
-1.40535e-11
2.40278e-11
-3.66847e-11
-2.19812e-11
1.21411e-11
-2.19812e-11
1.79427e-11
-3.064e-10
1.28931e-10
3.71646e-11
-1.49189e-10
4.58079e-11
3.3479e-11
5.54349e-12
-6.66901e-12
8.72854e-12
-6.66901e-12
1.13655e-11
-2.94518e-10
2.12598e-10
1.93856e-11
-1.45215e-10
1.063e-10
3.83635e-11
5.40342e-11
8.98494e-12
2.4941e-11
8.98494e-12
8.41482e-13
-2.16769e-10
3.15088e-10
9.96173e-12
-1.03068e-10
1.4885e-10
4.04391e-11
9.41612e-11
4.96861e-11
3.24693e-11
4.96861e-11
-3.43474e-12
-1.03882e-10
4.3569e-10
-3.79211e-11
-4.85689e-11
2.93336e-10
3.19376e-11
1.38659e-10
5.39588e-11
2.13247e-11
5.39588e-11
2.32997e-12
-3.7298e-11
3.43502e-10
-5.01429e-11
-2.23632e-11
2.87061e-10
2.06602e-11
1.22035e-10
2.25305e-11
1.68943e-11
2.25305e-11
3.58023e-12
-1.23102e-11
1.53498e-10
-1.60946e-11
-1.01757e-11
1.23688e-10
1.51929e-11
7.45192e-11
1.56576e-11
1.06483e-11
1.56576e-11
3.0493e-12
-8.31358e-13
8.75358e-11
-1.35259e-11
-1.6256e-12
7.47356e-11
1.07465e-11
5.091e-11
6.84206e-12
7.67687e-12
6.84206e-12
2.51848e-12
1.46159e-12
4.04016e-11
-3.19152e-12
-1.05419e-13
3.56898e-11
7.49206e-12
3.02362e-11
5.17585e-12
5.05568e-12
5.17585e-12
2.10492e-12
2.53348e-12
2.27991e-11
-2.64472e-12
1.64872e-12
2.07094e-11
4.90226e-12
1.96657e-11
2.74471e-12
3.51718e-12
2.74471e-12
1.66715e-12
2.02106e-12
1.17831e-11
-4.05244e-14
1.33433e-12
1.14536e-11
3.09158e-12
1.19102e-11
2.10054e-12
2.33575e-12
2.10054e-12
1.37019e-12
1.59458e-12
6.76404e-12
1.23711e-13
1.21116e-12
6.80173e-12
1.84378e-12
7.48371e-12
1.38404e-12
1.48449e-12
1.38404e-12
1.11934e-12
1.01266e-12
3.93325e-12
5.92617e-13
7.58075e-13
4.15735e-12
1.01482e-12
4.64474e-12
1.09196e-12
8.06145e-13
1.09196e-12
9.33901e-13
5.55881e-13
2.4784e-12
5.74432e-13
4.15738e-13
2.68789e-12
4.61252e-13
3.03672e-12
7.16785e-13
7.16785e-13
6.93702e-13
1.41099e-12
5.38282e-13
1.56842e-12
1.74033e-12
-4.5624e-11
1.5008e-11
-1.52573e-12
-3.22418e-13
-2.92567e-10
-3.22418e-13
1.67234e-11
-1.62214e-10
-3.1667e-12
-6.04317e-11
-4.86354e-12
-1.76176e-10
1.17289e-11
-2.82932e-12
1.81978e-11
-6.81315e-10
1.81978e-11
9.24804e-11
-3.47586e-10
-2.50928e-12
-7.13317e-11
-8.76205e-12
-5.01395e-10
2.4317e-11
4.57309e-13
1.13795e-10
-1.91169e-09
1.13795e-10
3.15984e-10
-8.72372e-10
2.34049e-11
-2.31764e-11
-1.0177e-11
-6.75629e-10
-6.92913e-11
-1.16173e-12
1.48605e-10
-3.56016e-09
1.48605e-10
4.69174e-10
-1.61449e-09
3.19235e-11
4.38477e-11
-9.1043e-12
-2.40768e-10
-2.64336e-10
1.34089e-12
-7.30255e-12
-4.0271e-09
-7.30255e-12
2.06388e-10
-1.98591e-09
-1.11196e-11
3.99593e-11
-1.96753e-11
4.41576e-11
-2.89936e-10
2.16781e-11
-6.32031e-11
-3.81238e-09
-6.32031e-11
-5.90286e-11
-1.98648e-09
-1.76589e-11
-7.75716e-12
-2.65186e-11
1.28931e-10
-3.064e-10
1.79427e-11
-2.40127e-11
-3.50649e-09
-2.40127e-11
-6.66685e-11
-1.89838e-09
3.70964e-13
-4.13045e-11
-5.08682e-12
2.12598e-10
-2.94518e-10
1.13655e-11
-2.60711e-11
-3.02915e-09
-2.60711e-11
-1.0803e-10
-1.71097e-09
8.46095e-13
-5.74726e-11
7.41975e-12
3.15088e-10
-2.16769e-10
8.41482e-13
-6.35889e-11
-2.2718e-09
-6.35889e-11
-1.75796e-10
-1.4177e-09
-3.22128e-11
-9.06055e-11
8.70832e-12
4.3569e-10
-1.03882e-10
-3.43474e-12
-6.43981e-11
-1.27162e-09
-6.43981e-11
-3.0556e-10
-8.7203e-10
-1.1173e-11
-1.03063e-10
1.49644e-11
3.43502e-10
-3.7298e-11
2.32997e-12
-1.50305e-11
-5.54555e-10
-1.50305e-11
-2.49091e-10
-3.77757e-10
2.68483e-11
-7.86471e-11
2.35009e-11
1.53498e-10
-1.23102e-11
3.58023e-12
8.25738e-12
-2.64074e-10
8.25738e-12
-7.55558e-11
-1.90155e-10
1.98991e-11
-5.10754e-11
2.36164e-11
8.75358e-11
-8.31358e-13
3.0493e-12
1.14549e-11
-1.11912e-10
1.14549e-11
-3.92264e-11
-8.12425e-11
1.65045e-11
-3.10004e-11
1.98924e-11
4.04016e-11
1.46159e-12
2.51848e-12
1.08452e-11
-5.27992e-11
1.08452e-11
-7.3763e-12
-3.99969e-11
1.26658e-11
-1.85537e-11
1.57818e-11
2.27991e-11
2.53348e-12
2.10492e-12
7.5956e-12
-2.23922e-11
7.5956e-12
-2.47966e-12
-1.79869e-11
8.77475e-12
-1.05602e-11
1.14034e-11
1.17831e-11
2.02106e-12
1.66715e-12
5.72703e-12
-1.028e-11
5.72703e-12
1.48815e-12
-8.80483e-12
6.51041e-12
-6.25526e-12
8.09895e-12
6.76404e-12
1.59458e-12
1.37019e-12
3.8288e-12
-4.40951e-12
3.8288e-12
1.58934e-12
-4.1445e-12
4.38086e-12
-3.61382e-12
5.49532e-12
3.93325e-12
1.01266e-12
1.11934e-12
2.72637e-12
-1.99574e-12
2.72637e-12
1.67945e-12
-2.08023e-12
3.14e-12
-2.11185e-12
3.75247e-12
2.4784e-12
5.55881e-13
9.33901e-13
1.92148e-12
-8.81903e-13
1.92148e-12
1.32582e-12
-1.01576e-12
2.21908e-12
-1.18524e-12
2.62108e-12
1.41099e-12
6.93702e-13
1.23524e-12
1.23524e-12
9.74113e-13
1.41961e-12
1.60112e-12
-3.09442e-11
1.95044e-11
1.51863e-12
-3.1667e-12
-1.62214e-10
1.67234e-11
1.02205e-11
-1.0672e-10
1.02205e-11
-3.43084e-11
1.07119e-12
-1.13599e-10
1.88361e-11
8.81781e-12
-2.50928e-12
-3.47586e-10
9.24804e-11
5.7273e-11
-2.26285e-10
5.7273e-11
-3.06608e-11
1.10574e-11
-2.99191e-10
3.54563e-11
2.25783e-11
2.34049e-11
-8.72372e-10
3.15984e-10
1.93532e-10
-5.66539e-10
1.93532e-10
1.06194e-11
3.01816e-11
-3.89628e-10
-1.01802e-11
2.85487e-11
3.19235e-11
-1.61449e-09
4.69174e-10
2.80059e-10
-1.06281e-09
2.80059e-10
5.18654e-11
4.28316e-11
-1.68845e-10
-1.09391e-10
4.4248e-12
-1.11196e-11
-1.98591e-09
2.06388e-10
1.19199e-10
-1.32345e-09
1.19199e-10
2.84248e-11
1.82672e-11
-1.40535e-11
-1.33931e-10
2.97307e-11
-1.76589e-11
-1.98648e-09
-5.90286e-11
-3.35751e-12
-1.35205e-09
-3.35751e-12
1.5908e-12
-4.3665e-13
4.58079e-11
-1.49189e-10
3.71646e-11
3.70964e-13
-1.89838e-09
-6.66685e-11
-1.23879e-11
-1.32653e-09
-1.23879e-11
-1.81113e-11
3.78939e-12
1.063e-10
-1.45215e-10
1.93856e-11
8.46095e-13
-1.71097e-09
-1.0803e-10
-4.1664e-11
-1.24151e-09
-4.1664e-11
-3.25826e-11
-2.55386e-12
1.4885e-10
-1.03068e-10
9.96173e-12
-3.22128e-11
-1.4177e-09
-1.75796e-10
-4.93323e-11
-1.20727e-09
-4.93323e-11
-7.89644e-11
-9.29211e-12
2.93336e-10
-4.85689e-11
-3.79211e-11
-1.1173e-11
-8.7203e-10
-3.0556e-10
-1.96893e-10
-8.35832e-10
-1.96893e-10
-9.05488e-11
-4.0186e-11
2.87061e-10
-2.23632e-11
-5.01429e-11
2.68483e-11
-3.77757e-10
-2.49091e-10
-2.17042e-10
-3.48051e-10
-2.17042e-10
-5.48071e-11
-3.6129e-11
1.23688e-10
-1.01757e-11
-1.60946e-11
1.98991e-11
-1.90155e-10
-7.55558e-11
-6.23617e-11
-1.83529e-10
-6.23617e-11
-3.5322e-11
-2.61681e-12
7.47356e-11
-1.6256e-12
-1.35259e-11
1.65045e-11
-8.12425e-11
-3.92264e-11
-3.70792e-11
-7.6362e-11
-3.70792e-11
-2.15306e-11
3.22633e-12
3.56898e-11
-1.05419e-13
-3.19152e-12
1.26658e-11
-3.99969e-11
-7.3763e-12
-5.86733e-12
-3.92958e-11
-5.86733e-12
-1.37961e-11
8.67648e-12
2.07094e-11
1.64872e-12
-2.64472e-12
8.77475e-12
-1.79869e-11
-2.47966e-12
-1.95118e-12
-1.7844e-11
-1.95118e-12
-8.86069e-12
7.22823e-12
1.14536e-11
1.33433e-12
-4.05244e-14
6.51041e-12
-8.80483e-12
1.48815e-12
2.19515e-12
-9.21343e-12
2.19515e-12
-5.80815e-12
6.0393e-12
6.80173e-12
1.21116e-12
1.23711e-13
4.38086e-12
-4.1445e-12
1.58934e-12
2.07429e-12
-4.60028e-12
2.07429e-12
-3.78727e-12
4.33923e-12
4.15735e-12
7.58075e-13
5.92617e-13
3.14e-12
-2.08023e-12
1.67945e-12
2.07356e-12
-2.4674e-12
2.07356e-12
-2.39947e-12
3.08491e-12
2.68789e-12
4.15738e-13
5.74432e-13
2.21908e-12
-1.01576e-12
1.32582e-12
1.61573e-12
-1.26069e-12
1.61573e-12
-1.42909e-12
2.22612e-12
1.56842e-12
5.38282e-13
1.41961e-12
9.74113e-13
1.15023e-12
1.15023e-12
1.38589e-12
-2.16549e-11
2.98558e-11
-4.86354e-12
-6.04317e-11
1.07119e-12
-3.43084e-11
-2.17303e-11
-6.3494e-11
3.93526e-11
-8.76205e-12
-7.13317e-11
1.10574e-11
-3.06608e-11
-7.72922e-12
-1.1695e-10
5.78388e-11
-1.0177e-11
-2.31764e-11
3.01816e-11
1.06194e-11
2.68497e-11
-1.52563e-10
6.2398e-11
-9.1043e-12
4.38477e-11
4.28316e-11
5.18654e-11
7.32988e-11
-1.03096e-10
3.26533e-11
-1.96753e-11
3.99593e-11
1.82672e-11
2.84248e-11
1.05513e-10
-3.66847e-11
2.40278e-11
-2.65186e-11
-7.75716e-12
-4.3665e-13
1.5908e-12
1.21966e-10
5.54349e-12
3.3479e-11
-5.08682e-12
-4.13045e-11
3.78939e-12
-1.81113e-11
1.17592e-10
5.40342e-11
3.83635e-11
7.41975e-12
-5.74726e-11
-2.55386e-12
-3.25826e-11
1.00478e-10
9.41612e-11
4.04391e-11
8.70832e-12
-9.06055e-11
-9.29211e-12
-7.89644e-11
6.02355e-11
1.38659e-10
3.19376e-11
1.49644e-11
-1.03063e-10
-4.0186e-11
-9.05488e-11
1.81293e-11
1.22035e-10
2.06602e-11
2.35009e-11
-7.86471e-11
-3.6129e-11
-5.48071e-11
-2.14185e-12
7.45192e-11
1.51929e-11
2.36164e-11
-5.10754e-11
-2.61681e-12
-3.5322e-11
-1.20752e-11
5.091e-11
1.07465e-11
1.98924e-11
-3.10004e-11
3.22633e-12
-2.15306e-11
-1.5464e-11
3.02362e-11
7.49206e-12
1.57818e-11
-1.85537e-11
8.67648e-12
-1.37961e-11
-1.35386e-11
1.96657e-11
4.90226e-12
1.14034e-11
-1.05602e-11
7.22823e-12
-8.86069e-12
-1.07259e-11
1.19102e-11
3.09158e-12
8.09895e-12
-6.25526e-12
6.0393e-12
-5.80815e-12
-7.81462e-12
7.48371e-12
1.84378e-12
5.49532e-12
-3.61382e-12
4.33923e-12
-3.78727e-12
-5.41063e-12
4.64474e-12
1.01482e-12
3.75247e-12
-2.11185e-12
3.08491e-12
-2.39947e-12
-3.56116e-12
3.03672e-12
4.61252e-13
2.62108e-12
-1.18524e-12
2.22612e-12
-1.42909e-12
-2.11304e-12
1.74033e-12
1.60112e-12
1.38589e-12
)
;

boundaryField
{
    inlet
    {
        type            calculated;
        value           nonuniform List<scalar> 
16
(
3.33145e-13
1.72033e-13
1.06056e-13
1.43505e-13
1.72033e-13
-5.30404e-13
-6.05821e-13
-6.8908e-13
1.06056e-13
-6.05821e-13
-7.2195e-13
-8.17701e-13
1.43505e-13
-6.8908e-13
-8.17701e-13
-1.17811e-12
)
;
    }
    outlet
    {
        type            calculated;
        value           nonuniform List<scalar> 
16
(
-3.72156e-11
-1.52698e-11
-1.89099e-11
-2.66329e-11
-1.52698e-11
2.01964e-10
1.1739e-10
5.18997e-11
-1.89099e-11
1.1739e-10
7.99456e-11
3.30279e-11
-2.66329e-11
5.18997e-11
3.30279e-11
2.49942e-11
)
;
    }
    walls
    {
        type            calculated;
        value           nonuniform List<scalar> 
320
(
5.18545e-12
1.72842e-11
3.21601e-11
3.38193e-11
-1.43991e-11
8.60418e-12
2.3437e-11
8.37531e-12
-1.70912e-11
-5.34502e-11
-4.83865e-11
-2.03153e-11
-1.25346e-11
-5.35636e-12
-3.86525e-12
-1.97546e-12
-1.50983e-12
-9.58412e-13
-7.52782e-13
-4.80287e-13
4.15952e-11
1.6484e-10
4.54468e-10
7.46197e-10
4.50999e-10
-4.69905e-11
-1.52391e-10
-2.42514e-10
-3.84694e-10
-4.95456e-10
-3.58457e-10
-1.59536e-10
-8.64064e-11
-3.8371e-11
-2.08001e-11
-1.01931e-11
-5.60719e-12
-3.08662e-12
-1.86357e-12
-1.00406e-12
2.73054e-11
1.0262e-10
2.6045e-10
4.05554e-10
2.64972e-10
3.05406e-11
-4.97715e-11
-1.18294e-10
-2.00117e-10
-3.13349e-10
-2.60794e-10
-1.16201e-10
-6.67106e-11
-3.15e-11
-1.77139e-11
-9.43158e-12
-5.43207e-12
-3.17755e-12
-1.98609e-12
-1.10332e-12
1.87924e-11
5.66762e-11
1.06554e-10
1.54867e-10
1.27991e-10
5.41208e-11
-6.84798e-12
-5.46476e-11
-1.03198e-10
-1.42994e-10
-1.16805e-10
-7.05017e-11
-4.67469e-11
-2.6645e-11
-1.67583e-11
-9.71839e-12
-5.91439e-12
-3.51892e-12
-2.22222e-12
-1.22011e-12
1.15828e-12
6.13879e-12
1.44888e-11
2.1685e-11
9.27453e-12
2.09203e-11
2.90179e-11
1.51145e-11
1.69234e-11
-2.50849e-11
-4.40955e-11
-1.46449e-11
-1.32426e-11
-3.52833e-12
-2.96235e-12
-4.21625e-13
-1.97809e-13
2.95762e-13
3.13497e-13
3.35813e-13
8.46403e-12
4.86485e-11
1.61055e-10
2.58692e-10
1.26855e-10
-2.14782e-11
-2.24908e-11
-4.52472e-11
-5.72106e-11
-1.69408e-10
-1.74972e-10
-5.22249e-11
-2.82838e-11
-5.36866e-12
-2.21082e-12
9.94482e-13
9.36294e-13
1.06975e-12
8.14841e-13
6.17166e-13
5.56629e-12
3.38059e-11
1.11893e-10
1.86877e-10
1.04697e-10
-2.60542e-12
-1.56197e-12
-1.72191e-11
1.505e-11
-1.30159e-10
-1.93154e-10
-5.56135e-11
-3.42045e-11
-6.49652e-12
-2.71139e-12
1.20226e-12
1.20951e-12
1.35331e-12
1.04031e-12
7.54069e-13
-5.60804e-13
4.05689e-12
1.28922e-11
1.9607e-11
2.15989e-12
-8.66276e-12
5.97634e-12
6.00317e-12
1.0829e-11
-1.91329e-11
-2.59934e-11
2.34987e-12
4.92072e-12
7.71379e-12
5.82186e-12
4.58368e-12
3.13723e-12
2.16017e-12
1.50206e-12
9.18431e-13
5.18545e-12
1.72842e-11
3.21601e-11
3.38193e-11
-1.43991e-11
8.60418e-12
2.3437e-11
8.37531e-12
-1.70912e-11
-5.34502e-11
-4.83865e-11
-2.03153e-11
-1.25346e-11
-5.35636e-12
-3.86525e-12
-1.97546e-12
-1.50983e-12
-9.58412e-13
-7.52782e-13
-4.80287e-13
4.15952e-11
1.6484e-10
4.54468e-10
7.46197e-10
4.50999e-10
-4.69905e-11
-1.52391e-10
-2.42514e-10
-3.84694e-10
-4.95456e-10
-3.58457e-10
-1.59536e-10
-8.64064e-11
-3.8371e-11
-2.08001e-11
-1.01931e-11
-5.60719e-12
-3.08662e-12
-1.86357e-12
-1.00406e-12
2.73054e-11
1.0262e-10
2.6045e-10
4.05554e-10
2.64972e-10
3.05406e-11
-4.97715e-11
-1.18294e-10
-2.00117e-10
-3.13349e-10
-2.60794e-10
-1.16201e-10
-6.67106e-11
-3.15e-11
-1.77139e-11
-9.43158e-12
-5.43207e-12
-3.17755e-12
-1.98609e-12
-1.10332e-12
1.87924e-11
5.66762e-11
1.06554e-10
1.54867e-10
1.27991e-10
5.41208e-11
-6.84798e-12
-5.46476e-11
-1.03198e-10
-1.42994e-10
-1.16805e-10
-7.05017e-11
-4.67469e-11
-2.6645e-11
-1.67583e-11
-9.71839e-12
-5.91439e-12
-3.51892e-12
-2.22222e-12
-1.22011e-12
1.15828e-12
6.13879e-12
1.44888e-11
2.1685e-11
9.27453e-12
2.09203e-11
2.90179e-11
1.51145e-11
1.69234e-11
-2.50849e-11
-4.40955e-11
-1.46449e-11
-1.32426e-11
-3.52833e-12
-2.96235e-12
-4.21625e-13
-1.97809e-13
2.95762e-13
3.13497e-13
3.35813e-13
8.46403e-12
4.86485e-11
1.61055e-10
2.58692e-10
1.26855e-10
-2.14782e-11
-2.24908e-11
-4.52472e-11
-5.72106e-11
-1.69408e-10
-1.74972e-10
-5.22249e-11
-2.82838e-11
-5.36866e-12
-2.21082e-12
9.94482e-13
9.36294e-13
1.06975e-12
8.14841e-13
6.17166e-13
5.56629e-12
3.38059e-11
1.11893e-10
1.86877e-10
1.04697e-10
-2.60542e-12
-1.56197e-12
-1.72191e-11
1.505e-11
-1.30159e-10
-1.93154e-10
-5.56135e-11
-3.42045e-11
-6.49652e-12
-2.71139e-12
1.20226e-12
1.20951e-12
1.35331e-12
1.04031e-12
7.54069e-13
-5.60804e-13
4.05689e-12
1.28922e-11
1.9607e-11
2.15989e-12
-8.66276e-12
5.97634e-12
6.00317e-12
1.0829e-11
-1.91329e-11
-2.59934e-11
2.34987e-12
4.92072e-12
7.71379e-12
5.82186e-12
4.58368e-12
3.13723e-12
2.16017e-12
1.50206e-12
9.18431e-13
)
;
    }
}


// ************************************************************************* //
