/*--------------------------------*- C++ -*----------------------------------*\
| =========                 |                                                 |
| \\      /  F ield         | OpenFOAM: The Open Source CFD Toolbox           |
|  \\    /   O peration     | Version:  5.x                                   |
|   \\  /    A nd           | Web:      www.OpenFOAM.org                      |
|    \\/     M anipulation  |                                                 |
\*---------------------------------------------------------------------------*/
FoamFile
{
    version     2.0;
    format      ascii;
    class       volVectorField;
    location    "0.14";
    object      U;
}
// * * * * * * * * * * * * * * * * * * * * * * * * * * * * * * * * * * * * * //

dimensions      [0 1 -1 0 0 0 0];

internalField   nonuniform List<vector> 
320
(
(-8.39772e-07 5.9212e-06 -8.39772e-07)
(-8.22982e-07 2.4593e-06 -6.95816e-06)
(2.60087e-07 3.00453e-06 -4.53755e-06)
(1.89569e-07 4.22864e-06 -3.11111e-06)
(-2.7464e-06 5.68501e-06 -2.7464e-06)
(-2.3805e-06 1.31887e-06 -2.74838e-05)
(1.53829e-06 2.68907e-06 -1.701e-05)
(9.83337e-07 4.96857e-06 -9.37221e-06)
(-5.24344e-06 6.59756e-06 -5.24344e-06)
(-3.99575e-06 3.91212e-06 -7.72431e-05)
(4.02611e-06 4.47712e-06 -4.39528e-05)
(2.41637e-06 7.20129e-06 -1.7651e-05)
(-5.1961e-06 5.5387e-06 -5.1961e-06)
(-4.63964e-06 1.00822e-06 -0.000120574)
(4.72215e-06 4.6626e-06 -6.53194e-05)
(3.52353e-06 9.64127e-06 -2.51219e-05)
(2.66656e-06 2.75658e-06 2.66656e-06)
(6.65986e-07 -2.76567e-05 -6.73285e-05)
(1.75256e-07 -8.79633e-06 -4.03074e-05)
(1.49023e-06 8.06765e-06 -2.01184e-05)
(-1.48715e-06 1.6127e-06 -1.48715e-06)
(6.23116e-08 -5.13894e-05 9.13576e-06)
(5.58031e-06 -2.35648e-05 -3.85942e-06)
(3.42871e-06 3.45038e-06 -8.28269e-06)
(-3.76959e-06 2.39887e-06 -3.76959e-06)
(-2.10383e-06 -5.28724e-05 2.47202e-05)
(6.82675e-06 -2.53657e-05 8.2197e-06)
(4.58994e-06 3.68652e-06 1.36443e-06)
(-1.32643e-06 8.12083e-07 -1.32643e-06)
(-4.52308e-07 -5.3572e-05 3.91708e-05)
(3.60218e-06 -2.73553e-05 1.91184e-05)
(2.38344e-06 5.37637e-06 8.9501e-06)
(2.75871e-06 1.4287e-06 2.75871e-06)
(2.69709e-07 -4.72363e-05 6.18297e-05)
(1.10967e-07 -2.28974e-05 3.21777e-05)
(2.68154e-06 6.02567e-06 1.67035e-05)
(8.58695e-06 5.09176e-06 8.58695e-06)
(6.33575e-06 -2.79415e-05 7.94621e-05)
(-7.27976e-06 -1.39664e-05 5.02492e-05)
(-4.05401e-06 5.25035e-06 2.30404e-05)
(7.77413e-06 4.16325e-06 7.77413e-06)
(8.33153e-06 -8.04964e-06 5.74779e-05)
(-7.64117e-06 -3.43168e-06 4.18016e-05)
(-7.09352e-06 3.92412e-06 1.88084e-05)
(3.26594e-06 2.3998e-06 3.26594e-06)
(3.64266e-06 -4.54358e-06 2.56146e-05)
(-2.47255e-06 -3.92206e-06 1.86521e-05)
(-2.35762e-06 2.29016e-06 1.1366e-05)
(2.01544e-06 2.40473e-06 2.01544e-06)
(2.6783e-06 4.08045e-08 1.38777e-05)
(-1.77109e-06 1.7314e-07 1.07107e-05)
(-2.13199e-06 2.05263e-06 7.53561e-06)
(8.62031e-07 1.11089e-06 8.62031e-07)
(1.20998e-06 -2.9541e-07 6.17236e-06)
(-3.77788e-07 -5.83514e-07 5.06528e-06)
(-5.67123e-07 1.18618e-06 4.29949e-06)
(6.22448e-07 1.0916e-06 6.22448e-07)
(9.11654e-07 6.46783e-07 3.34892e-06)
(-2.67847e-07 5.25294e-07 2.84911e-06)
(-4.77391e-07 9.75349e-07 2.70578e-06)
(3.18594e-07 5.42083e-07 3.18594e-07)
(4.94803e-07 2.02804e-07 1.64317e-06)
(5.7771e-08 6.56676e-08 1.51913e-06)
(-6.75482e-08 5.07172e-07 1.57024e-06)
(2.43537e-07 4.78487e-07 2.43537e-07)
(3.72482e-07 3.65483e-07 9.04963e-07)
(7.5824e-08 3.01471e-07 8.75559e-07)
(-3.14934e-08 3.86571e-07 9.56329e-07)
(1.54886e-07 2.48043e-07 1.54886e-07)
(2.49172e-07 1.52716e-07 4.98675e-07)
(1.26432e-07 1.04892e-07 5.12728e-07)
(4.79911e-08 1.76532e-07 5.6945e-07)
(1.21732e-07 1.88108e-07 1.21732e-07)
(1.95274e-07 1.42863e-07 3.01462e-07)
(1.17245e-07 1.14158e-07 3.20881e-07)
(5.09021e-08 1.16879e-07 3.60056e-07)
(7.78862e-08 5.37457e-08 7.78862e-08)
(1.27025e-07 2.77236e-08 1.62776e-07)
(1.00029e-07 1.71525e-08 1.78674e-07)
(5.44777e-08 2.31504e-08 1.98123e-07)
(-6.95816e-06 2.4593e-06 -8.22982e-07)
(-4.55736e-06 -3.25007e-05 -4.55736e-06)
(3.93681e-06 -1.88893e-05 -3.54426e-06)
(1.42269e-06 -8.32814e-06 -2.57656e-06)
(-2.74838e-05 1.31887e-06 -2.3805e-06)
(-1.6675e-05 -7.13774e-05 -1.6675e-05)
(1.9295e-05 -3.82451e-05 -1.23126e-05)
(8.07112e-06 -1.01544e-05 -7.12614e-06)
(-7.72431e-05 3.91212e-06 -3.99575e-06)
(-4.27e-05 -0.000105284 -4.27e-05)
(6.34214e-05 -5.18251e-05 -3.04426e-05)
(2.75446e-05 -9.18488e-06 -1.26437e-05)
(-0.000120574 1.00822e-06 -4.63964e-06)
(-6.46047e-05 -0.000491027 -6.46047e-05)
(0.000100714 -0.000232195 -4.50196e-05)
(4.15318e-05 1.02528e-06 -1.66534e-05)
(-6.73285e-05 -2.76567e-05 6.65986e-07)
(-4.15696e-05 -0.000601685 -4.15696e-05)
(4.78828e-05 -0.000306743 -2.97034e-05)
(1.85758e-05 8.64578e-06 -1.34168e-05)
(9.13576e-06 -5.13894e-05 6.23116e-08)
(-1.43873e-06 -0.000568885 -1.43873e-06)
(-1.19626e-05 -0.000296258 -4.19973e-06)
(-4.00476e-06 3.09681e-06 -6.77193e-06)
(2.47202e-05 -5.28724e-05 -2.10383e-06)
(1.05771e-05 -0.000568291 1.05771e-05)
(-1.63034e-05 -0.000304388 3.74088e-06)
(-3.63863e-06 -5.93711e-06 -4.35917e-07)
(3.91708e-05 -5.3572e-05 -4.52308e-07)
(2.02891e-05 -0.000503172 2.02891e-05)
(-2.61806e-05 -0.000285054 1.09472e-05)
(-7.25903e-06 -9.75953e-06 5.49689e-06)
(6.18297e-05 -4.72363e-05 2.69709e-07)
(2.83878e-05 -0.000410739 2.83878e-05)
(-4.50116e-05 -0.000240575 1.10224e-05)
(-9.14679e-06 -1.12571e-05 9.48479e-06)
(7.94621e-05 -2.79415e-05 6.33575e-06)
(4.7408e-05 -0.000274955 4.7408e-05)
(-6.47593e-05 -0.000194134 3.62028e-05)
(-2.70975e-05 -2.10834e-05 1.65569e-05)
(5.74779e-05 -8.04964e-06 8.33153e-06)
(4.33245e-05 -0.000110312 4.33245e-05)
(-4.69611e-05 -7.33856e-05 4.32791e-05)
(-2.79886e-05 -1.37085e-05 1.6394e-05)
(2.56146e-05 -4.54358e-06 3.64266e-06)
(1.94446e-05 -5.88385e-05 1.94446e-05)
(-1.61398e-05 -4.40476e-05 1.81634e-05)
(-8.34463e-06 -1.05391e-05 1.0027e-05)
(1.38777e-05 4.08045e-08 2.6783e-06)
(1.17431e-05 -2.18866e-05 1.17431e-05)
(-7.51177e-06 -1.54276e-05 1.142e-05)
(-4.51943e-06 -5.38787e-06 7.07531e-06)
(6.17236e-06 -2.9541e-07 1.20998e-06)
(5.62374e-06 -1.21605e-05 5.62374e-06)
(-1.72864e-06 -9.63097e-06 5.47132e-06)
(-8.50514e-07 -3.94126e-06 4.37102e-06)
(3.34892e-06 6.46783e-07 9.11654e-07)
(3.26892e-06 -4.27173e-06 3.26892e-06)
(-5.48321e-07 -3.37371e-06 3.25437e-06)
(-3.47544e-07 -1.83155e-06 2.91745e-06)
(1.64317e-06 2.02804e-07 4.94803e-07)
(1.77848e-06 -2.47163e-06 1.77848e-06)
(2.36547e-07 -2.13258e-06 1.84396e-06)
(1.64277e-07 -1.31645e-06 1.83976e-06)
(9.04963e-07 3.65483e-07 3.72482e-07)
(1.05401e-06 -8.39094e-07 1.05401e-06)
(2.91031e-07 -7.71804e-07 1.11841e-06)
(1.53578e-07 -6.36428e-07 1.1834e-06)
(4.98675e-07 1.52716e-07 2.49172e-07)
(6.41557e-07 -4.82258e-07 6.41557e-07)
(3.06944e-07 -4.89308e-07 7.03714e-07)
(1.73943e-07 -4.38473e-07 7.60246e-07)
(3.01462e-07 1.42863e-07 1.95274e-07)
(4.16357e-07 -1.73483e-07 4.16357e-07)
(2.49233e-07 -2.04673e-07 4.63603e-07)
(1.3252e-07 -2.3425e-07 5.07903e-07)
(1.62776e-07 2.77236e-08 1.27025e-07)
(2.41602e-07 -8.58275e-08 2.41602e-07)
(1.79006e-07 -9.7708e-08 2.7294e-07)
(1.00262e-07 -1.11655e-07 2.9464e-07)
(-4.53755e-06 3.00453e-06 2.60087e-07)
(-3.54426e-06 -1.88893e-05 3.93681e-06)
(2.05625e-06 -1.28519e-05 2.05625e-06)
(9.39903e-07 -5.28793e-06 5.19589e-07)
(-1.701e-05 2.68907e-06 1.53829e-06)
(-1.23126e-05 -3.82451e-05 1.9295e-05)
(1.07105e-05 -2.51056e-05 1.07105e-05)
(5.61358e-06 -5.37189e-06 3.12392e-06)
(-4.39528e-05 4.47712e-06 4.02611e-06)
(-3.04426e-05 -5.18251e-05 6.34214e-05)
(3.36991e-05 -3.31397e-05 3.36991e-05)
(1.91428e-05 -2.51109e-06 7.57433e-06)
(-6.53194e-05 4.6626e-06 4.72215e-06)
(-4.50196e-05 -0.000232195 0.000100714)
(5.2596e-05 -0.000153396 5.2596e-05)
(3.0062e-05 5.06048e-06 1.22424e-05)
(-4.03074e-05 -8.79633e-06 1.75256e-07)
(-2.97034e-05 -0.000306743 4.78828e-05)
(2.88526e-05 -0.000204979 2.88526e-05)
(1.56299e-05 7.37147e-06 7.56682e-06)
(-3.85942e-06 -2.35648e-05 5.58031e-06)
(-4.19973e-06 -0.000296258 -1.19626e-05)
(7.81158e-07 -0.000200852 7.81158e-07)
(-9.66991e-07 2.06378e-06 8.82554e-07)
(8.2197e-06 -2.53657e-05 6.82675e-06)
(3.74088e-06 -0.000304388 -1.63034e-05)
(-3.32454e-06 -0.000208709 -3.32454e-06)
(-2.93587e-07 -1.88994e-06 -2.63561e-07)
(1.91184e-05 -2.73553e-05 3.60218e-06)
(1.09472e-05 -0.000285054 -2.61806e-05)
(-1.03821e-05 -0.000204904 -1.03821e-05)
(-2.7662e-06 -5.08422e-06 -2.23199e-06)
(3.21777e-05 -2.28974e-05 1.10967e-07)
(1.10224e-05 -0.000240575 -4.50116e-05)
(-1.94419e-05 -0.000177904 -1.94419e-05)
(2.40844e-06 -6.80246e-06 -5.66039e-06)
(5.02492e-05 -1.39664e-05 -7.27976e-06)
(3.62028e-05 -0.000194134 -6.47593e-05)
(-3.88279e-05 -0.000191261 -3.88279e-05)
(-2.08132e-05 -2.15539e-05 -1.06417e-05)
(4.18016e-05 -3.43168e-06 -7.64117e-06)
(4.32791e-05 -7.33856e-05 -4.69611e-05)
(-3.38981e-05 -6.37417e-05 -3.38981e-05)
(-3.09036e-05 -9.39611e-06 -7.77898e-06)
(1.86521e-05 -3.92206e-06 -2.47255e-06)
(1.81634e-05 -4.40476e-05 -1.61398e-05)
(-1.0979e-05 -4.34779e-05 -1.0979e-05)
(-8.88778e-06 -8.16768e-06 -1.49284e-06)
(1.07107e-05 1.7314e-07 -1.77109e-06)
(1.142e-05 -1.54276e-05 -7.51177e-06)
(-5.63785e-06 -1.38583e-05 -5.63785e-06)
(-5.47222e-06 -3.67939e-06 -2.10143e-09)
(5.06528e-06 -5.83514e-07 -3.77788e-07)
(5.47132e-06 -9.63097e-06 -1.72864e-06)
(-1.007e-06 -9.53552e-06 -1.007e-06)
(-1.03165e-06 -3.03876e-06 1.16719e-06)
(2.84911e-06 5.25294e-07 -2.67847e-07)
(3.25437e-06 -3.37371e-06 -5.48321e-07)
(-1.91485e-07 -3.26384e-06 -1.91485e-07)
(-4.29861e-07 -1.50344e-06 1.08301e-06)
(1.51913e-06 6.56676e-08 5.7771e-08)
(1.84396e-06 -2.13258e-06 2.36547e-07)
(4.23611e-07 -2.20001e-06 4.23611e-07)
(1.97134e-07 -1.21627e-06 9.72319e-07)
(8.75559e-07 3.01471e-07 7.5824e-08)
(1.11841e-06 -7.71804e-07 2.91031e-07)
(4.04126e-07 -8.48577e-07 4.04126e-07)
(1.96854e-07 -6.6345e-07 7.2368e-07)
(5.12728e-07 1.04892e-07 1.26432e-07)
(7.03714e-07 -4.89308e-07 3.06944e-07)
(3.83316e-07 -5.62189e-07 3.83316e-07)
(2.19358e-07 -4.87667e-07 5.31453e-07)
(3.20881e-07 1.14158e-07 1.17245e-07)
(4.63603e-07 -2.04673e-07 2.49233e-07)
(3.02297e-07 -2.63265e-07 3.02297e-07)
(1.68628e-07 -2.90689e-07 3.91403e-07)
(1.78674e-07 1.71525e-08 1.00029e-07)
(2.7294e-07 -9.7708e-08 1.79006e-07)
(2.096e-07 -1.16073e-07 2.096e-07)
(1.2227e-07 -1.31949e-07 2.43984e-07)
(-3.11111e-06 4.22864e-06 1.89569e-07)
(-2.57656e-06 -8.32814e-06 1.42269e-06)
(5.19589e-07 -5.28793e-06 9.39903e-07)
(-8.72263e-08 -3.98426e-06 -8.72263e-08)
(-9.37221e-06 4.96857e-06 9.83337e-07)
(-7.12614e-06 -1.01544e-05 8.07112e-06)
(3.12392e-06 -5.37189e-06 5.61358e-06)
(6.74848e-07 -2.48289e-06 6.74848e-07)
(-1.7651e-05 7.20129e-06 2.41637e-06)
(-1.26437e-05 -9.18488e-06 2.75446e-05)
(7.57433e-06 -2.51109e-06 1.91428e-05)
(2.18411e-06 6.63696e-07 2.18411e-06)
(-2.51219e-05 9.64127e-06 3.52353e-06)
(-1.66534e-05 1.02528e-06 4.15318e-05)
(1.22424e-05 5.06048e-06 3.0062e-05)
(3.10781e-06 7.25845e-06 3.10781e-06)
(-2.01184e-05 8.06765e-06 1.49023e-06)
(-1.34168e-05 8.64578e-06 1.85758e-05)
(7.56682e-06 7.37147e-06 1.56299e-05)
(6.2184e-08 1.39721e-05 6.2184e-08)
(-8.28269e-06 3.45038e-06 3.42871e-06)
(-6.77193e-06 3.09681e-06 -4.00476e-06)
(8.82554e-07 2.06378e-06 -9.66991e-07)
(-1.32951e-06 1.76335e-05 -1.32951e-06)
(1.36443e-06 3.68652e-06 4.58994e-06)
(-4.35917e-07 -5.93711e-06 -3.63863e-06)
(-2.63561e-07 -1.88994e-06 -2.93587e-07)
(1.01694e-06 1.83865e-05 1.01694e-06)
(8.9501e-06 5.37637e-06 2.38344e-06)
(5.49689e-06 -9.75953e-06 -7.25903e-06)
(-2.23199e-06 -5.08422e-06 -2.7662e-06)
(1.02365e-06 1.63749e-05 1.02365e-06)
(1.67035e-05 6.02567e-06 2.68154e-06)
(9.48479e-06 -1.12571e-05 -9.14679e-06)
(-5.66039e-06 -6.80246e-06 2.40844e-06)
(1.82164e-06 1.30378e-05 1.82164e-06)
(2.30404e-05 5.25035e-06 -4.05401e-06)
(1.65569e-05 -2.10834e-05 -2.70975e-05)
(-1.06417e-05 -2.15539e-05 -2.08132e-05)
(-3.027e-06 4.29961e-06 -3.027e-06)
(1.88084e-05 3.92412e-06 -7.09352e-06)
(1.6394e-05 -1.37085e-05 -2.79886e-05)
(-7.77898e-06 -9.39611e-06 -3.09036e-05)
(-4.14105e-06 7.64378e-07 -4.14105e-06)
(1.1366e-05 2.29016e-06 -2.35762e-06)
(1.0027e-05 -1.05391e-05 -8.34463e-06)
(-1.49284e-06 -8.16768e-06 -8.88778e-06)
(4.01157e-07 -1.50087e-06 4.01157e-07)
(7.53561e-06 2.05263e-06 -2.13199e-06)
(7.07531e-06 -5.38787e-06 -4.51943e-06)
(-2.10143e-09 -3.67939e-06 -5.47222e-06)
(8.05443e-07 -2.2248e-06 8.05443e-07)
(4.29949e-06 1.18618e-06 -5.67123e-07)
(4.37102e-06 -3.94126e-06 -8.50514e-07)
(1.16719e-06 -3.03876e-06 -1.03165e-06)
(1.24965e-06 -2.37027e-06 1.24965e-06)
(2.70578e-06 9.75349e-07 -4.77391e-07)
(2.91745e-06 -1.83155e-06 -3.47544e-07)
(1.08301e-06 -1.50344e-06 -4.29861e-07)
(9.43945e-07 -1.73799e-06 9.43945e-07)
(1.57024e-06 5.07172e-07 -6.75482e-08)
(1.83976e-06 -1.31645e-06 1.64277e-07)
(9.72319e-07 -1.21627e-06 1.97134e-07)
(7.42262e-07 -1.43365e-06 7.42262e-07)
(9.56329e-07 3.86571e-07 -3.14934e-08)
(1.1834e-06 -6.36428e-07 1.53578e-07)
(7.2368e-07 -6.6345e-07 1.96854e-07)
(5.08605e-07 -9.34032e-07 5.08605e-07)
(5.6945e-07 1.76532e-07 4.79911e-08)
(7.60246e-07 -4.38473e-07 1.73943e-07)
(5.31453e-07 -4.87667e-07 2.19358e-07)
(3.501e-07 -6.66325e-07 3.501e-07)
(3.60056e-07 1.16879e-07 5.09021e-08)
(5.07903e-07 -2.3425e-07 1.3252e-07)
(3.91403e-07 -2.90689e-07 1.68628e-07)
(2.43778e-07 -4.22186e-07 2.43778e-07)
(1.98123e-07 2.31504e-08 5.44777e-08)
(2.9464e-07 -1.11655e-07 1.00262e-07)
(2.43984e-07 -1.31949e-07 1.2227e-07)
(1.49212e-07 -1.90791e-07 1.49212e-07)
)
;

boundaryField
{
    inlet
    {
        type            fixedValue;
        value           uniform (0 0 0);
    }
    outlet
    {
        type            zeroGradient;
    }
    walls
    {
        type            fixedValue;
        value           uniform (0 0 0);
    }
}


// ************************************************************************* //
