/*--------------------------------*- C++ -*----------------------------------*\
| =========                 |                                                 |
| \\      /  F ield         | OpenFOAM: The Open Source CFD Toolbox           |
|  \\    /   O peration     | Version:  5.x                                   |
|   \\  /    A nd           | Web:      www.OpenFOAM.org                      |
|    \\/     M anipulation  |                                                 |
\*---------------------------------------------------------------------------*/
FoamFile
{
    version     2.0;
    format      ascii;
    class       volScalarField;
    location    "0.04";
    object      Ksl;
}
// * * * * * * * * * * * * * * * * * * * * * * * * * * * * * * * * * * * * * //

dimensions      [1 -3 -1 0 0 0 0];

internalField   nonuniform List<scalar> 
320
(
0
0
0
0
0
0
0
0
0
0
0
0
0
0
0
0
3.68445e-05
0.000642501
0.000257137
1.69372e-05
0.00175551
0.0172696
0.0119056
0.000806743
0.0158435
0.277111
0.138657
0.00771677
0.291729
2.28765
1.20933
0.150967
1.73715
3.07903
1.4904
0.849215
0.110485
1.3407
0.661653
0.0541479
0.00595433
0.0576168
0.0342269
0.00299964
0.000520038
0.00828426
0.00613406
0.000245374
9.63894e-06
0.000118301
6.17809e-05
5.07269e-06
0
0
0
0
0
0
0
0
0
0
0
0
0
0
0
0
0
0
0
0
0
0
0
0
0
0
0
0
0
0
0
0
0
0
0
0
0
0
0
0
0
0.000109809
6.99197e-05
0
0.000642501
0.00894771
0.00476347
0.000269459
0.0172696
0.0970966
0.0669263
0.0128474
0.277111
9.23668
1.84756
0.147143
2.28765
3.19151
1.53677
1.18094
3.07903
3.18289
1.50435
1.4612
1.3407
3.68356
1.69853
0.64592
0.0576168
1.47982
0.491138
0.0335667
0.00828426
0.0210619
0.0141623
0.00616662
0.000118301
0.00238669
0.000816994
5.92248e-05
0
2.41866e-05
1.50076e-05
0
0
0
0
0
0
0
0
0
0
0
0
0
0
0
0
0
0
0
0
0
0
0
0
0
0
0
0
0
0
0
0
0
0
0
0
0
0
6.99197e-05
5.08433e-05
0
0.000257137
0.00476347
0.00337885
0.000155821
0.0119056
0.0669263
0.0462173
0.00822385
0.138657
1.84756
1.14816
0.0881925
1.20933
1.53677
1.03866
0.834817
1.4904
1.50435
1.00549
0.988965
0.661653
1.69853
1.22029
0.45406
0.0342269
0.491138
0.436818
0.0187477
0.00613406
0.0141623
0.00736944
0.00315965
6.17809e-05
0.000816994
0.000735268
3.77405e-05
0
1.50076e-05
8.9903e-06
0
0
0
0
0
0
0
0
0
0
0
0
0
0
0
0
0
0
0
0
0
0
0
0
0
0
0
0
0
0
0
0
0
0
0
0
0
0
0
0
0
1.69372e-05
0.000269459
0.000155821
0
0.000806743
0.0128474
0.00822385
0.000498649
0.00771677
0.147143
0.0881925
0.00499681
0.150967
1.18094
0.834817
0.105659
0.849215
1.4612
0.988965
0.575223
0.0541479
0.64592
0.45406
0.0367318
0.00299964
0.0335667
0.0187477
0.00194342
0.000245374
0.00616662
0.00315965
0.000160347
5.07269e-06
5.92248e-05
3.77405e-05
0
0
0
0
0
0
0
0
0
0
0
0
0
0
0
0
0
0
0
0
0
0
0
0
0
0
0
0
0
)
;

boundaryField
{
    inlet
    {
        type            zeroGradient;
    }
    outlet
    {
        type            zeroGradient;
    }
    walls
    {
        type            zeroGradient;
    }
}


// ************************************************************************* //
