/*--------------------------------*- C++ -*----------------------------------*\
| =========                 |                                                 |
| \\      /  F ield         | OpenFOAM: The Open Source CFD Toolbox           |
|  \\    /   O peration     | Version:  5.x                                   |
|   \\  /    A nd           | Web:      www.OpenFOAM.org                      |
|    \\/     M anipulation  |                                                 |
\*---------------------------------------------------------------------------*/
FoamFile
{
    version     2.0;
    format      ascii;
    class       volScalarField;
    location    "0.04";
    object      p;
}
// * * * * * * * * * * * * * * * * * * * * * * * * * * * * * * * * * * * * * //

dimensions      [0 2 -2 0 0 0 0];

internalField   nonuniform List<scalar> 
320
(
4.8565e-08
5.03233e-08
4.73457e-08
4.01455e-08
-6.69913e-08
-5.41077e-08
-6.51252e-08
-7.05918e-08
8.74573e-08
1.22435e-07
9.60097e-08
4.97069e-08
-1.62872e-07
-8.76914e-08
-1.46947e-07
-1.98561e-07
2.597e-08
2.5465e-07
9.11269e-08
-6.82239e-08
-5.26899e-07
1.81442e-08
-3.32863e-07
-6.68078e-07
-9.26701e-07
-3.22117e-08
-4.38342e-07
-1.04975e-06
-2.28332e-06
1.17202e-06
-9.46807e-07
-2.69508e-06
-6.86854e-06
-6.18867e-06
-6.34057e-06
-6.97055e-06
-1.31438e-05
-1.62523e-05
-1.44179e-05
-1.28256e-05
-1.5686e-05
-1.72854e-05
-1.65636e-05
-1.53965e-05
-1.54354e-05
-1.59605e-05
-1.55873e-05
-1.52286e-05
-1.70721e-05
-1.74745e-05
-1.73198e-05
-1.69362e-05
-1.60405e-05
-1.60848e-05
-1.60102e-05
-1.59718e-05
-1.69972e-05
-1.70861e-05
-1.70456e-05
-1.69366e-05
-1.63712e-05
-1.63767e-05
-1.63618e-05
-1.63533e-05
-1.6769e-05
-1.67789e-05
-1.67704e-05
-1.67483e-05
-1.6548e-05
-1.65482e-05
-1.65445e-05
-1.65408e-05
-1.66563e-05
-1.66576e-05
-1.66556e-05
-1.66522e-05
-1.6611e-05
-1.66111e-05
-1.66098e-05
-1.6608e-05
5.03233e-08
4.78763e-08
4.86062e-08
4.43438e-08
-5.41077e-08
-2.7726e-08
-4.75619e-08
-6.46188e-08
1.22435e-07
1.53054e-07
1.22504e-07
8.72458e-08
-8.76914e-08
7.55762e-08
-3.80093e-08
-1.3413e-07
2.5465e-07
6.37975e-07
3.67606e-07
1.27748e-07
1.81442e-08
1.24679e-06
3.76483e-07
-2.13273e-07
-3.22117e-08
2.69677e-06
1.11508e-06
-1.42631e-07
1.17202e-06
1.83063e-05
8.14497e-06
-2.63082e-08
-6.18867e-06
-4.21235e-06
-5.19906e-06
-6.42374e-06
-1.62523e-05
-3.26897e-05
-2.30072e-05
-1.53179e-05
-1.72854e-05
-2.16791e-05
-1.91168e-05
-1.67177e-05
-1.59605e-05
-1.72906e-05
-1.63316e-05
-1.56446e-05
-1.74745e-05
-1.81827e-05
-1.78005e-05
-1.72658e-05
-1.60848e-05
-1.62461e-05
-1.60854e-05
-1.59879e-05
-1.70861e-05
-1.71569e-05
-1.71102e-05
-1.70174e-05
-1.63767e-05
-1.64036e-05
-1.63689e-05
-1.63495e-05
-1.67789e-05
-1.67884e-05
-1.67817e-05
-1.67613e-05
-1.65482e-05
-1.65492e-05
-1.65434e-05
-1.65403e-05
-1.66576e-05
-1.66594e-05
-1.66571e-05
-1.6653e-05
-1.66111e-05
-1.66113e-05
-1.66098e-05
-1.66081e-05
4.73457e-08
4.86062e-08
4.68988e-08
4.10554e-08
-6.51252e-08
-4.75619e-08
-6.08023e-08
-7.28095e-08
9.60097e-08
1.22504e-07
1.03142e-07
6.05978e-08
-1.46947e-07
-3.80093e-08
-1.02382e-07
-1.78275e-07
9.11269e-08
3.67606e-07
2.67533e-07
1.48642e-08
-3.32863e-07
3.76483e-07
6.24216e-08
-4.56696e-07
-4.38342e-07
1.11508e-06
8.81111e-07
-5.37768e-07
-9.46807e-07
8.14497e-06
4.1379e-06
-1.48106e-06
-6.34057e-06
-5.19906e-06
-4.62199e-06
-6.53009e-06
-1.44179e-05
-2.30072e-05
-1.96255e-05
-1.40218e-05
-1.65636e-05
-1.91168e-05
-1.89966e-05
-1.60998e-05
-1.55873e-05
-1.63316e-05
-1.57059e-05
-1.5276e-05
-1.73198e-05
-1.78005e-05
-1.78339e-05
-1.71273e-05
-1.60102e-05
-1.60854e-05
-1.60204e-05
-1.59226e-05
-1.70456e-05
-1.71102e-05
-1.71017e-05
-1.69935e-05
-1.63618e-05
-1.63689e-05
-1.63627e-05
-1.63372e-05
-1.67704e-05
-1.67817e-05
-1.67779e-05
-1.67552e-05
-1.65445e-05
-1.65434e-05
-1.65396e-05
-1.65367e-05
-1.66556e-05
-1.66571e-05
-1.66551e-05
-1.66509e-05
-1.66098e-05
-1.66098e-05
-1.66087e-05
-1.6607e-05
4.01455e-08
4.43438e-08
4.10554e-08
3.01823e-08
-7.05918e-08
-6.46188e-08
-7.28095e-08
-7.51204e-08
4.97069e-08
8.72458e-08
6.05978e-08
1.60778e-08
-1.98561e-07
-1.3413e-07
-1.78275e-07
-2.28077e-07
-6.82239e-08
1.27748e-07
1.48642e-08
-1.47132e-07
-6.68078e-07
-2.13273e-07
-4.56696e-07
-7.71925e-07
-1.04975e-06
-1.42631e-07
-5.37768e-07
-1.19954e-06
-2.69508e-06
-2.63082e-08
-1.48106e-06
-3.04384e-06
-6.97055e-06
-6.42374e-06
-6.53009e-06
-7.1022e-06
-1.28256e-05
-1.53179e-05
-1.40218e-05
-1.25487e-05
-1.53965e-05
-1.67177e-05
-1.60998e-05
-1.50346e-05
-1.52286e-05
-1.56446e-05
-1.5276e-05
-1.4994e-05
-1.69362e-05
-1.72658e-05
-1.71273e-05
-1.67534e-05
-1.59718e-05
-1.59879e-05
-1.59226e-05
-1.58926e-05
-1.69366e-05
-1.70174e-05
-1.69935e-05
-1.68726e-05
-1.63533e-05
-1.63495e-05
-1.63372e-05
-1.63355e-05
-1.67483e-05
-1.67613e-05
-1.67552e-05
-1.67295e-05
-1.65408e-05
-1.65403e-05
-1.65367e-05
-1.65332e-05
-1.66522e-05
-1.6653e-05
-1.66509e-05
-1.66469e-05
-1.6608e-05
-1.66081e-05
-1.6607e-05
-1.66054e-05
)
;

boundaryField
{
    inlet
    {
        type            zeroGradient;
    }
    outlet
    {
        type            totalPressure;
        rho             rho;
        psi             none;
        gamma           1;
        p0              uniform 0;
        value           nonuniform List<scalar> 
16
(
-1.13185e-15
-1.36824e-16
-9.55087e-16
-2.90922e-15
-1.36824e-16
0
0
-1.40592e-15
-9.55087e-16
0
-2.6755e-16
-2.55008e-15
-2.90922e-15
-1.40592e-15
-2.55008e-15
-5.55329e-15
)
;
    }
    walls
    {
        type            zeroGradient;
    }
}


// ************************************************************************* //
