/*--------------------------------*- C++ -*----------------------------------*\
| =========                 |                                                 |
| \\      /  F ield         | OpenFOAM: The Open Source CFD Toolbox           |
|  \\    /   O peration     | Version:  5.x                                   |
|   \\  /    A nd           | Web:      www.OpenFOAM.org                      |
|    \\/     M anipulation  |                                                 |
\*---------------------------------------------------------------------------*/
FoamFile
{
    version     2.0;
    format      ascii;
    class       surfaceScalarField;
    location    "0.04";
    object      phi;
}
// * * * * * * * * * * * * * * * * * * * * * * * * * * * * * * * * * * * * * //

dimensions      [0 3 -1 0 0 0 0];

internalField   nonuniform List<scalar> 
784
(
-5.32481e-14
1.52807e-13
-5.32481e-14
6.44373e-14
-2.6477e-13
-2.31967e-15
1.60248e-13
-5.52448e-14
-4.09685e-14
5.05846e-13
-9.36269e-14
-1.47779e-13
4.48367e-13
-1.47779e-13
1.5639e-13
-2.33771e-13
-3.35164e-13
2.1316e-13
1.58859e-13
-2.70867e-13
7.827e-13
-6.36867e-14
-7.10961e-13
1.87029e-12
-7.10961e-13
4.9345e-13
-8.78192e-13
-5.5999e-13
1.22577e-12
3.44717e-14
-6.0793e-13
2.81049e-12
-8.02008e-13
-9.26883e-13
3.72406e-12
-9.26883e-13
8.60849e-13
-1.67789e-13
-2.49814e-12
1.36256e-12
1.64353e-12
-2.11077e-12
4.92773e-12
-7.54684e-13
-5.18469e-12
1.40934e-11
-5.18469e-12
2.45927e-12
-1.29509e-12
-6.51667e-12
6.32264e-12
3.9535e-12
-6.17332e-12
1.61793e-11
-4.92897e-12
-7.13691e-12
2.83673e-11
-7.13691e-12
4.22246e-12
6.11455e-12
-1.8769e-11
8.25475e-12
1.46048e-11
-1.46836e-11
3.06273e-11
-6.1932e-12
-2.76324e-11
8.36321e-11
-2.76324e-11
8.36509e-12
3.35542e-11
-6.34372e-11
2.91849e-11
4.72358e-11
-5.34509e-11
8.6441e-11
-2.66289e-11
-4.51781e-11
1.73988e-10
-4.51781e-11
2.09043e-11
1.82336e-10
-2.14864e-10
4.20536e-11
1.63852e-10
-1.37766e-10
1.64904e-10
-3.64092e-11
-6.97179e-11
3.13424e-10
-6.97179e-11
3.72278e-12
3.71219e-10
-2.62324e-10
7.02404e-11
3.64575e-10
-2.6724e-10
3.05446e-10
-7.03015e-11
3.58595e-11
2.41705e-10
3.58595e-11
-1.95252e-11
2.39582e-10
1.87022e-10
-3.34098e-11
2.68391e-10
1.10069e-10
2.43384e-10
2.86516e-11
8.34721e-11
7.47609e-11
8.34721e-11
-1.21885e-11
3.83144e-11
2.96928e-10
-8.45309e-11
4.96853e-11
2.91048e-10
7.71989e-11
8.16546e-11
1.09623e-11
5.28363e-11
1.09623e-11
-4.64296e-12
1.51534e-11
3.87663e-11
-1.22153e-11
2.31746e-11
3.4083e-11
5.53461e-11
9.63754e-12
1.9975e-11
1.28864e-11
1.9975e-11
-3.31414e-12
4.02897e-12
3.44135e-11
-2.14113e-11
6.1961e-12
3.50756e-11
1.42594e-11
1.96754e-11
1.59401e-12
9.69838e-12
1.59401e-12
-8.93018e-13
-4.08181e-13
6.92419e-12
-2.13861e-12
1.14212e-12
6.29957e-12
1.07399e-11
1.38082e-12
3.7626e-12
2.17315e-12
3.7626e-12
-6.83596e-13
3.24461e-13
3.71354e-12
-4.33756e-12
8.08675e-13
3.9874e-12
2.5438e-12
3.85858e-12
3.54171e-13
1.46481e-12
3.54171e-13
-2.14537e-13
-2.76848e-13
1.17001e-12
-4.76996e-13
6.43187e-15
1.0647e-12
1.81092e-12
2.55886e-13
5.62991e-13
3.38827e-13
5.62991e-13
-1.43841e-13
-3.14497e-14
4.61435e-13
-7.36543e-13
7.45624e-14
5.24566e-13
4.6139e-13
6.12983e-13
7.41442e-14
1.90531e-13
7.41442e-14
-6.05726e-14
-5.50485e-14
1.58314e-13
-1.31549e-13
2.81072e-17
1.45514e-13
2.58974e-13
7.08712e-14
7.55278e-14
3.94745e-14
7.55278e-14
-3.44906e-14
-1.37936e-14
6.87682e-14
-1.15442e-13
5.74078e-15
7.52447e-14
6.29261e-14
8.06094e-14
1.97398e-14
1.97398e-14
-2.07401e-14
2.66907e-14
-4.27587e-14
2.77608e-14
2.0166e-14
-2.31967e-15
-2.6477e-13
6.44373e-14
2.59359e-14
-6.30218e-13
2.59359e-14
9.43147e-14
-4.16824e-13
3.47174e-14
4.58752e-14
5.56957e-14
-3.35164e-13
-2.33771e-13
1.5639e-13
2.79454e-13
-1.85944e-12
2.79454e-13
4.58506e-13
-1.03482e-12
1.68091e-13
3.13237e-13
1.27459e-13
-5.5999e-13
-8.78192e-13
4.9345e-13
5.17232e-13
-4.01388e-12
5.17232e-13
1.0308e-12
-2.48928e-12
3.32961e-13
1.64737e-13
3.77294e-13
-2.49814e-12
-1.67789e-13
8.60849e-13
1.5426e-12
-1.20954e-11
1.5426e-12
2.92889e-12
-6.73862e-12
7.52279e-13
1.66046e-12
6.78481e-13
-6.51667e-12
-1.29509e-12
2.45927e-12
3.68057e-12
-3.24898e-11
3.68057e-12
7.90444e-12
-1.85553e-11
1.41951e-12
3.10133e-12
1.53454e-12
-1.8769e-11
6.11455e-12
4.22246e-12
9.71158e-12
-8.94511e-11
9.71158e-12
1.86655e-11
-4.56443e-11
3.45138e-12
1.24386e-11
3.13508e-12
-6.34372e-11
3.35542e-11
8.36509e-12
2.44357e-11
-2.65197e-10
2.44357e-11
6.15079e-11
-1.38462e-10
2.29492e-12
4.26598e-11
4.65775e-12
-2.14864e-10
1.82336e-10
2.09043e-11
1.00544e-10
-8.96012e-10
1.00544e-10
1.81975e-10
-3.89788e-10
3.21288e-11
1.74736e-10
1.3489e-11
-2.62324e-10
3.71219e-10
3.72278e-12
4.70972e-11
-1.51486e-09
4.70972e-11
2.61882e-10
-8.15744e-10
-5.60688e-11
3.71803e-10
-5.48614e-12
1.87022e-10
2.39582e-10
-1.95252e-11
-9.25161e-11
-9.55779e-10
-9.25161e-11
-1.5585e-10
-6.06991e-10
-3.53498e-11
2.57691e-10
-1.30862e-11
2.96928e-10
3.83144e-11
-1.21885e-11
-6.68867e-11
-2.2815e-10
-6.68867e-11
-2.92291e-10
-1.35626e-10
4.50874e-11
4.74245e-11
-3.70338e-13
3.87663e-11
1.51534e-11
-4.64296e-12
-1.53551e-11
-1.19907e-10
-1.53551e-11
-3.7472e-11
-7.9816e-11
3.89548e-13
2.32648e-11
-3.67475e-12
3.44135e-11
4.02897e-12
-3.31414e-12
-8.49873e-12
-3.40827e-11
-8.49873e-12
-3.67347e-11
-2.09321e-11
4.42763e-12
6.52386e-12
-3.18361e-13
6.92419e-12
-4.08181e-13
-8.93018e-13
-2.70105e-12
-1.48323e-11
-2.70105e-12
-7.14173e-12
-1.05986e-11
4.0673e-13
1.4611e-12
-6.98146e-13
3.71354e-12
3.24461e-13
-6.83596e-13
-9.75582e-13
-5.45404e-12
-9.75582e-13
-4.45532e-12
-3.31296e-12
1.8151e-13
1.01931e-12
-1.54954e-13
1.17001e-12
-2.76848e-13
-2.14537e-13
-5.49139e-13
-2.01575e-12
-5.49139e-13
-1.30262e-12
-1.57603e-12
8.12429e-14
1.0144e-13
-1.28869e-13
4.61435e-13
-3.14497e-14
-1.43841e-13
-1.25085e-13
-8.42712e-13
-1.25085e-13
-6.42058e-13
-4.97307e-13
-3.71911e-14
1.29731e-13
-5.73612e-14
1.58314e-13
-5.50485e-14
-6.05726e-14
-1.07829e-13
-3.10421e-13
-1.07829e-13
-2.11509e-13
-2.35415e-13
-1.2691e-14
2.31105e-14
-3.40121e-14
6.87682e-14
-1.37936e-14
-3.44906e-14
-3.45257e-14
-1.03826e-13
-3.45257e-14
-1.09248e-13
-6.53708e-14
-2.00719e-14
1.62395e-14
-2.17667e-14
2.66907e-14
-2.07401e-14
-2.52225e-14
-2.52225e-14
-5.11313e-14
-1.17031e-14
-1.47275e-14
-4.09685e-14
-5.52448e-14
1.60248e-13
3.47174e-14
-4.16824e-13
9.43147e-14
1.13246e-13
-3.13085e-13
1.13246e-13
1.77746e-13
2.00392e-13
-2.70867e-13
1.58859e-13
2.1316e-13
1.68091e-13
-1.03482e-12
4.58506e-13
3.7765e-13
-7.32194e-13
3.7765e-13
5.3333e-13
1.49527e-13
-6.0793e-13
3.44717e-14
1.22577e-12
3.32961e-13
-2.48928e-12
1.0308e-12
1.01178e-12
-2.08984e-12
1.01178e-12
7.2048e-13
1.20192e-12
-2.11077e-12
1.64353e-12
1.36256e-12
7.52279e-13
-6.73862e-12
2.92889e-12
2.50393e-12
-5.59315e-12
2.50393e-12
2.67918e-12
1.22371e-12
-6.17332e-12
3.9535e-12
6.32264e-12
1.41951e-12
-1.85553e-11
7.90444e-12
7.26194e-12
-1.7278e-11
7.26194e-12
5.59465e-12
5.88099e-12
-1.46836e-11
1.46048e-11
8.25475e-12
3.45138e-12
-4.56443e-11
1.86655e-11
1.56359e-11
-4.1647e-11
1.56359e-11
1.69455e-11
7.42004e-12
-5.34509e-11
4.72358e-11
2.91849e-11
2.29492e-12
-1.38462e-10
6.15079e-11
5.40566e-11
-1.4517e-10
5.40566e-11
4.82141e-11
2.74458e-11
-1.37766e-10
1.63852e-10
4.20536e-11
3.21288e-11
-3.89788e-10
1.81975e-10
1.26219e-10
-3.3335e-10
1.26219e-10
1.52653e-10
3.52685e-11
-2.6724e-10
3.64575e-10
7.02404e-11
-5.60688e-11
-8.15744e-10
2.61882e-10
2.69895e-10
-9.85278e-10
2.69895e-10
3.47148e-10
6.99145e-11
1.10069e-10
2.68391e-10
-3.34098e-11
-3.53498e-11
-6.06991e-10
-1.5585e-10
-1.01878e-10
-8.52222e-10
-1.01878e-10
2.59781e-10
-2.75971e-11
2.91048e-10
4.96853e-11
-8.45309e-11
4.50874e-11
-1.35626e-10
-2.92291e-10
-2.91866e-10
-1.78315e-10
-2.91866e-10
4.94332e-11
-8.18886e-11
3.4083e-11
2.31746e-11
-1.22153e-11
3.89548e-13
-7.9816e-11
-3.7472e-11
-3.41076e-11
-1.09321e-10
-3.41076e-11
2.24913e-11
-1.08404e-11
3.50756e-11
6.1961e-12
-2.14113e-11
4.42763e-12
-2.09321e-11
-3.67347e-11
-3.60763e-11
-2.83131e-11
-3.60763e-11
6.91408e-12
-2.08175e-11
6.29957e-12
1.14212e-12
-2.13861e-12
4.0673e-13
-1.05986e-11
-7.14173e-12
-7.04388e-12
-1.34118e-11
-7.04388e-12
1.17952e-12
-2.00748e-12
3.9874e-12
8.08675e-13
-4.33756e-12
1.8151e-13
-3.31296e-12
-4.45532e-12
-4.24972e-12
-4.54939e-12
-4.24972e-12
1.09011e-12
-4.31527e-12
1.0647e-12
6.43186e-15
-4.76996e-13
8.12429e-14
-1.57603e-12
-1.30262e-12
-1.30408e-12
-1.77874e-12
-1.30408e-12
7.77901e-14
-4.20636e-13
5.24566e-13
7.45624e-14
-7.36543e-13
-3.71911e-14
-4.97307e-13
-6.42058e-13
-6.15084e-13
-6.22954e-13
-6.15084e-13
1.46089e-13
-7.40736e-13
1.45514e-13
2.81054e-17
-1.31549e-13
-1.2691e-14
-2.35415e-13
-2.11509e-13
-2.02117e-13
-2.44094e-13
-2.02117e-13
3.05558e-14
-1.20591e-13
7.52447e-14
5.74078e-15
-1.15442e-13
-2.00719e-14
-6.53708e-14
-1.09248e-13
-1.0524e-13
-7.37539e-14
-1.0524e-13
2.15165e-14
-1.17969e-13
2.77608e-14
-4.27587e-14
-1.17031e-14
-5.11313e-14
-4.85819e-14
-4.85819e-14
-4.17954e-14
-9.36269e-14
5.05846e-13
5.56957e-14
4.58752e-14
2.00392e-13
1.77746e-13
8.0584e-13
-6.36867e-14
7.827e-13
1.27459e-13
3.13237e-13
1.49527e-13
5.3333e-13
1.10488e-12
-8.02008e-13
2.81049e-12
3.77294e-13
1.64737e-13
1.20192e-12
7.2048e-13
3.50871e-12
-7.54684e-13
4.92773e-12
6.78481e-13
1.66046e-12
1.22371e-12
2.67918e-12
5.95612e-12
-4.92897e-12
1.61793e-11
1.53454e-12
3.10133e-12
5.88099e-12
5.59465e-12
1.77181e-11
-6.1932e-12
3.06273e-11
3.13508e-12
1.24386e-11
7.42004e-12
1.69455e-11
3.25582e-11
-2.66289e-11
8.6441e-11
4.65775e-12
4.26598e-11
2.74458e-11
4.82141e-11
8.74499e-11
-3.64092e-11
1.64904e-10
1.3489e-11
1.74736e-10
3.52685e-11
1.52653e-10
1.57987e-10
-7.03015e-11
3.05446e-10
-5.48614e-12
3.71803e-10
6.99145e-11
3.47148e-10
2.97816e-10
2.86516e-11
2.43384e-10
-1.30862e-11
2.57691e-10
-2.75971e-11
2.59781e-10
2.42622e-10
8.16546e-11
7.71989e-11
-3.70338e-13
4.74245e-11
-8.18886e-11
4.94332e-11
7.88447e-11
9.63754e-12
5.53461e-11
-3.67475e-12
2.32648e-11
-1.08404e-11
2.24913e-11
5.71639e-11
1.96754e-11
1.42594e-11
-3.18361e-13
6.52386e-12
-2.08175e-11
6.91408e-12
1.55289e-11
1.38082e-12
1.07399e-11
-6.98146e-13
1.4611e-12
-2.00748e-12
1.17952e-12
1.1514e-11
3.85858e-12
2.5438e-12
-1.54954e-13
1.01931e-12
-4.31527e-12
1.09011e-12
2.88345e-12
2.55886e-13
1.81092e-12
-1.28869e-13
1.0144e-13
-4.20636e-13
7.77901e-14
2.04218e-12
6.12983e-13
4.6139e-13
-5.73612e-14
1.29731e-13
-7.40736e-13
1.46089e-13
5.60715e-13
7.08712e-14
2.58974e-13
-3.40121e-14
2.31105e-14
-1.20591e-13
3.05558e-14
3.19531e-13
8.06094e-14
6.29261e-14
-2.17667e-14
1.62395e-14
-1.17969e-13
2.15165e-14
8.35893e-14
2.0166e-14
-1.47275e-14
-4.17954e-14
)
;

boundaryField
{
    inlet
    {
        type            calculated;
        value           uniform 0;
    }
    outlet
    {
        type            calculated;
        value           nonuniform List<scalar> 
16
(
-4.63105e-14
1.49406e-13
4.05885e-16
-2.51968e-13
1.49406e-13
5.73711e-13
2.72767e-13
-1.00878e-13
4.05885e-16
2.72767e-13
1.56035e-13
-2.09196e-13
-2.51968e-13
-1.00878e-13
-2.09196e-13
-4.05054e-13
)
;
    }
    walls
    {
        type            calculated;
        value           nonuniform List<scalar> 
320
(
0
0
0
0
7.09536e-29
1.65364e-25
6.57105e-23
4.44031e-20
6.47129e-18
1.68051e-20
2.04469e-23
2.40775e-26
6.0167e-30
0
0
0
0
0
0
0
0
0
0
0
1.51877e-26
2.39462e-23
2.11355e-20
8.53188e-18
4.21343e-16
4.99876e-18
4.37063e-21
8.41476e-24
1.60898e-27
0
0
0
0
0
0
0
0
0
0
0
6.07745e-27
1.65073e-23
1.05754e-20
4.51072e-18
2.03983e-16
2.46711e-18
2.58504e-21
6.28342e-24
8.58151e-28
0
0
0
0
0
0
0
0
0
0
0
3.2156e-29
7.53497e-26
3.18914e-23
2.29769e-20
3.1638e-18
8.23691e-21
9.24016e-24
1.36684e-26
4.79006e-30
0
0
0
0
0
0
0
0
0
0
0
-3.2156e-29
-7.53497e-26
-3.18914e-23
-2.29769e-20
-3.1638e-18
-8.23691e-21
-9.24016e-24
-1.36684e-26
-4.79006e-30
0
0
0
0
0
0
0
0
0
0
0
-6.30726e-27
-1.77391e-23
-1.12194e-20
-4.40484e-18
-1.99988e-16
-2.40846e-18
-2.5251e-21
-8.31677e-24
-1.34244e-27
0
0
0
0
0
0
0
0
0
0
0
-3.59507e-27
-1.12881e-23
-6.72606e-21
-3.11393e-18
-1.35361e-16
-1.6931e-18
-1.42859e-21
-4.37156e-24
-8.8861e-28
0
0
0
0
0
0
0
0
0
0
0
0
-4.18903e-26
-2.06753e-23
-1.60832e-20
-2.14308e-18
-5.58746e-21
-8.05151e-24
-1.50797e-26
0
0
0
0
0
0
0
0
0
0
0
0
7.09536e-29
1.65364e-25
6.57105e-23
4.44031e-20
6.47129e-18
1.68051e-20
2.04469e-23
2.40775e-26
6.0167e-30
0
0
0
0
0
0
0
0
0
0
0
1.51877e-26
2.39462e-23
2.11355e-20
8.53188e-18
4.21343e-16
4.99876e-18
4.37063e-21
8.41476e-24
1.60898e-27
0
0
0
0
0
0
0
0
0
0
0
6.07745e-27
1.65073e-23
1.05754e-20
4.51072e-18
2.03983e-16
2.46711e-18
2.58504e-21
6.28342e-24
8.58151e-28
0
0
0
0
0
0
0
0
0
0
0
3.2156e-29
7.53497e-26
3.18914e-23
2.29769e-20
3.1638e-18
8.23691e-21
9.24016e-24
1.36684e-26
4.79006e-30
0
0
0
0
0
0
0
0
0
0
0
-3.2156e-29
-7.53497e-26
-3.18914e-23
-2.29769e-20
-3.1638e-18
-8.23691e-21
-9.24016e-24
-1.36684e-26
-4.79006e-30
0
0
0
0
0
0
0
0
0
0
0
-6.30726e-27
-1.77391e-23
-1.12194e-20
-4.40484e-18
-1.99988e-16
-2.40846e-18
-2.5251e-21
-8.31677e-24
-1.34244e-27
0
0
0
0
0
0
0
0
0
0
0
-3.59507e-27
-1.12881e-23
-6.72606e-21
-3.11393e-18
-1.35361e-16
-1.6931e-18
-1.42859e-21
-4.37156e-24
-8.8861e-28
0
0
0
0
0
0
0
0
0
0
0
0
-4.18903e-26
-2.06753e-23
-1.60832e-20
-2.14308e-18
-5.58746e-21
-8.05151e-24
-1.50797e-26
0
0
0
0
0
0
0
0
)
;
    }
}


// ************************************************************************* //
