/*--------------------------------*- C++ -*----------------------------------*\
| =========                 |                                                 |
| \\      /  F ield         | OpenFOAM: The Open Source CFD Toolbox           |
|  \\    /   O peration     | Version:  5.x                                   |
|   \\  /    A nd           | Web:      www.OpenFOAM.org                      |
|    \\/     M anipulation  |                                                 |
\*---------------------------------------------------------------------------*/
FoamFile
{
    version     2.0;
    format      ascii;
    class       volVectorField;
    location    "0.04";
    object      U;
}
// * * * * * * * * * * * * * * * * * * * * * * * * * * * * * * * * * * * * * //

dimensions      [0 1 -1 0 0 0 0];

internalField   nonuniform List<vector> 
320
(
(-9.38036e-09 4.94758e-08 -9.38036e-09)
(-3.19695e-09 1.67205e-08 -2.11475e-09)
(2.35904e-08 4.09735e-08 -6.73922e-09)
(1.82103e-08 7.93375e-08 -1.35375e-08)
(-2.30495e-08 -9.59623e-08 -2.30495e-08)
(-7.02636e-09 -1.97645e-07 -5.09997e-08)
(4.17822e-08 -1.53805e-07 -3.63051e-08)
(2.03876e-08 -3.16113e-08 -1.08497e-08)
(-1.07001e-07 3.73451e-07 -1.07001e-07)
(-5.89323e-08 2.54887e-07 -9.00151e-08)
(1.88381e-07 3.38679e-07 -8.76631e-08)
(1.37281e-07 4.4996e-07 -1.10506e-07)
(-1.4099e-07 -8.1469e-08 -1.4099e-07)
(-5.30873e-08 -7.50237e-07 -3.71834e-07)
(2.49863e-07 -5.02712e-07 -2.72708e-07)
(1.32744e-07 9.83807e-08 -1.05377e-07)
(-7.53611e-07 1.77948e-06 -7.53611e-07)
(-4.75206e-07 9.20301e-07 -9.66102e-07)
(1.0366e-06 1.35967e-06 -8.1094e-07)
(7.22114e-07 2.04118e-06 -6.6737e-07)
(-1.00349e-06 1.80663e-06 -1.00349e-06)
(-5.36892e-07 -1.56596e-06 -2.7711e-06)
(1.44102e-06 -5.62764e-07 -1.88643e-06)
(8.26351e-07 2.14504e-06 -8.2465e-07)
(-4.01666e-06 8.76493e-06 -4.01666e-06)
(-2.8667e-06 3.55884e-06 -9.51344e-06)
(4.78598e-06 6.15201e-06 -6.86671e-06)
(3.35687e-06 9.35146e-06 -3.52001e-06)
(-6.30049e-06 1.78884e-05 -6.30049e-06)
(-3.47706e-06 1.15048e-05 -3.109e-05)
(7.57751e-06 1.13458e-05 -1.77108e-05)
(4.16496e-06 1.73468e-05 -4.80202e-06)
(-1.00954e-05 3.85119e-05 -1.00954e-05)
(-9.68678e-06 4.31529e-05 -4.17246e-05)
(1.07875e-05 4.14708e-05 -3.23964e-05)
(9.24226e-06 3.68887e-05 -9.12878e-06)
(5.23051e-06 5.27563e-05 5.23051e-06)
(2.28817e-06 6.01988e-05 2.7092e-05)
(-6.17167e-06 6.21022e-05 1.4936e-05)
(-3.08866e-06 5.23129e-05 3.97265e-06)
(1.18969e-05 2.15909e-05 1.18969e-05)
(1.04729e-05 1.82693e-05 4.63e-05)
(-1.32816e-05 2.09989e-05 3.52243e-05)
(-1.06245e-05 2.20181e-05 1.05453e-05)
(1.48051e-06 6.97415e-06 1.48051e-06)
(1.13953e-06 -2.41925e-06 6.03648e-06)
(-2.16074e-06 -8.4816e-07 3.98771e-06)
(-1.34306e-06 7.37322e-06 1.22433e-06)
(2.85368e-06 6.04544e-06 2.85368e-06)
(2.44745e-06 4.92024e-06 5.19938e-06)
(-3.26619e-06 5.39575e-06 4.34851e-06)
(-2.65628e-06 6.36557e-06 2.552e-06)
(2.35092e-07 -9.86631e-09 2.35092e-07)
(1.90061e-07 -2.42784e-06 1.09053e-06)
(-4.08124e-07 -2.00369e-06 7.49094e-07)
(-2.39799e-07 1.92984e-07 1.86383e-07)
(5.32602e-07 1.65317e-06 5.32602e-07)
(4.54673e-07 1.48596e-06 5.56843e-07)
(-6.36331e-07 1.56533e-06 5.16981e-07)
(-5.34939e-07 1.73681e-06 5.05402e-07)
(5.31274e-08 -3.54922e-07 5.31274e-08)
(3.86216e-08 -8.23937e-07 1.84441e-07)
(-9.16107e-08 -7.50477e-07 1.30047e-07)
(-5.0534e-08 -2.90128e-07 3.53113e-08)
(8.21599e-08 4.30405e-07 8.21599e-08)
(6.61885e-08 3.9032e-07 6.88372e-08)
(-1.07545e-07 4.10974e-07 7.12564e-08)
(-9.01105e-08 4.46024e-07 8.25336e-08)
(1.17129e-08 -1.3476e-07 1.17129e-08)
(7.02215e-09 -2.07932e-07 2.67852e-08)
(-2.32212e-08 -1.94926e-07 1.91847e-08)
(-1.33851e-08 -1.16438e-07 9.31607e-09)
(1.1744e-08 1.00349e-07 1.1744e-08)
(8.04107e-09 9.22073e-08 1.05355e-08)
(-1.76569e-08 9.71945e-08 1.0761e-08)
(-1.39191e-08 1.05645e-07 1.17074e-08)
(3.17926e-09 -4.84182e-08 3.17926e-09)
(1.58512e-09 -5.66164e-08 4.47313e-09)
(-7.23092e-09 -5.52404e-08 3.83658e-09)
(-4.39358e-09 -4.60994e-08 2.87538e-09)
(-2.11475e-09 1.67205e-08 -3.19695e-09)
(-8.64114e-11 -3.7803e-08 -8.64114e-11)
(1.18699e-08 -2.87351e-09 -3.0225e-09)
(1.14352e-08 5.52945e-08 -8.56023e-09)
(-5.09997e-08 -1.97645e-07 -7.02636e-09)
(-1.97075e-08 -2.90562e-07 -1.97075e-08)
(8.253e-08 -2.39104e-07 -2.38355e-08)
(4.60562e-08 -1.31356e-07 -9.93047e-10)
(-9.00151e-08 2.54887e-07 -5.89323e-08)
(-3.59959e-08 -7.16433e-08 -3.59959e-08)
(1.66642e-07 9.93004e-08 -5.76256e-08)
(1.14761e-07 3.57001e-07 -7.91464e-08)
(-3.71834e-07 -7.50237e-07 -5.30873e-08)
(-1.81037e-07 -1.66524e-06 -1.81037e-07)
(5.19717e-07 -1.25898e-06 -2.21122e-07)
(3.00955e-07 -4.73686e-07 -5.26271e-08)
(-9.66102e-07 9.20301e-07 -4.75206e-07)
(-5.14051e-07 -1.5158e-06 -5.14051e-07)
(1.33478e-06 -2.73717e-07 -6.95082e-07)
(8.67797e-07 1.33577e-06 -5.35531e-07)
(-2.7711e-06 -1.56596e-06 -5.36892e-07)
(-1.40314e-06 -1.04443e-05 -1.40314e-06)
(3.41356e-06 -6.8664e-06 -1.61682e-06)
(1.89228e-06 -7.77878e-07 -5.35607e-07)
(-9.51344e-06 3.55884e-06 -2.8667e-06)
(-5.63491e-06 -2.52937e-05 -5.63491e-06)
(1.08788e-05 -9.9336e-06 -6.89072e-06)
(6.70686e-06 5.51937e-06 -3.13535e-06)
(-3.109e-05 1.15048e-05 -3.47706e-06)
(-1.48861e-05 -3.10524e-05 -1.48861e-05)
(3.42607e-05 -1.98898e-05 -1.35902e-05)
(1.70903e-05 1.1619e-05 -3.22808e-06)
(-4.17246e-05 4.31529e-05 -9.68678e-06)
(-3.23321e-05 -0.000279741 -3.23321e-05)
(4.45365e-05 -0.000113416 -4.68354e-05)
(3.24912e-05 4.30707e-05 -1.10951e-05)
(2.7092e-05 6.01988e-05 2.28817e-06)
(1.19757e-05 -0.000249763 1.19757e-05)
(-2.95526e-05 -0.000177031 9.26673e-06)
(-1.40647e-05 6.19149e-05 2.09011e-06)
(4.63e-05 1.82693e-05 1.04729e-05)
(3.41388e-05 -2.0793e-05 3.41388e-05)
(-5.02272e-05 -3.28705e-06 4.82358e-05)
(-3.52931e-05 2.0003e-05 1.17333e-05)
(6.03648e-06 -2.41925e-06 1.13953e-06)
(3.67025e-06 -4.62122e-05 3.67025e-06)
(-7.12348e-06 -3.38716e-05 5.1723e-06)
(-4.11022e-06 -8.71142e-07 1.11503e-06)
(5.19938e-06 4.92024e-06 2.44745e-06)
(3.89234e-06 -1.36704e-07 3.89234e-06)
(-5.95787e-06 2.11015e-06 5.47299e-06)
(-4.4514e-06 5.46276e-06 2.78294e-06)
(1.09053e-06 -2.42784e-06 1.90061e-07)
(6.99264e-07 -7.32633e-06 6.99264e-07)
(-1.33051e-06 -6.04694e-06 1.04274e-06)
(-8.02623e-07 -1.92835e-06 2.01286e-07)
(5.56843e-07 1.48596e-06 4.54673e-07)
(4.24914e-07 5.6422e-07 4.24914e-07)
(-6.82372e-07 9.41483e-07 5.75918e-07)
(-5.46328e-07 1.60383e-06 5.24414e-07)
(1.84441e-07 -8.23937e-07 3.86216e-08)
(1.13877e-07 -1.3444e-06 1.13877e-07)
(-2.43238e-07 -1.22567e-06 1.81025e-07)
(-1.45312e-07 -7.28407e-07 4.18212e-08)
(6.88372e-08 3.9032e-07 6.61885e-08)
(5.23973e-08 2.29203e-07 5.23973e-08)
(-9.20286e-08 2.98512e-07 6.76987e-08)
(-7.88343e-08 4.22198e-07 7.97754e-08)
(2.67852e-08 -2.07932e-07 7.02215e-09)
(1.4097e-08 -2.70054e-07 1.4097e-08)
(-4.09858e-08 -2.58924e-07 2.44441e-08)
(-2.32808e-08 -1.89536e-07 9.60653e-09)
(1.05355e-08 9.22073e-08 8.04107e-09)
(6.56636e-09 6.97799e-08 6.56636e-09)
(-1.61753e-08 8.19672e-08 8.61686e-09)
(-1.29874e-08 9.97617e-08 9.84024e-09)
(4.47313e-09 -5.66164e-08 1.58512e-09)
(2.22727e-09 -6.21461e-08 2.22727e-09)
(-8.97871e-09 -6.16375e-08 3.67919e-09)
(-5.36136e-09 -5.45463e-08 2.24781e-09)
(-6.73922e-09 4.09735e-08 2.35904e-08)
(-3.0225e-09 -2.87351e-09 1.18699e-08)
(1.53708e-08 1.50143e-08 1.53708e-08)
(1.31838e-08 7.22938e-08 2.72814e-08)
(-3.63051e-08 -1.53805e-07 4.17822e-08)
(-2.38355e-08 -2.39104e-07 8.253e-08)
(6.13641e-08 -2.12921e-07 6.13641e-08)
(4.36413e-08 -1.03144e-07 3.07517e-08)
(-8.76631e-08 3.38679e-07 1.88381e-07)
(-5.76256e-08 9.93004e-08 1.66642e-07)
(1.47275e-07 1.49576e-07 1.47275e-07)
(1.18923e-07 4.11393e-07 1.75618e-07)
(-2.72708e-07 -5.02712e-07 2.49863e-07)
(-2.21122e-07 -1.25898e-06 5.19717e-07)
(3.82491e-07 -1.16397e-06 3.82491e-07)
(3.02525e-07 -3.58398e-07 2.09868e-07)
(-8.1094e-07 1.35967e-06 1.0366e-06)
(-6.95082e-07 -2.73717e-07 1.33478e-06)
(1.02512e-06 5.97033e-09 1.02512e-06)
(8.93327e-07 1.62846e-06 8.84789e-07)
(-1.88643e-06 -5.62764e-07 1.44102e-06)
(-1.61682e-06 -6.8664e-06 3.41356e-06)
(2.32873e-06 -6.87462e-06 2.32873e-06)
(1.90436e-06 -4.17268e-07 1.21488e-06)
(-6.86671e-06 6.15201e-06 4.78598e-06)
(-6.89072e-06 -9.9336e-06 1.08788e-05)
(7.34982e-06 -5.70416e-06 7.34982e-06)
(7.0935e-06 7.00729e-06 4.10155e-06)
(-1.77108e-05 1.13458e-05 7.57751e-06)
(-1.35902e-05 -1.98898e-05 3.42607e-05)
(1.93777e-05 -3.20177e-05 1.93777e-05)
(1.43853e-05 9.71695e-06 5.8462e-06)
(-3.23964e-05 4.14708e-05 1.07875e-05)
(-4.68354e-05 -0.000113416 4.45365e-05)
(3.20484e-05 -7.02978e-05 3.20484e-05)
(4.38634e-05 4.02674e-05 9.52684e-06)
(1.4936e-05 6.21022e-05 -6.17167e-06)
(9.26673e-06 -0.000177031 -2.95526e-05)
(-1.61908e-05 -0.000276083 -1.61908e-05)
(-1.02259e-05 5.84941e-05 -4.67138e-06)
(3.52243e-05 2.09989e-05 -1.32816e-05)
(4.82358e-05 -3.28705e-06 -5.02272e-05)
(-3.57506e-05 -2.01848e-06 -3.57506e-05)
(-4.6e-05 2.13132e-05 -1.15567e-05)
(3.98771e-06 -8.4816e-07 -2.16074e-06)
(5.1723e-06 -3.38716e-05 -7.12348e-06)
(-4.73749e-06 -4.46645e-05 -4.73749e-06)
(-5.27404e-06 -1.35401e-06 -1.89323e-06)
(4.34851e-06 5.39575e-06 -3.26619e-06)
(5.47299e-06 2.11015e-06 -5.95787e-06)
(-4.38757e-06 1.46062e-06 -4.38757e-06)
(-5.31536e-06 5.7591e-06 -2.83883e-06)
(7.49094e-07 -2.00369e-06 -4.08124e-07)
(1.04274e-06 -6.04694e-06 -1.33051e-06)
(-9.10675e-07 -7.02177e-06 -9.10675e-07)
(-1.06789e-06 -2.05719e-06 -3.66649e-07)
(5.16981e-07 1.56533e-06 -6.36331e-07)
(5.75918e-07 9.41483e-07 -6.82372e-07)
(-5.3938e-07 7.5125e-07 -5.3938e-07)
(-5.93788e-07 1.64292e-06 -5.74402e-07)
(1.30047e-07 -7.50477e-07 -9.16107e-08)
(1.81025e-07 -1.22567e-06 -2.43238e-07)
(-1.64775e-07 -1.284e-06 -1.64775e-07)
(-1.88469e-07 -7.39964e-07 -7.41868e-08)
(7.12564e-08 4.10974e-07 -1.07545e-07)
(6.76987e-08 2.98512e-07 -9.20286e-08)
(-8.07227e-08 2.63667e-07 -8.07227e-08)
(-8.02655e-08 4.26461e-07 -9.929e-08)
(1.91847e-08 -1.94926e-07 -2.32212e-08)
(2.44441e-08 -2.58924e-07 -4.09858e-08)
(-2.79933e-08 -2.58609e-07 -2.79933e-08)
(-2.82314e-08 -1.88017e-07 -1.90315e-08)
(1.0761e-08 9.71945e-08 -1.76569e-08)
(8.61686e-09 8.19672e-08 -1.61753e-08)
(-1.45209e-08 7.83487e-08 -1.45209e-08)
(-1.31177e-08 1.00735e-07 -1.66659e-08)
(3.83658e-09 -5.52404e-08 -7.23092e-09)
(3.67919e-09 -6.16375e-08 -8.97871e-09)
(-7.29875e-09 -6.07112e-08 -7.29875e-09)
(-5.78052e-09 -5.39176e-08 -6.52077e-09)
(-1.35375e-08 7.93375e-08 1.82103e-08)
(-8.56023e-09 5.52945e-08 1.14352e-08)
(2.72814e-08 7.22938e-08 1.31838e-08)
(2.30092e-08 1.10063e-07 2.30092e-08)
(-1.08497e-08 -3.16113e-08 2.03876e-08)
(-9.93047e-10 -1.31356e-07 4.60562e-08)
(3.07517e-08 -1.03144e-07 4.36413e-08)
(1.54647e-08 1.75072e-08 1.54647e-08)
(-1.10506e-07 4.4996e-07 1.37281e-07)
(-7.91464e-08 3.57001e-07 1.14761e-07)
(1.75618e-07 4.11393e-07 1.18923e-07)
(1.41109e-07 5.21921e-07 1.41109e-07)
(-1.05377e-07 9.83807e-08 1.32744e-07)
(-5.26271e-08 -4.73686e-07 3.00955e-07)
(2.09868e-07 -3.58398e-07 3.02525e-07)
(1.28037e-07 2.34152e-07 1.28037e-07)
(-6.6737e-07 2.04118e-06 7.22114e-07)
(-5.35531e-07 1.33577e-06 8.67797e-07)
(8.84789e-07 1.62846e-06 8.93327e-07)
(7.19208e-07 2.26673e-06 7.19208e-07)
(-8.2465e-07 2.14504e-06 8.26351e-07)
(-5.35607e-07 -7.77878e-07 1.89228e-06)
(1.21488e-06 -4.17268e-07 1.90436e-06)
(7.8321e-07 2.40004e-06 7.8321e-07)
(-3.52001e-06 9.35146e-06 3.35687e-06)
(-3.13535e-06 5.51937e-06 6.70686e-06)
(4.10155e-06 7.00729e-06 7.0935e-06)
(3.46344e-06 9.79533e-06 3.46344e-06)
(-4.80202e-06 1.73468e-05 4.16496e-06)
(-3.22808e-06 1.1619e-05 1.70903e-05)
(5.8462e-06 9.71695e-06 1.43853e-05)
(3.72942e-06 1.67846e-05 3.72942e-06)
(-9.12878e-06 3.68887e-05 9.24226e-06)
(-1.10951e-05 4.30707e-05 3.24912e-05)
(9.52684e-06 4.02674e-05 4.38634e-05)
(1.03569e-05 3.55222e-05 1.03569e-05)
(3.97265e-06 5.23129e-05 -3.08866e-06)
(2.09011e-06 6.19149e-05 -1.40647e-05)
(-4.67138e-06 5.84941e-05 -1.02259e-05)
(-2.69606e-06 5.16829e-05 -2.69606e-06)
(1.05453e-05 2.20181e-05 -1.06245e-05)
(1.17333e-05 2.0003e-05 -3.52931e-05)
(-1.15567e-05 2.13132e-05 -4.6e-05)
(-1.15363e-05 2.22019e-05 -1.15363e-05)
(1.22433e-06 7.37322e-06 -1.34306e-06)
(1.11503e-06 -8.71142e-07 -4.11022e-06)
(-1.89323e-06 -1.35401e-06 -5.27404e-06)
(-1.31302e-06 7.63036e-06 -1.31302e-06)
(2.552e-06 6.36557e-06 -2.65628e-06)
(2.78294e-06 5.46276e-06 -4.4514e-06)
(-2.83883e-06 5.7591e-06 -5.31536e-06)
(-2.87106e-06 6.67932e-06 -2.87106e-06)
(1.86382e-07 1.92984e-07 -2.39799e-07)
(2.01286e-07 -1.92835e-06 -8.02623e-07)
(-3.66649e-07 -2.05719e-06 -1.06789e-06)
(-2.58579e-07 3.31018e-07 -2.58579e-07)
(5.05402e-07 1.73681e-06 -5.34939e-07)
(5.24414e-07 1.60383e-06 -5.46328e-07)
(-5.74402e-07 1.64292e-06 -5.93788e-07)
(-5.70626e-07 1.83014e-06 -5.70626e-07)
(3.53113e-08 -2.90128e-07 -5.0534e-08)
(4.18212e-08 -7.28407e-07 -1.45312e-07)
(-7.41868e-08 -7.39964e-07 -1.88469e-07)
(-5.42479e-08 -2.47769e-07 -5.42479e-08)
(8.25336e-08 4.46024e-07 -9.01105e-08)
(7.97754e-08 4.22198e-07 -7.88343e-08)
(-9.929e-08 4.26461e-07 -8.02655e-08)
(-9.51761e-08 4.64612e-07 -9.51761e-08)
(9.31607e-09 -1.16438e-07 -1.33851e-08)
(9.60653e-09 -1.89536e-07 -2.32808e-08)
(-1.90315e-08 -1.88017e-07 -2.82314e-08)
(-1.42192e-08 -1.05263e-07 -1.42192e-08)
(1.17074e-08 1.05645e-07 -1.39191e-08)
(9.84024e-09 9.97617e-08 -1.29874e-08)
(-1.66659e-08 1.00735e-07 -1.31177e-08)
(-1.47746e-08 1.09752e-07 -1.47746e-08)
(2.87538e-09 -4.60994e-08 -4.39358e-09)
(2.24781e-09 -5.45463e-08 -5.36136e-09)
(-6.52077e-09 -5.39176e-08 -5.78052e-09)
(-4.66591e-09 -4.42046e-08 -4.66591e-09)
)
;

boundaryField
{
    inlet
    {
        type            fixedValue;
        value           uniform (0 0 0);
    }
    outlet
    {
        type            zeroGradient;
    }
    walls
    {
        type            fixedValue;
        value           uniform (0 0 0);
    }
}


// ************************************************************************* //
