/*--------------------------------*- C++ -*----------------------------------*\
| =========                 |                                                 |
| \\      /  F ield         | OpenFOAM: The Open Source CFD Toolbox           |
|  \\    /   O peration     | Version:  5.x                                   |
|   \\  /    A nd           | Web:      www.OpenFOAM.org                      |
|    \\/     M anipulation  |                                                 |
\*---------------------------------------------------------------------------*/
FoamFile
{
    version     2.0;
    format      ascii;
    class       volVectorField;
    location    "0.04";
    object      Us;
}
// * * * * * * * * * * * * * * * * * * * * * * * * * * * * * * * * * * * * * //

dimensions      [0 1 -1 0 0 0 0];

internalField   nonuniform List<vector> 
320
(
(-3.2886e-22 -2.5259e-18 -3.2886e-22)
(-2.42359e-21 -1.8615e-17 -2.42359e-21)
(-2.42118e-21 -1.85965e-17 -2.42118e-21)
(-3.15544e-22 -2.42362e-18 -3.15544e-22)
(-1.89769e-20 -1.45757e-16 -1.89769e-20)
(-1.55452e-19 -1.19399e-15 -1.55452e-19)
(-1.55346e-19 -1.19318e-15 -1.55346e-19)
(-1.83415e-20 -1.40877e-16 -1.83415e-20)
(-1.08252e-18 -8.31455e-15 -1.08252e-18)
(-9.9663e-18 -7.65487e-14 -9.9663e-18)
(-9.96186e-18 -7.65146e-14 -9.96186e-18)
(-1.05356e-18 -8.09211e-15 -1.05356e-18)
(-5.95534e-17 -4.57415e-13 -5.95534e-17)
(-6.26066e-16 -4.80866e-12 -6.26066e-16)
(-6.25898e-16 -4.80737e-12 -6.25898e-16)
(-5.83459e-17 -4.48141e-13 -5.83459e-17)
(-3.12065e-15 -2.3969e-11 -3.12065e-15)
(-3.82452e-14 -2.93752e-10 -3.82452e-14)
(-3.82397e-14 -2.93709e-10 -3.82397e-14)
(-3.07656e-15 -2.36303e-11 -3.07656e-15)
(-1.52645e-13 -1.17243e-09 -1.52645e-13)
(-2.24343e-12 -1.72312e-08 -2.24343e-12)
(-2.24328e-12 -1.72301e-08 -2.24328e-12)
(-1.51353e-13 -1.1625e-09 -1.51353e-13)
(-6.72095e-12 -5.16219e-08 -6.72095e-12)
(-1.23404e-10 -9.47836e-07 -1.23404e-10)
(-1.23401e-10 -9.47815e-07 -1.23401e-10)
(-6.69703e-12 -5.14383e-08 -6.69703e-12)
(-2.46656e-10 -1.8945e-06 -2.46656e-10)
(-6.03551e-09 -4.63573e-05 -6.03551e-09)
(-6.03549e-09 -4.63571e-05 -6.03549e-09)
(-2.46638e-10 -1.89437e-06 -2.46638e-10)
(-6.03775e-09 -4.63745e-05 -6.03775e-09)
(-2.21473e-07 -0.00170108 -2.21473e-07)
(-2.21473e-07 -0.00170108 -2.21473e-07)
(-6.03774e-09 -4.63744e-05 -6.03774e-09)
(-2.46486e-10 -1.8932e-06 -2.46486e-10)
(-6.03326e-09 -4.634e-05 -6.03326e-09)
(-6.03328e-09 -4.63401e-05 -6.03328e-09)
(-2.46509e-10 -1.89338e-06 -2.46509e-10)
(-5.56471e-12 -4.27412e-08 -5.56471e-12)
(-1.22733e-10 -9.4268e-07 -1.22733e-10)
(-1.22198e-10 -9.38569e-07 -1.22198e-10)
(-4.99181e-12 -3.83408e-08 -4.99181e-12)
(-7.50275e-14 -5.76268e-10 -7.50275e-14)
(-1.64341e-12 -1.26226e-08 -1.64341e-12)
(-1.65732e-12 -1.27295e-08 -1.65732e-12)
(-9.02681e-14 -6.93327e-10 -9.02681e-14)
(-1.01152e-15 -7.76923e-12 -1.01152e-15)
(-2.20051e-14 -1.69015e-10 -2.20051e-14)
(-2.24734e-14 -1.72612e-10 -2.24734e-14)
(-1.5302e-15 -1.17531e-11 -1.5302e-15)
(-1.36385e-17 -1.04754e-13 -1.36385e-17)
(-2.94657e-16 -2.26318e-12 -2.94657e-16)
(-3.04702e-16 -2.34034e-12 -3.04702e-16)
(-2.49015e-17 -1.91262e-13 -2.49015e-17)
(-1.83909e-19 -1.41256e-15 -1.83909e-19)
(-3.94573e-18 -3.03062e-14 -3.94573e-18)
(-4.13077e-18 -3.17274e-14 -4.13077e-18)
(-3.93969e-19 -3.02598e-15 -3.93969e-19)
(-2.48014e-21 -1.90493e-17 -2.48014e-21)
(-5.28392e-20 -4.05845e-16 -5.28392e-20)
(-5.59932e-20 -4.3007e-16 -5.59932e-20)
(-6.10573e-21 -4.68966e-17 -6.10573e-21)
(-3.34495e-23 -2.56918e-19 -3.34495e-23)
(-7.07624e-22 -5.43508e-18 -7.07624e-22)
(-7.58912e-22 -5.82902e-18 -7.58912e-22)
(-9.31465e-23 -7.15436e-19 -9.31465e-23)
(-4.51174e-25 -3.46535e-21 -4.51174e-25)
(-9.4769e-24 -7.27897e-20 -9.4769e-24)
(-1.02849e-23 -7.89957e-20 -1.02849e-23)
(-1.40344e-24 -1.07795e-20 -1.40344e-24)
(-6.08611e-27 -4.67459e-23 -6.08611e-27)
(-1.26926e-25 -9.74884e-22 -1.26926e-25)
(-1.39368e-25 -1.07045e-21 -1.39368e-25)
(-2.09341e-26 -1.6079e-22 -2.09341e-26)
(-8.40663e-29 -6.45692e-25 -8.40663e-29)
(-1.73052e-27 -1.32917e-23 -1.73052e-27)
(-1.92203e-27 -1.47626e-23 -1.92203e-27)
(-3.1556e-28 -2.42374e-24 -3.1556e-28)
(-2.42359e-21 -1.8615e-17 -2.42359e-21)
(-1.97998e-20 -1.52078e-16 -1.97998e-20)
(-1.97736e-20 -1.51876e-16 -1.97736e-20)
(-2.32778e-21 -1.78791e-17 -2.32778e-21)
(-1.55452e-19 -1.19399e-15 -1.55452e-19)
(-1.42966e-18 -1.09809e-14 -1.42966e-18)
(-1.42841e-18 -1.09713e-14 -1.42841e-18)
(-1.50592e-19 -1.15666e-15 -1.50592e-19)
(-9.9663e-18 -7.65487e-14 -9.9663e-18)
(-1.04676e-16 -8.0399e-13 -1.04676e-16)
(-1.0462e-16 -8.03558e-13 -1.0462e-16)
(-9.7318e-18 -7.47475e-14 -9.7318e-18)
(-6.26066e-16 -4.80866e-12 -6.26066e-16)
(-7.66678e-15 -5.88866e-11 -7.66678e-15)
(-7.66449e-15 -5.88691e-11 -7.66449e-15)
(-6.1585e-16 -4.73019e-12 -6.1585e-16)
(-3.82452e-14 -2.93752e-10 -3.82452e-14)
(-5.61737e-13 -4.31456e-09 -5.61737e-13)
(-5.61658e-13 -4.31396e-09 -5.61658e-13)
(-3.78709e-14 -2.90877e-10 -3.78709e-14)
(-2.24343e-12 -1.72312e-08 -2.24343e-12)
(-4.11728e-11 -3.16238e-07 -4.11728e-11)
(-4.11707e-11 -3.16222e-07 -4.11707e-11)
(-2.23394e-12 -1.71584e-08 -2.23394e-12)
(-1.23404e-10 -9.47836e-07 -1.23404e-10)
(-3.01888e-09 -2.31872e-05 -3.01888e-09)
(-3.01885e-09 -2.3187e-05 -3.01885e-09)
(-1.23366e-10 -9.47542e-07 -1.23366e-10)
(-6.03551e-09 -4.63573e-05 -6.03551e-09)
(-2.21432e-07 -0.00170076 -2.21432e-07)
(-2.21432e-07 -0.00170076 -2.21432e-07)
(-6.03551e-09 -4.63573e-05 -6.03551e-09)
(-2.21473e-07 -0.00170108 -2.21473e-07)
(-1.62471e-05 -0.12479 -1.62471e-05)
(-1.62471e-05 -0.12479 -1.62471e-05)
(-2.21473e-07 -0.00170108 -2.21473e-07)
(-6.03326e-09 -4.634e-05 -6.03326e-09)
(-2.21391e-07 -0.00170045 -2.21391e-07)
(-2.21391e-07 -0.00170045 -2.21391e-07)
(-6.03329e-09 -4.63402e-05 -6.03329e-09)
(-1.22733e-10 -9.4268e-07 -1.22733e-10)
(-3.01868e-09 -2.31857e-05 -3.01868e-09)
(-3.01771e-09 -2.31783e-05 -3.01771e-09)
(-1.21712e-10 -9.34837e-07 -1.21712e-10)
(-1.64341e-12 -1.26226e-08 -1.64341e-12)
(-4.00768e-11 -3.0782e-07 -4.00768e-11)
(-4.05742e-11 -3.1164e-07 -4.05742e-11)
(-2.18206e-12 -1.67598e-08 -2.18206e-12)
(-2.20051e-14 -1.69015e-10 -2.20051e-14)
(-5.32073e-13 -4.08672e-09 -5.32073e-13)
(-5.45447e-13 -4.18944e-09 -5.45447e-13)
(-3.66732e-14 -2.81678e-10 -3.66732e-14)
(-2.94657e-16 -2.26318e-12 -2.94657e-16)
(-7.06405e-15 -5.42573e-11 -7.06405e-15)
(-7.33142e-15 -5.63109e-11 -7.33142e-15)
(-5.91672e-16 -4.54449e-12 -5.91672e-16)
(-3.94573e-18 -3.03062e-14 -3.94573e-18)
(-9.37866e-17 -7.20352e-13 -9.37866e-17)
(-9.85279e-17 -7.56769e-13 -9.85279e-17)
(-9.28021e-18 -7.1279e-14 -9.28021e-18)
(-5.28392e-20 -4.05845e-16 -5.28392e-20)
(-1.24518e-18 -9.56391e-15 -1.24518e-18)
(-1.32394e-18 -1.01688e-14 -1.32394e-18)
(-1.4258e-19 -1.09513e-15 -1.4258e-19)
(-7.07624e-22 -5.43508e-18 -7.07624e-22)
(-1.65321e-20 -1.26979e-16 -1.65321e-20)
(-1.77875e-20 -1.36621e-16 -1.77875e-20)
(-2.15627e-21 -1.65618e-17 -2.15627e-21)
(-9.4769e-24 -7.27897e-20 -9.4769e-24)
(-2.19496e-22 -1.68589e-18 -2.19496e-22)
(-2.38946e-22 -1.83529e-18 -2.38946e-22)
(-3.22055e-23 -2.47363e-19 -3.22055e-23)
(-1.26926e-25 -9.74884e-22 -1.26926e-25)
(-2.91428e-24 -2.23839e-20 -2.91428e-24)
(-3.20944e-24 -2.46509e-20 -3.20944e-24)
(-4.76186e-25 -3.65746e-21 -4.76186e-25)
(-1.73052e-27 -1.32917e-23 -1.73052e-27)
(-3.92232e-26 -3.01264e-22 -3.92232e-26)
(-4.36912e-26 -3.35582e-22 -4.36912e-26)
(-7.08553e-27 -5.44222e-23 -7.08553e-27)
(-2.42118e-21 -1.85965e-17 -2.42118e-21)
(-1.97736e-20 -1.51876e-16 -1.97736e-20)
(-1.96365e-20 -1.50823e-16 -1.96365e-20)
(-2.20244e-21 -1.69164e-17 -2.20244e-21)
(-1.55346e-19 -1.19318e-15 -1.55346e-19)
(-1.42841e-18 -1.09713e-14 -1.42841e-18)
(-1.42129e-18 -1.09166e-14 -1.42129e-18)
(-1.44017e-19 -1.10616e-15 -1.44017e-19)
(-9.96186e-18 -7.65146e-14 -9.96186e-18)
(-1.0462e-16 -8.03558e-13 -1.0462e-16)
(-1.04268e-16 -8.00857e-13 -1.04268e-16)
(-9.40457e-18 -7.22341e-14 -9.40457e-18)
(-6.25898e-16 -4.80737e-12 -6.25898e-16)
(-7.66449e-15 -5.88691e-11 -7.66449e-15)
(-7.64888e-15 -5.87492e-11 -7.64888e-15)
(-6.01219e-16 -4.61782e-12 -6.01219e-16)
(-3.82397e-14 -2.93709e-10 -3.82397e-14)
(-5.61658e-13 -4.31396e-09 -5.61658e-13)
(-5.61081e-13 -4.30952e-09 -5.61081e-13)
(-3.73283e-14 -2.86709e-10 -3.73283e-14)
(-2.24328e-12 -1.72301e-08 -2.24328e-12)
(-4.11707e-11 -3.16222e-07 -4.11707e-11)
(-4.11565e-11 -3.16113e-07 -4.11565e-11)
(-2.22077e-12 -1.70572e-08 -2.22077e-12)
(-1.23401e-10 -9.47815e-07 -1.23401e-10)
(-3.01885e-09 -2.3187e-05 -3.01885e-09)
(-3.01885e-09 -2.3187e-05 -3.01885e-09)
(-1.23393e-10 -9.47752e-07 -1.23393e-10)
(-6.03549e-09 -4.63571e-05 -6.03549e-09)
(-2.21432e-07 -0.00170076 -2.21432e-07)
(-2.21432e-07 -0.00170076 -2.21432e-07)
(-6.03551e-09 -4.63573e-05 -6.03551e-09)
(-2.21473e-07 -0.00170108 -2.21473e-07)
(-1.62471e-05 -0.12479 -1.62471e-05)
(-1.62471e-05 -0.12479 -1.62471e-05)
(-2.21473e-07 -0.00170108 -2.21473e-07)
(-6.03328e-09 -4.63401e-05 -6.03328e-09)
(-2.21391e-07 -0.00170045 -2.21391e-07)
(-2.21391e-07 -0.00170045 -2.21391e-07)
(-6.03327e-09 -4.63401e-05 -6.03327e-09)
(-1.22198e-10 -9.38569e-07 -1.22198e-10)
(-3.01771e-09 -2.31783e-05 -3.01771e-09)
(-3.01871e-09 -2.31859e-05 -3.01871e-09)
(-1.23289e-10 -9.46949e-07 -1.23289e-10)
(-1.65732e-12 -1.27295e-08 -1.65732e-12)
(-4.05742e-11 -3.1164e-07 -4.05742e-11)
(-4.11104e-11 -3.15759e-07 -4.11104e-11)
(-2.2385e-12 -1.71933e-08 -2.2385e-12)
(-2.24734e-14 -1.72612e-10 -2.24734e-14)
(-5.45447e-13 -4.18944e-09 -5.45447e-13)
(-5.59677e-13 -4.29874e-09 -5.59677e-13)
(-3.80945e-14 -2.92594e-10 -3.80945e-14)
(-3.04702e-16 -2.34034e-12 -3.04702e-16)
(-7.33142e-15 -5.63109e-11 -7.33142e-15)
(-7.61699e-15 -5.85042e-11 -7.61699e-15)
(-6.22219e-16 -4.77911e-12 -6.22219e-16)
(-4.13077e-18 -3.17274e-14 -4.13077e-18)
(-9.85279e-17 -7.56769e-13 -9.85279e-17)
(-1.03632e-16 -7.95968e-13 -1.03632e-16)
(-9.87867e-18 -7.58757e-14 -9.87867e-18)
(-5.59932e-20 -4.3007e-16 -5.59932e-20)
(-1.32394e-18 -1.01688e-14 -1.32394e-18)
(-1.40951e-18 -1.08261e-14 -1.40951e-18)
(-1.53607e-19 -1.17982e-15 -1.53607e-19)
(-7.58912e-22 -5.82902e-18 -7.58912e-22)
(-1.77875e-20 -1.36621e-16 -1.77875e-20)
(-1.91652e-20 -1.47203e-16 -1.91652e-20)
(-2.35069e-21 -1.80551e-17 -2.35069e-21)
(-1.02849e-23 -7.89957e-20 -1.02849e-23)
(-2.38946e-22 -1.83529e-18 -2.38946e-22)
(-2.60515e-22 -2.00095e-18 -2.60515e-22)
(-3.55224e-23 -2.72839e-19 -3.55224e-23)
(-1.39368e-25 -1.07045e-21 -1.39368e-25)
(-3.20944e-24 -2.46509e-20 -3.20944e-24)
(-3.54021e-24 -2.71915e-20 -3.54021e-24)
(-5.31328e-25 -4.081e-21 -5.31328e-25)
(-1.92203e-27 -1.47626e-23 -1.92203e-27)
(-4.36912e-26 -3.35582e-22 -4.36912e-26)
(-4.87518e-26 -3.7445e-22 -4.87518e-26)
(-7.99666e-27 -6.14204e-23 -7.99666e-27)
(-3.15544e-22 -2.42362e-18 -3.15544e-22)
(-2.32778e-21 -1.78791e-17 -2.32778e-21)
(-2.20244e-21 -1.69164e-17 -2.20244e-21)
(-1.66314e-22 -1.27742e-18 -1.66314e-22)
(-1.83415e-20 -1.40877e-16 -1.83415e-20)
(-1.50592e-19 -1.15666e-15 -1.50592e-19)
(-1.44017e-19 -1.10616e-15 -1.44017e-19)
(-1.06024e-20 -8.14344e-17 -1.06024e-20)
(-1.05356e-18 -8.09211e-15 -1.05356e-18)
(-9.7318e-18 -7.47475e-14 -9.7318e-18)
(-9.40457e-18 -7.22341e-14 -9.40457e-18)
(-6.72502e-19 -5.16532e-15 -6.72502e-19)
(-5.83459e-17 -4.48141e-13 -5.83459e-17)
(-6.1585e-16 -4.73019e-12 -6.1585e-16)
(-6.01219e-16 -4.61782e-12 -6.01219e-16)
(-4.14682e-17 -3.18507e-13 -4.14682e-17)
(-3.07656e-15 -2.36303e-11 -3.07656e-15)
(-3.78709e-14 -2.90877e-10 -3.78709e-14)
(-3.73283e-14 -2.86709e-10 -3.73283e-14)
(-2.45434e-15 -1.88512e-11 -2.45434e-15)
(-1.51353e-13 -1.1625e-09 -1.51353e-13)
(-2.23394e-12 -1.71584e-08 -2.23394e-12)
(-2.22077e-12 -1.70572e-08 -2.22077e-12)
(-1.36133e-13 -1.0456e-09 -1.36133e-13)
(-6.69703e-12 -5.14383e-08 -6.69703e-12)
(-1.23366e-10 -9.47542e-07 -1.23366e-10)
(-1.23393e-10 -9.47752e-07 -1.23393e-10)
(-6.70509e-12 -5.15001e-08 -6.70509e-12)
(-2.46638e-10 -1.89437e-06 -2.46638e-10)
(-6.03551e-09 -4.63573e-05 -6.03551e-09)
(-6.03551e-09 -4.63573e-05 -6.03551e-09)
(-2.46669e-10 -1.8946e-06 -2.46669e-10)
(-6.03774e-09 -4.63744e-05 -6.03774e-09)
(-2.21473e-07 -0.00170108 -2.21473e-07)
(-2.21473e-07 -0.00170108 -2.21473e-07)
(-6.03775e-09 -4.63745e-05 -6.03775e-09)
(-2.46509e-10 -1.89338e-06 -2.46509e-10)
(-6.03329e-09 -4.63402e-05 -6.03329e-09)
(-6.03327e-09 -4.63401e-05 -6.03327e-09)
(-2.46503e-10 -1.89333e-06 -2.46503e-10)
(-4.99181e-12 -3.83408e-08 -4.99181e-12)
(-1.21712e-10 -9.34837e-07 -1.21712e-10)
(-1.23289e-10 -9.46949e-07 -1.23289e-10)
(-6.71363e-12 -5.15657e-08 -6.71363e-12)
(-9.02681e-14 -6.93327e-10 -9.02681e-14)
(-2.18206e-12 -1.67598e-08 -2.18206e-12)
(-2.2385e-12 -1.71933e-08 -2.2385e-12)
(-1.52397e-13 -1.17052e-09 -1.52397e-13)
(-1.5302e-15 -1.17531e-11 -1.5302e-15)
(-3.66732e-14 -2.81678e-10 -3.66732e-14)
(-3.80945e-14 -2.92594e-10 -3.80945e-14)
(-3.11295e-15 -2.39098e-11 -3.11295e-15)
(-2.49015e-17 -1.91262e-13 -2.49015e-17)
(-5.91672e-16 -4.54449e-12 -5.91672e-16)
(-6.22219e-16 -4.77911e-12 -6.22219e-16)
(-5.934e-17 -4.55776e-13 -5.934e-17)
(-3.93969e-19 -3.02598e-15 -3.93969e-19)
(-9.28021e-18 -7.1279e-14 -9.28021e-18)
(-9.87867e-18 -7.58757e-14 -9.87867e-18)
(-1.07717e-18 -8.27347e-15 -1.07717e-18)
(-6.10573e-21 -4.68966e-17 -6.10573e-21)
(-1.4258e-19 -1.09513e-15 -1.4258e-19)
(-1.53607e-19 -1.17982e-15 -1.53607e-19)
(-1.88529e-20 -1.44804e-16 -1.88529e-20)
(-9.31465e-23 -7.15436e-19 -9.31465e-23)
(-2.15627e-21 -1.65618e-17 -2.15627e-21)
(-2.35069e-21 -1.80551e-17 -2.35069e-21)
(-3.20768e-22 -2.46374e-18 -3.20768e-22)
(-1.40344e-24 -1.07795e-20 -1.40344e-24)
(-3.22055e-23 -2.47363e-19 -3.22055e-23)
(-3.55224e-23 -2.72839e-19 -3.55224e-23)
(-5.33582e-24 -4.09831e-20 -5.33582e-24)
(-2.09341e-26 -1.6079e-22 -2.09341e-26)
(-4.76186e-25 -3.65746e-21 -4.76186e-25)
(-5.31328e-25 -4.081e-21 -5.31328e-25)
(-8.71364e-26 -6.69273e-22 -8.71364e-26)
(-3.1556e-28 -2.42374e-24 -3.1556e-28)
(-7.08553e-27 -5.44222e-23 -7.08553e-27)
(-7.99666e-27 -6.14204e-23 -7.99666e-27)
(-1.42357e-27 -1.09341e-23 -1.42357e-27)
)
;

boundaryField
{
    inlet
    {
        type            zeroGradient;
    }
    outlet
    {
        type            zeroGradient;
    }
    walls
    {
        type            zeroGradient;
    }
}


// ************************************************************************* //
