FoamFile
{version 2.0; format ascii;class vectorField; location 0;object  v;}
1
(
( -4.96026e-05 -0.128823 -4.96026e-05 )  
)
