/*--------------------------------*- C++ -*----------------------------------*\
| =========                 |                                                 |
| \\      /  F ield         | OpenFOAM: The Open Source CFD Toolbox           |
|  \\    /   O peration     | Version:  5.x                                   |
|   \\  /    A nd           | Web:      www.OpenFOAM.org                      |
|    \\/     M anipulation  |                                                 |
\*---------------------------------------------------------------------------*/
FoamFile
{
    version     2.0;
    format      ascii;
    class       surfaceScalarField;
    location    "0.024";
    object      phi;
}
// * * * * * * * * * * * * * * * * * * * * * * * * * * * * * * * * * * * * * //

dimensions      [0 3 -1 0 0 0 0];

internalField   nonuniform List<scalar> 
4339
(
5.31352e-09
5.29225e-09
-1.08255e-08
1.11255e-08
5.28936e-09
-1.12192e-08
1.3588e-08
5.31954e-09
-7.82911e-09
1.71236e-08
5.32051e-09
-8.89875e-09
5.33284e-09
-2.57584e-09
5.31065e-09
1.11051e-08
-1.12199e-08
1.11265e-08
1.11063e-08
-1.16256e-08
1.35901e-08
1.1097e-08
-8.23474e-09
1.71274e-08
1.10893e-08
-9.30048e-09
1.10348e-08
-2.98048e-09
5.34095e-09
1.35703e-08
-7.83147e-09
1.11172e-08
1.35728e-08
-8.23631e-09
1.35612e-08
1.35436e-08
-4.88485e-09
1.70735e-08
1.35374e-08
-5.95526e-09
1.3448e-08
3.00571e-10
5.34199e-09
1.71082e-08
-8.90075e-09
1.11095e-08
1.71126e-08
-9.30167e-09
1.35548e-08
1.70584e-08
-5.95505e-09
1.70604e-08
1.70455e-08
-7.00928e-09
1.6918e-08
-7.57566e-10
5.35444e-09
-2.58013e-09
1.1055e-08
-2.98434e-09
1.34654e-08
2.98027e-10
1.6933e-08
-7.60295e-10
5.38644e-09
4.54481e-09
4.52507e-09
-2.02603e-08
8.2921e-09
4.59053e-09
-1.96594e-08
1.03606e-08
4.61851e-09
-1.45521e-08
1.02364e-08
4.63767e-09
-1.34186e-08
4.61643e-09
-5.12834e-09
4.61025e-09
8.274e-09
-1.96616e-08
8.33231e-09
8.31443e-09
-1.90652e-08
1.038e-08
8.30275e-09
-1.3961e-08
1.02403e-08
8.30712e-09
-1.28252e-08
8.23541e-09
-4.54616e-09
4.63826e-09
1.03445e-08
-1.45567e-08
8.32074e-09
1.03646e-08
-1.39633e-08
1.034e-08
1.03246e-08
-8.92085e-09
1.01777e-08
1.03149e-08
-7.79624e-09
1.02103e-08
3.74815e-10
4.65785e-09
1.0225e-08
-1.34242e-08
8.32526e-09
1.02294e-08
-1.28288e-08
1.03303e-08
1.01667e-08
-7.79762e-09
1.01586e-08
1.01477e-08
-6.66632e-09
1.00173e-08
1.48527e-09
4.63676e-09
-5.13672e-09
8.25374e-09
-4.55227e-09
1.02257e-08
3.71005e-10
1.00282e-08
1.48284e-09
9.45053e-09
7.06931e-09
7.0462e-09
-3.44193e-08
1.38236e-08
7.03534e-09
-3.34933e-08
1.71561e-08
7.01851e-09
-2.49053e-08
1.99093e-08
7.01345e-09
-2.3184e-08
6.97309e-09
-9.21934e-09
7.05828e-09
1.38013e-08
-3.34968e-08
1.38147e-08
1.37933e-08
-3.2579e-08
1.7148e-08
1.37222e-08
-2.39973e-08
1.99027e-08
1.37106e-08
-2.22764e-08
1.35874e-08
-8.32629e-09
7.04197e-09
1.71377e-08
-2.49122e-08
1.37438e-08
1.71295e-08
-2.40008e-08
1.70532e-08
1.70346e-08
-1.55419e-08
1.97893e-08
1.70216e-08
-1.38427e-08
1.68598e-08
-7.11419e-11
7.03667e-09
1.98944e-08
-2.31932e-08
1.37321e-08
1.9888e-08
-2.2282e-08
1.70401e-08
1.97743e-08
-1.38448e-08
1.97746e-08
1.97598e-08
-1.21385e-08
1.95634e-08
1.60995e-09
6.99624e-09
-9.23205e-09
1.3609e-08
-8.33572e-09
1.68784e-08
-7.68753e-11
1.95784e-08
1.60623e-09
1.50694e-08
8.53895e-09
8.51405e-09
-5.18428e-08
1.64932e-08
8.56713e-09
-5.01393e-08
2.06179e-08
8.56201e-09
-3.76347e-08
2.32634e-08
8.57584e-09
-3.44146e-08
8.47871e-09
-1.42922e-08
8.59182e-09
1.64698e-08
-5.01445e-08
1.6523e-08
1.65002e-08
-4.84473e-08
2.06326e-08
1.64067e-08
-3.59551e-08
2.3256e-08
1.6399e-08
-3.27259e-08
1.6153e-08
-1.26324e-08
8.58683e-09
2.05974e-08
-3.76446e-08
1.64297e-08
2.06129e-08
-3.59598e-08
2.04704e-08
2.04505e-08
-2.36295e-08
2.30371e-08
2.04227e-08
-2.04359e-08
2.00746e-08
-6.45531e-10
8.60081e-09
2.32468e-08
-3.44274e-08
1.64221e-08
2.32404e-08
-3.2734e-08
2.04425e-08
2.30215e-08
-2.0439e-08
2.29914e-08
2.29759e-08
-1.72434e-08
2.25512e-08
2.49029e-09
8.50431e-09
-1.43088e-08
1.61764e-08
-1.26449e-08
2.00945e-08
-6.52986e-10
2.25667e-08
2.48576e-09
2.17173e-08
1.28635e-08
1.28326e-08
-7.74561e-08
2.4787e-08
1.2811e-08
-7.48512e-08
3.07511e-08
1.26789e-08
-5.62244e-08
3.51122e-08
1.26475e-08
-5.13644e-08
1.24737e-08
-2.17083e-08
1.28418e-08
2.47596e-08
-7.48571e-08
2.47527e-08
2.47248e-08
-7.22779e-08
3.07083e-08
2.44559e-08
-5.36934e-08
3.50775e-08
2.43985e-08
-4.88514e-08
2.4048e-08
-1.92521e-08
1.27093e-08
3.07284e-08
-5.62371e-08
2.44838e-08
3.06848e-08
-5.36999e-08
3.03846e-08
3.0361e-08
-3.54407e-08
3.47412e-08
3.0302e-08
-3.07009e-08
2.98813e-08
-1.56606e-09
1.26774e-08
3.50943e-08
-5.13809e-08
2.44261e-08
3.50589e-08
-4.88619e-08
3.03256e-08
3.47224e-08
-3.07049e-08
3.4691e-08
3.46721e-08
-2.59838e-08
3.41927e-08
3.06916e-09
1.25031e-08
-2.17304e-08
2.40753e-08
-1.92687e-08
2.99049e-08
-1.57594e-09
3.42116e-08
3.06316e-09
3.14005e-08
1.77356e-08
1.77004e-08
-1.13042e-07
3.42509e-08
1.77137e-08
-1.09111e-07
4.26852e-08
1.75356e-08
-8.2165e-08
4.87339e-08
1.74973e-08
-7.48467e-08
1.71487e-08
-3.19414e-08
1.77484e-08
3.42171e-08
-1.09119e-07
3.42165e-08
3.41839e-08
-1.05221e-07
4.26454e-08
3.3778e-08
-7.83701e-08
4.86863e-08
3.3676e-08
-7.10765e-08
3.29678e-08
-2.82676e-08
1.75716e-08
4.26588e-08
-8.218e-08
3.38107e-08
4.26179e-08
-7.83783e-08
4.21016e-08
4.20739e-08
-5.2033e-08
4.804e-08
4.19453e-08
-4.49142e-08
4.09647e-08
-2.84025e-09
1.75324e-08
4.87131e-08
-7.48673e-08
3.37083e-08
4.86645e-08
-7.10899e-08
4.1973e-08
4.80181e-08
-4.49193e-08
4.78952e-08
4.78732e-08
-3.78394e-08
4.67063e-08
4.03851e-09
1.71832e-08
-3.19698e-08
3.29999e-08
-2.82886e-08
4.09924e-08
-2.85283e-09
4.67283e-08
4.03101e-09
4.46255e-08
2.596e-08
2.59189e-08
-1.6463e-07
4.98044e-08
2.58561e-08
-1.5867e-07
6.16901e-08
2.54023e-08
-1.19307e-07
7.0108e-08
2.52813e-08
-1.08393e-07
2.4804e-08
-4.6682e-08
2.58973e-08
4.97662e-08
-1.5868e-07
4.96954e-08
4.9657e-08
-1.52823e-07
6.15607e-08
4.88531e-08
-1.1369e-07
6.99939e-08
4.8685e-08
-1.02918e-07
4.77529e-08
-4.1368e-08
2.54436e-08
6.16574e-08
-1.19327e-07
4.88914e-08
6.15277e-08
-1.13701e-07
6.06272e-08
6.05942e-08
-7.55145e-08
6.91134e-08
6.04182e-08
-6.51382e-08
5.93142e-08
-4.69971e-09
2.53224e-08
7.00818e-08
-1.0842e-07
4.87231e-08
6.99674e-08
-1.02935e-07
6.04512e-08
6.9087e-08
-6.51447e-08
6.8988e-08
6.89615e-08
-5.4924e-08
6.77459e-08
5.26469e-09
2.48451e-08
-4.67184e-08
4.7791e-08
-4.13946e-08
5.93472e-08
-4.71576e-09
6.77723e-08
5.25519e-09
6.37557e-08
3.69117e-08
3.68616e-08
-2.38159e-07
7.09533e-08
3.67859e-08
-2.29357e-07
8.84936e-08
3.61907e-08
-1.72875e-07
1.01104e-07
3.61006e-08
-1.56919e-07
3.51621e-08
-6.73525e-08
3.6836e-08
7.09066e-08
-2.29369e-07
7.08173e-08
7.07707e-08
-2.2079e-07
8.82962e-08
6.96945e-08
-1.64675e-07
1.00867e-07
6.9518e-08
-1.48908e-07
6.76701e-08
-5.96808e-08
3.62407e-08
8.84534e-08
-1.729e-07
6.97407e-08
8.8256e-08
-1.64688e-07
8.67223e-08
8.66825e-08
-1.09487e-07
9.90651e-08
8.63336e-08
-9.42995e-08
8.38509e-08
-7.07792e-09
3.61505e-08
1.01072e-07
-1.56952e-07
6.95641e-08
1.00835e-07
-1.4893e-07
8.63735e-08
9.90331e-08
-9.43076e-08
9.86314e-08
9.85994e-08
-7.94501e-08
9.56507e-08
7.16282e-09
3.5212e-08
-6.73978e-08
6.77163e-08
-5.9714e-08
8.38909e-08
-7.09798e-09
9.56828e-08
7.15098e-09
9.05782e-08
5.25085e-08
5.24485e-08
-3.42535e-07
1.01293e-07
5.23359e-08
-3.30206e-07
1.25552e-07
5.15033e-08
-2.4838e-07
1.43248e-07
5.11595e-08
-2.25516e-07
5.01009e-08
-9.71739e-08
5.23956e-08
1.01237e-07
-3.3022e-07
1.00999e-07
1.00944e-07
-3.18003e-07
1.25317e-07
9.91149e-08
-2.36607e-07
1.42948e-07
9.86602e-08
-2.14041e-07
9.65051e-08
-8.62267e-08
5.15634e-08
1.25504e-07
-2.48411e-07
9.91708e-08
1.25269e-07
-2.36623e-07
1.23309e-07
1.23261e-07
-1.57774e-07
1.40828e-07
1.2278e-07
-1.35938e-07
1.20101e-07
-1.12592e-08
5.12194e-08
1.43209e-07
-2.25557e-07
9.87157e-08
1.42909e-07
-2.14067e-07
1.22828e-07
1.40789e-07
-1.35948e-07
1.40461e-07
1.40422e-07
-1.14726e-07
1.37477e-07
9.04016e-09
5.01611e-08
-9.72297e-08
9.65607e-08
-8.62676e-08
1.20149e-07
-1.12839e-08
1.37516e-07
9.02561e-09
1.28561e-07
7.44855e-08
7.44117e-08
-4.90742e-07
1.4425e-07
7.42283e-08
-4.7387e-07
1.80585e-07
7.3345e-08
-3.57731e-07
2.07663e-07
7.29116e-08
-3.25163e-07
7.01975e-08
-1.39567e-07
7.43018e-08
1.44181e-07
-4.73888e-07
1.43742e-07
1.43674e-07
-4.56892e-07
1.80067e-07
1.413e-07
-3.40888e-07
2.06998e-07
1.4053e-07
-3.08592e-07
1.35543e-07
-1.2418e-07
7.34186e-08
1.80525e-07
-3.57769e-07
1.41368e-07
1.80008e-07
-3.40908e-07
1.7641e-07
1.76352e-07
-2.27868e-07
2.0247e-07
1.75297e-07
-1.96763e-07
1.68779e-07
-1.77767e-08
7.29848e-08
2.07615e-07
-3.25213e-07
1.40598e-07
2.06951e-07
-3.08624e-07
1.75356e-07
2.02422e-07
-1.96776e-07
2.01274e-07
2.01228e-07
-1.66573e-07
1.9366e-07
1.06435e-08
7.02706e-08
-1.39636e-07
1.3561e-07
-1.2423e-07
1.68838e-07
-1.78071e-08
1.93707e-07
1.06257e-08
1.7977e-07
1.04084e-07
1.03997e-07
-6.97945e-07
2.01074e-07
1.03803e-07
-6.74268e-07
2.52094e-07
1.01935e-07
-5.10309e-07
2.90871e-07
1.01901e-07
-4.65463e-07
9.9388e-08
-2.0163e-07
1.0389e-07
2.00994e-07
-6.7429e-07
2.00687e-07
2.00606e-07
-6.50495e-07
2.51736e-07
1.9746e-07
-4.87463e-07
2.9053e-07
1.97253e-07
-4.42737e-07
1.92336e-07
-1.80249e-07
1.02022e-07
2.52023e-07
-5.10355e-07
1.97541e-07
2.51665e-07
-4.87486e-07
2.47863e-07
2.47792e-07
-3.2852e-07
2.86078e-07
2.47416e-07
-2.85138e-07
2.41163e-07
-2.99102e-08
1.01988e-07
2.90813e-07
-4.65524e-07
1.97333e-07
2.90472e-07
-4.42775e-07
2.47485e-07
2.86021e-07
-2.85154e-07
2.85349e-07
2.85293e-07
-2.42311e-07
2.78448e-07
9.76574e-09
9.94755e-08
-2.01714e-07
1.92416e-07
-1.8031e-07
2.41233e-07
-2.99476e-08
2.78505e-07
9.74413e-09
2.51143e-07
1.47291e-07
1.47184e-07
-9.91233e-07
2.86464e-07
1.47532e-07
-9.60426e-07
3.62431e-07
1.43991e-07
-7.29727e-07
4.21474e-07
1.43385e-07
-6.67349e-07
1.37269e-07
-2.89291e-07
1.47638e-07
2.86365e-07
-9.60452e-07
2.86596e-07
2.86498e-07
-9.28417e-07
3.61682e-07
2.79263e-07
-6.97818e-07
4.1975e-07
2.77687e-07
-6.35105e-07
2.65877e-07
-2.59717e-07
1.44098e-07
3.62344e-07
-7.29783e-07
2.79362e-07
3.61595e-07
-6.97845e-07
3.52214e-07
3.52128e-07
-4.74234e-07
4.08838e-07
3.49948e-07
-4.1402e-07
3.33937e-07
-5.05335e-08
1.43492e-07
4.21403e-07
-6.67424e-07
2.77786e-07
4.1968e-07
-6.3515e-07
3.50034e-07
4.08768e-07
-4.14039e-07
4.06307e-07
4.06237e-07
-3.54869e-07
3.87278e-07
4.00824e-09
1.37377e-07
-2.89393e-07
2.65975e-07
-2.59789e-07
3.34023e-07
-5.05793e-08
3.87347e-07
3.982e-09
3.42775e-07
2.00204e-07
2.00078e-07
-1.39028e-06
3.93006e-07
2.01453e-07
-1.35414e-06
5.0259e-07
2.00655e-07
-1.03947e-06
5.89174e-07
2.01504e-07
-9.54956e-07
1.95157e-07
-4.22736e-07
2.01578e-07
3.92886e-07
-1.35417e-06
3.94895e-07
3.94778e-07
-1.31505e-06
5.02908e-07
3.89975e-07
-9.95147e-07
5.88619e-07
3.91119e-07
-9.10428e-07
3.79439e-07
-3.81247e-07
2.00781e-07
5.02486e-07
-1.03954e-06
3.90092e-07
5.02805e-07
-9.95179e-07
4.95092e-07
4.94989e-07
-6.84244e-07
5.78398e-07
4.95216e-07
-6.0142e-07
4.81033e-07
-8.78855e-08
2.0163e-07
5.89094e-07
-9.55054e-07
3.91234e-07
5.88536e-07
-9.10481e-07
4.95318e-07
5.78313e-07
-6.01444e-07
5.76747e-07
5.76663e-07
-5.17742e-07
5.61198e-07
-1.07825e-08
1.9528e-07
-4.22867e-07
3.79553e-07
-3.81334e-07
4.81135e-07
-8.79436e-08
5.61282e-07
-1.08152e-08
4.67879e-07
2.63192e-07
2.63045e-07
-1.91472e-06
5.21167e-07
2.67614e-07
-1.87891e-06
6.9964e-07
2.71136e-07
-1.48829e-06
8.43707e-07
2.76168e-07
-1.37442e-06
2.602e-07
-6.15016e-07
2.6776e-07
5.2102e-07
-1.87895e-06
5.30612e-07
5.30471e-07
-1.84075e-06
7.0268e-07
5.32701e-07
-1.42877e-06
8.4172e-07
5.38939e-07
-1.31224e-06
5.08374e-07
-5.58282e-07
2.7129e-07
6.99507e-07
-1.48837e-06
5.32842e-07
7.02552e-07
-1.42881e-06
6.89623e-07
6.89496e-07
-9.97818e-07
8.18823e-07
6.90852e-07
-8.82531e-07
6.51868e-07
-1.55943e-07
2.7632e-07
8.43593e-07
-1.37453e-06
5.39079e-07
8.41614e-07
-1.3123e-06
6.90977e-07
8.18717e-07
-8.82562e-07
8.13872e-07
8.13768e-07
-7.63552e-07
7.69307e-07
-4.75604e-08
2.60357e-07
-6.1518e-07
5.08516e-07
-5.58385e-07
6.51994e-07
-1.56015e-07
7.69411e-07
-4.76001e-08
6.21897e-07
4.11662e-07
4.11465e-07
-2.73627e-06
7.62611e-07
4.04011e-07
-2.63321e-06
9.87362e-07
3.82324e-07
-2.09485e-06
1.15046e-06
3.82636e-07
-1.91967e-06
3.76228e-07
-9.37265e-07
4.04201e-07
7.62441e-07
-2.63328e-06
7.52001e-07
7.5183e-07
-2.53636e-06
9.8681e-07
7.28737e-07
-2.00999e-06
1.15614e-06
7.35571e-07
-1.8345e-06
7.26716e-07
-8.43194e-07
3.82511e-07
9.87206e-07
-2.09495e-06
7.28912e-07
9.86657e-07
-2.01003e-06
9.70976e-07
9.7082e-07
-1.48196e-06
1.15286e-06
9.79283e-07
-1.30812e-06
9.46484e-07
-2.8518e-07
3.82823e-07
1.15032e-06
-1.91981e-06
7.35742e-07
1.15601e-06
-1.83457e-06
9.79437e-07
1.15273e-06
-1.30816e-06
1.15696e-06
1.15683e-06
-1.11862e-06
1.11542e-06
-1.11439e-07
3.76418e-07
-9.37476e-07
7.26889e-07
-8.4332e-07
9.46637e-07
-2.85269e-07
1.11555e-06
-1.11488e-07
8.33091e-07
6.47065e-07
6.46827e-07
-4.02782e-06
1.20792e-06
6.33808e-07
-3.82683e-06
1.50897e-06
5.91765e-07
-2.98663e-06
1.6914e-06
5.71614e-07
-2.6727e-06
5.155e-07
-1.37774e-06
6.34039e-07
1.20771e-06
-3.82692e-06
1.18416e-06
1.18396e-06
-3.63663e-06
1.48283e-06
1.10691e-06
-2.82379e-06
1.66657e-06
1.07597e-06
-2.52261e-06
9.90273e-07
-1.2477e-06
5.92001e-07
1.50879e-06
-2.98677e-06
1.10712e-06
1.48264e-06
-2.82384e-06
1.40113e-06
1.40094e-06
-2.07e-06
1.59317e-06
1.38328e-06
-1.80747e-06
1.30615e-06
-5.29459e-07
5.71843e-07
1.69127e-06
-2.67288e-06
1.07618e-06
1.66643e-06
-2.5227e-06
1.38347e-06
1.59301e-06
-1.80752e-06
1.5982e-06
1.59805e-06
-1.54812e-06
1.54317e-06
-2.43937e-07
5.15725e-07
-1.37798e-06
9.90472e-07
-1.24784e-06
1.30633e-06
-5.2958e-07
1.54333e-06
-2.44002e-07
1.13098e-06
9.99487e-07
9.99178e-07
-6.02523e-06
1.84679e-06
9.74785e-07
-5.64843e-06
2.31445e-06
9.11826e-07
-4.36581e-06
2.56997e-06
8.7644e-07
-3.80433e-06
7.94637e-07
-1.9317e-06
9.75085e-07
1.84651e-06
-5.64856e-06
1.80689e-06
1.80662e-06
-5.30027e-06
2.26998e-06
1.69477e-06
-4.06983e-06
2.53108e-06
1.64124e-06
-3.54851e-06
1.4987e-06
-1.72042e-06
9.1213e-07
2.3142e-06
-4.36599e-06
1.69505e-06
2.26974e-06
-4.06988e-06
2.1469e-06
2.14666e-06
-2.97373e-06
2.40521e-06
2.10117e-06
-2.52571e-06
1.97659e-06
-7.96863e-07
8.76741e-07
2.56976e-06
-3.80456e-06
1.64152e-06
2.53088e-06
-3.54862e-06
2.10141e-06
2.40501e-06
-2.52577e-06
2.38557e-06
2.38537e-06
-2.11648e-06
2.33845e-06
-3.72576e-07
7.94941e-07
-1.932e-06
1.49899e-06
-1.7206e-06
1.97683e-06
-7.96998e-07
2.33864e-06
-3.72653e-07
1.7493e-06
1.51658e-06
1.51622e-06
-9.0557e-06
2.79879e-06
1.47581e-06
-8.40543e-06
3.49476e-06
1.36478e-06
-6.42551e-06
3.86179e-06
1.29822e-06
-5.46847e-06
1.12041e-06
-2.59355e-06
1.47617e-06
2.79845e-06
-8.40559e-06
2.72868e-06
2.72834e-06
-7.80529e-06
3.40894e-06
2.53704e-06
-5.92234e-06
3.76784e-06
2.42161e-06
-5.03079e-06
2.11417e-06
-2.28646e-06
1.36515e-06
3.49446e-06
-6.42574e-06
2.53738e-06
3.40864e-06
-5.92241e-06
3.16603e-06
3.16573e-06
-4.23107e-06
3.50638e-06
3.03676e-06
-3.48121e-06
2.69419e-06
-1.01241e-06
1.29859e-06
3.86155e-06
-5.46877e-06
2.42195e-06
3.7676e-06
-5.03094e-06
3.03706e-06
3.50615e-06
-3.48129e-06
3.38461e-06
3.38437e-06
-2.81165e-06
3.19764e-06
-5.25874e-07
1.12078e-06
-2.59395e-06
2.11453e-06
-2.2867e-06
2.69447e-06
-1.01252e-06
3.19789e-06
-5.25979e-07
2.6429e-06
2.39859e-06
2.39811e-06
-1.38532e-05
4.27401e-06
2.30025e-06
-1.25816e-05
5.29945e-06
2.11414e-06
-9.56605e-06
5.6573e-06
1.98325e-06
-7.81025e-06
1.72241e-06
-3.58237e-06
2.30072e-06
4.27353e-06
-1.25818e-05
4.12838e-06
4.12793e-06
-1.14606e-05
5.13397e-06
3.81742e-06
-8.63121e-06
5.5104e-06
3.61957e-06
-7.04354e-06
3.19127e-06
-3.06297e-06
2.11463e-06
5.29906e-06
-9.56632e-06
3.81787e-06
5.13358e-06
-8.6313e-06
4.76542e-06
4.76502e-06
-6.12621e-06
5.14351e-06
4.56355e-06
-4.80328e-06
4.12802e-06
-1.32297e-06
1.98373e-06
5.65694e-06
-7.81063e-06
3.62002e-06
5.51008e-06
-7.04373e-06
4.56394e-06
5.1432e-06
-4.80337e-06
5.01284e-06
5.01253e-06
-3.70953e-06
4.67483e-06
-4.37295e-07
1.72293e-06
-3.5828e-06
3.19173e-06
-3.06324e-06
4.12841e-06
-1.3231e-06
4.67514e-06
-4.37426e-07
4.03855e-06
3.5877e-06
3.58714e-06
-2.10271e-05
6.36333e-06
3.43175e-06
-1.87886e-05
7.84802e-06
3.1006e-06
-1.41509e-05
8.36595e-06
2.88484e-06
-1.12124e-05
2.41749e-06
-4.76865e-06
3.4323e-06
6.3628e-06
-1.87889e-05
6.10691e-06
6.10638e-06
-1.68099e-05
7.55574e-06
5.58728e-06
-1.25667e-05
8.08534e-06
5.23219e-06
-9.92049e-06
4.45355e-06
-3.92663e-06
3.10115e-06
7.84754e-06
-1.41513e-05
5.58781e-06
7.55526e-06
-1.25668e-05
6.92077e-06
6.9203e-06
-8.79219e-06
7.45897e-06
6.49931e-06
-6.60858e-06
5.52529e-06
-1.36722e-06
2.88539e-06
8.36556e-06
-1.1213e-05
5.23272e-06
8.08495e-06
-9.92074e-06
6.49978e-06
7.45858e-06
-6.60871e-06
7.03227e-06
7.03189e-06
-4.77461e-06
6.1471e-06
-1.12506e-07
2.41804e-06
-4.76931e-06
4.45407e-06
-3.92701e-06
5.52576e-06
-1.36743e-06
6.14748e-06
-1.12654e-07
5.7026e-06
6.09597e-06
6.09515e-06
-3.32251e-05
1.01967e-05
5.63532e-06
-2.85276e-05
1.23591e-05
5.04596e-06
-2.13634e-05
1.24735e-05
4.52154e-06
-1.58519e-05
3.73942e-06
-6.46282e-06
5.63614e-06
1.0196e-05
-2.85278e-05
9.58093e-06
9.58021e-06
-2.46995e-05
1.1701e-05
8.66281e-06
-1.83036e-05
1.19371e-05
7.92404e-06
-1.35591e-05
6.69015e-06
-5.00372e-06
5.04677e-06
1.23585e-05
-2.13638e-05
8.66353e-06
1.17004e-05
-1.83038e-05
1.06241e-05
1.06235e-05
-1.27135e-05
1.09001e-05
9.871e-06
-8.83147e-06
8.57669e-06
-1.5944e-06
4.52235e-06
1.2473e-05
-1.58524e-05
7.92476e-06
1.19366e-05
-1.35594e-05
9.87162e-06
1.08996e-05
-8.83162e-06
1.03909e-05
1.03904e-05
-5.81326e-06
9.24808e-06
8.12539e-07
3.74021e-06
-6.46352e-06
6.69085e-06
-5.00416e-06
8.57728e-06
-1.59465e-06
9.2486e-06
8.12292e-07
8.91025e-06
9.18479e-06
9.18391e-06
-5.15969e-05
1.52876e-05
8.49499e-06
-4.31269e-05
1.82688e-05
7.34325e-06
-3.1689e-05
1.83304e-05
6.53059e-06
-2.24453e-05
5.14202e-06
-8.36061e-06
8.49587e-06
1.52868e-05
-4.31274e-05
1.41944e-05
1.41936e-05
-3.60967e-05
1.71181e-05
1.25937e-05
-2.64778e-05
1.73256e-05
1.13253e-05
-1.85612e-05
9.25259e-06
-6.06961e-06
7.34411e-06
1.8268e-05
-3.16897e-05
1.25945e-05
1.71174e-05
-2.6478e-05
1.52818e-05
1.5281e-05
-1.80881e-05
1.57168e-05
1.38956e-05
-1.18368e-05
1.13906e-05
-1.07976e-06
6.53143e-06
1.83298e-05
-2.24462e-05
1.13261e-05
1.73249e-05
-1.85616e-05
1.38963e-05
1.57162e-05
-1.1837e-05
1.44707e-05
1.44701e-05
-6.96211e-06
1.16453e-05
3.05361e-06
5.1428e-06
-8.36169e-06
9.25336e-06
-6.07022e-06
1.13913e-05
-1.08019e-06
1.16459e-05
3.05331e-06
1.20841e-05
1.73766e-05
1.73753e-05
-8.6369e-05
2.62515e-05
1.49228e-05
-6.69328e-05
3.02519e-05
1.28806e-05
-4.85804e-05
2.81157e-05
1.06282e-05
-3.0946e-05
8.31623e-06
-1.06619e-05
1.49241e-05
2.62504e-05
-6.69333e-05
2.33455e-05
2.33443e-05
-5.29395e-05
2.74462e-05
2.04754e-05
-3.81732e-05
2.60604e-05
1.75639e-05
-2.41111e-05
1.41835e-05
-6.70473e-06
1.28819e-05
3.02509e-05
-4.8581e-05
2.04765e-05
2.74452e-05
-3.81735e-05
2.42731e-05
2.42721e-05
-2.56815e-05
2.32962e-05
2.13963e-05
-1.46924e-05
1.78459e-05
-1.90766e-07
1.06295e-05
2.8115e-05
-3.09468e-05
1.7565e-05
2.60596e-05
-2.41116e-05
2.13973e-05
2.32954e-05
-1.46926e-05
2.1444e-05
2.14432e-05
-7.05561e-06
1.77853e-05
7.27398e-06
8.31745e-06
-1.06631e-05
1.41845e-05
-6.70543e-06
1.78469e-05
-1.91369e-07
1.77861e-05
7.27356e-06
1.90835e-05
2.66066e-05
2.6605e-05
-0.000139598
4.02353e-05
2.32398e-05
-0.000103808
4.50159e-05
1.86308e-05
-7.19974e-05
4.13318e-05
1.53503e-05
-4.26176e-05
1.09549e-05
-1.24916e-05
2.32414e-05
4.02341e-05
-0.000103809
3.50847e-05
3.50833e-05
-7.66264e-05
4.01007e-05
2.96415e-05
-5.41999e-05
3.74766e-05
2.47155e-05
-3.08522e-05
1.89803e-05
-6.443e-06
1.86322e-05
4.50148e-05
-7.19985e-05
2.96429e-05
4.00995e-05
-5.42004e-05
3.43992e-05
3.4398e-05
-3.51943e-05
3.31776e-05
2.91295e-05
-1.78848e-05
2.18827e-05
3.87393e-06
1.53517e-05
4.13309e-05
-4.2619e-05
2.47168e-05
3.74756e-05
-3.08529e-05
2.91307e-05
3.31766e-05
-1.78851e-05
2.84403e-05
2.84393e-05
-5.67493e-06
2.20079e-05
1.28795e-05
1.09561e-05
-1.24934e-05
1.89815e-05
-6.444e-06
2.18839e-05
3.87307e-06
2.20089e-05
1.28791e-05
2.60315e-05
5.82413e-05
5.82392e-05
-0.000256125
7.57407e-05
4.37021e-05
-0.000165028
7.878e-05
3.56503e-05
-0.000110708
6.52517e-05
2.57082e-05
-5.48148e-05
1.88071e-05
-1.2684e-05
4.37042e-05
7.57389e-05
-0.000165029
6.07623e-05
6.07604e-05
-0.000110743
6.63719e-05
5.08314e-05
-7.49907e-05
5.72196e-05
3.91366e-05
-3.51283e-05
3.03745e-05
-3.05782e-06
3.56523e-05
7.87784e-05
-0.000110709
5.08332e-05
6.63703e-05
-7.49912e-05
5.65424e-05
5.65408e-05
-4.66129e-05
5.01501e-05
4.5407e-05
-1.77629e-05
3.51028e-05
1.21578e-05
2.57102e-05
6.52505e-05
-5.48164e-05
3.91385e-05
5.72184e-05
-3.51292e-05
4.54086e-05
5.01488e-05
-1.77633e-05
4.2792e-05
4.27907e-05
-4.41974e-07
3.27834e-05
2.55431e-05
1.88091e-05
-1.26859e-05
3.03761e-05
-3.0588e-06
3.51044e-05
1.21565e-05
3.27847e-05
2.55425e-05
4.09318e-05
9.06439e-05
9.06412e-05
-0.000437479
0.000120136
7.26061e-05
-0.000267148
0.00011863
5.11585e-05
-0.000160382
9.6167e-05
3.76181e-05
-6.99857e-05
2.30923e-05
-8.46854e-06
7.26087e-05
0.000120134
-0.000267149
9.36313e-05
9.3629e-05
-0.000152788
9.64013e-05
7.31655e-05
-9.97676e-05
8.10143e-05
5.3975e-05
-3.60983e-05
3.59504e-05
7.5921e-06
5.11611e-05
0.000118628
-0.000160383
7.31679e-05
9.63993e-05
-9.97683e-05
7.81144e-05
7.81124e-05
-5.65064e-05
6.77949e-05
6.02128e-05
-1.36812e-05
4.11073e-05
2.4214e-05
3.76206e-05
9.61654e-05
-6.99874e-05
5.39773e-05
8.10127e-05
-3.60993e-05
6.02147e-05
6.77933e-05
-1.36816e-05
5.27693e-05
5.27677e-05
1.44485e-05
3.90728e-05
3.99957e-05
2.30946e-05
-8.47149e-06
3.59529e-05
7.59034e-06
4.11094e-05
2.42127e-05
3.90744e-05
3.99951e-05
5.52303e-05
0.00023586
0.000235857
-0.000909311
0.000252812
0.000141399
-0.000425542
0.000217102
0.000105017
-0.00022973
0.00015519
6.2211e-05
-7.03164e-05
4.23796e-05
8.02547e-06
0.000141402
0.000252809
-0.000425543
0.000169386
0.000169383
-0.000208757
0.000162469
0.000130711
-0.000118546
0.000125181
8.54354e-05
-2.2035e-05
5.86815e-05
3.4157e-05
0.00010502
0.000217099
-0.000229732
0.000130714
0.000162467
-0.000118546
0.000130103
0.0001301
-5.5284e-05
0.000103228
9.29707e-05
5.65884e-06
6.42291e-05
5.28718e-05
6.22142e-05
0.000155187
-7.03182e-05
8.54383e-05
0.000125179
-2.2036e-05
9.29733e-05
0.000103225
5.65828e-06
7.76439e-05
7.76418e-05
4.51068e-05
5.5517e-05
7.06904e-05
4.2383e-05
8.0214e-06
5.86845e-05
3.41549e-05
6.42318e-05
5.28704e-05
5.55192e-05
7.06897e-05
8.52245e-05
0.000376206
0.000376201
-0.00166183
0.000419907
0.000264941
-0.000734225
0.000332446
0.000148675
-0.000291004
0.000223062
9.31987e-05
-5.41601e-05
4.27685e-05
4.46585e-05
0.000264945
0.000419904
-0.000734226
0.000269868
0.000269864
-0.000218603
0.000225722
0.000184231
-0.000109955
0.000162548
0.000112546
2.17916e-05
6.52951e-05
7.16322e-05
0.000148679
0.000332443
-0.000291006
0.000184235
0.000225719
-0.000109956
0.000169199
0.000169196
-2.52123e-05
0.000128023
0.000110324
4.90564e-05
7.00004e-05
8.69319e-05
9.32026e-05
0.000223059
-5.41621e-05
0.000112549
0.000162545
2.17904e-05
0.000110327
0.000128021
4.9056e-05
9.01591e-05
9.01565e-05
8.54417e-05
6.24428e-05
0.000104947
4.27723e-05
4.46544e-05
6.52987e-05
7.16298e-05
7.00036e-05
8.69301e-05
6.24455e-05
0.000104946
0.000114197
0.001167
0.001167
-0.00145679
-0.000949848
-0.000949849
-0.000640114
0.000988221
0.000485972
-0.00104153
0.000599185
0.000298
-0.000200076
0.000348754
0.000135133
6.10727e-05
7.916e-05
0.0001339
0.000485976
0.000988217
-0.00104153
0.000487014
0.00048701
-0.000220679
0.000374166
0.00032353
-2.26375e-05
0.0002431
0.000166614
0.000121378
0.000101512
0.000151054
0.000298004
0.00059918
-0.000200078
0.000323534
0.000374163
-2.26382e-05
0.000267675
0.000267671
8.65056e-05
0.000183306
0.000160009
0.00014003
0.000101467
0.000159907
0.000135138
0.000348751
6.107e-05
0.000166618
0.000243097
0.000121376
0.000160013
0.000183303
0.000140029
0.000122306
0.000122303
0.000160854
8.02518e-05
0.00016668
7.91646e-05
0.000133895
0.000101517
0.000151051
0.00010147
0.000159905
8.0255e-05
0.000166679
0.000167557
0.000719658
0.000719656
-0.000695981
-0.000758318
-0.000720445
-0.000720445
0.00202229
0.0011557
-0.000271614
6.45877e-06
-0.000113146
4.62981e-05
-0.000797656
-0.000547619
-0.00155003
-0.000992299
0.000958914
0.000408623
0.000454549
0.000462632
0.000201767
0.000355553
7.0452e-05
0.000266106
0.0011557
0.00202228
-0.000271611
-0.000113153
6.45928e-06
4.62985e-05
-0.000797655
-0.000547617
-0.00155003
-0.000992297
0.000799214
0.000799208
0.000107536
0.000136526
0.000136526
0.000111715
0.000420793
0.000408802
0.000355604
0.00026862
0.000192571
0.000282746
9.35007e-05
0.000255777
0.000408631
0.000958909
0.000454545
0.000408808
0.000420789
0.000355603
0.000294489
0.000294484
0.000315143
0.000193819
0.000158859
0.000274413
8.88208e-05
0.000236196
0.000201773
0.000462627
0.000355552
0.000192577
0.000268616
0.000282745
0.000158863
0.000193814
0.000274413
0.000116492
0.000116488
0.000245596
7.13506e-05
0.000227109
7.04583e-05
0.0002661
9.35066e-05
0.000255774
8.88262e-05
0.000236194
7.13551e-05
0.000227108
0.000207208
0.00180759
0.000316228
0.000316228
-0.00243861
-0.000780382
0.00153265
0.000673366
-0.000671281
-0.000862132
-0.000796735
0.000181097
0.000114426
0.000171064
0.000166129
0.000952623
0.000495054
0.00127242
-0.000808017
-0.000541415
-0.000527974
-0.000388447
0.000491398
0.000161856
0.000654905
9.82074e-05
0.000455976
-0.000780382
0.000673373
0.00153265
-0.00067128
-0.000862132
-0.000796734
0.000181097
0.000114426
0.000171064
0.000166129
-0.000625899
-0.000625907
0.000478406
0.000478406
0.000402529
0.000593085
0.000518241
0.000850473
-0.000370387
-0.000244288
-0.000274168
-0.000222298
0.000324141
0.00019849
0.000515058
0.000118824
0.000395553
0.000495061
0.000952618
0.00127241
-0.000808017
-0.000541411
-0.000527973
-0.000388444
0.000518247
0.000593081
0.000850471
-0.000370386
-0.000244286
-0.000274167
-0.000222296
0.000366085
0.00036608
0.000619466
0.000213258
0.000183316
0.000442414
0.000106273
0.000345105
0.000161862
0.000491392
0.000654905
0.000198495
0.000324136
0.000515057
0.000183321
0.000213253
0.000442414
0.000126817
0.000126813
0.000358602
7.54151e-05
0.000303994
9.8214e-05
0.000455968
0.00011883
0.000395549
0.000106279
0.000345102
7.54199e-05
0.000303993
0.000266314
0.00258138
9.73975e-06
9.73792e-06
-0.00260084
-9.04817e-05
-3.25278e-05
0.000103663
-1.24295e-05
3.1754e-05
-4.97793e-05
-5.13213e-05
0.000772257
-4.49053e-05
-4.65697e-05
0.000408313
0.000284195
4.16864e-05
2.14323e-05
0.000541924
7.07521e-06
0.000418841
-9.0482e-05
-3.25265e-05
-1.24294e-05
0.000103663
3.17542e-05
-2.54802e-05
-2.54807e-05
1.20066e-05
1.20052e-05
0.000576314
-2.79918e-05
7.29611e-05
3.36616e-05
-2.79919e-05
7.29604e-05
3.36608e-05
-0.000706625
7.03677e-05
-1.88174e-05
0.000633609
-3.79683e-05
-4.49157e-05
0.000155945
4.09314e-05
6.53468e-05
4.96475e-05
0.000491863
1.40508e-05
0.000381917
-5.13085e-05
-4.97884e-05
0.000772241
-4.49027e-05
-4.6566e-05
0.000408315
0.000284197
-1.88074e-05
7.03608e-05
0.00063361
-3.79662e-05
-4.49145e-05
0.000155947
4.09327e-05
3.09117e-05
3.09031e-05
0.000520026
4.6894e-05
4.99302e-05
0.000426149
2.04954e-05
0.000345625
2.14385e-05
4.16764e-05
0.000541928
4.96524e-05
6.53405e-05
0.000491863
4.9935e-05
4.68855e-05
0.000426149
4.29014e-05
4.28955e-05
0.00037267
1.86254e-05
0.000312518
7.08767e-06
0.000418832
1.40621e-05
0.000381915
2.05045e-05
0.000345623
1.86325e-05
0.000312517
0.000277036
0.00240529
-0.000281005
-0.000281004
-0.00184269
0.000134478
0.0005657
-0.000849209
-0.00038183
-0.000900679
4.28045e-05
9.91964e-05
2.89238e-05
0.000523797
0.000393776
0.000343888
-0.000188027
-0.000109503
0.000326612
0.000376391
0.000264834
5.24938e-05
4.94879e-05
-7.21246e-05
-1.18132e-05
0.000437624
-7.24038e-06
0.000364019
0.000134477
0.000565701
-0.000381836
-0.000849212
-0.000900676
9.91959e-05
4.28039e-05
2.89233e-05
0.000523798
0.000393779
0.00034389
-0.000272001
-0.000272014
0.000153119
-0.000224171
-0.000146964
-0.000146964
-0.000142501
0.000355722
0.000120849
3.53318e-05
1.38418e-05
0.000355725
0.000120853
3.53277e-05
1.38437e-05
-9.10178e-05
-8.22388e-05
0.000425362
-2.70075e-05
-1.29532e-05
0.000428993
2.26118e-07
0.000357509
-0.000109487
-0.000188041
0.000326602
0.000376396
0.000264831
5.24936e-05
4.94858e-05
-8.22272e-05
-9.10242e-05
0.000425361
-2.93448e-05
-2.93532e-05
0.000414258
-6.03411e-06
-1.47968e-06
0.000391365
5.20768e-06
0.000332081
-1.18086e-05
-7.21316e-05
0.000437626
-1.29487e-05
-2.70144e-05
0.000428994
-1.47478e-06
-6.04337e-06
0.000391365
4.00493e-06
3.99903e-06
0.000361712
4.16948e-06
0.000313716
-7.2299e-06
0.000364014
2.35721e-07
0.000357508
5.21509e-06
0.00033208
4.1762e-06
0.000313716
0.000279555
0.00133867
0.000198141
0.000198138
-0.00173608
0.00096602
-0.000270763
0.000546144
0.000233879
-0.000267401
-0.000431934
-0.000385446
-7.15321e-05
-0.0001314
-0.000123904
-6.30775e-05
0.00029414
0.000151184
0.00103131
-0.000234875
-0.000147771
-0.000474885
-0.000292425
9.42778e-05
2.10167e-05
0.000616345
-4.1164e-06
0.000437941
0.000966029
-0.000270749
0.000233853
0.000546091
-0.000267381
-0.00043192
-0.000385413
-7.15357e-05
-0.000131406
-0.000123908
-6.30809e-05
0.000397349
0.000397323
0.000481273
-0.000224406
-9.83455e-05
-0.000517518
-0.000183878
-0.000224392
-9.83285e-05
-0.000517538
-0.000183876
0.000332348
0.000332348
0.00026076
0.000127205
9.8039e-05
0.000748652
2.93842e-05
1.49052e-05
0.000532925
-1.98548e-05
0.000386794
0.000151218
0.000294114
0.00103132
-0.000234865
-0.000147787
-0.0004749
-0.000292429
9.80604e-05
0.000127195
0.000748646
1.52248e-05
1.52174e-05
0.000579915
-1.10277e-05
-1.13342e-05
0.000443857
-2.97772e-05
0.000346751
2.10189e-05
9.42688e-05
0.000616342
1.49079e-05
2.93745e-05
0.000532925
-1.13276e-05
-1.10393e-05
0.000443858
-1.91789e-05
-1.91846e-05
0.000377413
-3.0763e-05
0.000308244
-4.10217e-06
0.000437943
-1.9842e-05
0.000386791
-2.97675e-05
0.000346752
-3.07541e-05
0.000308244
0.000270176
0.00256785
1.42282e-05
1.42261e-05
-0.00259657
-0.000133861
-0.000552536
0.000513649
6.20077e-05
0.000110768
-0.000301411
-0.000142437
0.00107234
-0.000207717
-0.000108369
0.000404814
0.000313754
-0.000193096
-7.11726e-05
0.000579079