/*--------------------------------*- C++ -*----------------------------------*\
| =========                 |                                                 |
| \\      /  F ield         | OpenFOAM: The Open Source CFD Toolbox           |
|  \\    /   O peration     | Version:  5.x                                   |
|   \\  /    A nd           | Web:      www.OpenFOAM.org                      |
|    \\/     M anipulation  |                                                 |
\*---------------------------------------------------------------------------*/
FoamFile
{
    version     2.0;
    format      ascii;
    class       surfaceScalarField;
    location    "0.093";
    object      phi;
}
// * * * * * * * * * * * * * * * * * * * * * * * * * * * * * * * * * * * * * //

dimensions      [0 3 -1 0 0 0 0];

internalField   nonuniform List<scalar> 
4183
(
-2.33731e-07
-2.27397e-07
-3.78524e-07
-4.99254e-08
-2.45858e-07
-3.74781e-07
1.15267e-07
-2.82231e-07
-3.54384e-07
2.40943e-07
-2.95017e-07
-3.16035e-07
-3.3352e-07
-1.6785e-07
-2.52176e-07
-4.3923e-08
-3.74696e-07
-6.81512e-08
-6.21045e-08
-3.67722e-07
9.88355e-08
-1.00464e-07
-3.48712e-07
2.26046e-07
-1.13807e-07
-3.08389e-07
-1.51892e-07
-1.64214e-07
-2.88468e-07
1.19947e-07
-3.53398e-07
-1.0616e-07
1.03453e-07
-3.47825e-07
6.30514e-08
6.76268e-08
-3.37273e-07
1.91769e-07
5.55657e-08
-2.98071e-07
1.89975e-08
-1.63954e-07
-3.01276e-07
2.44565e-07
-3.15273e-07
-1.19618e-07
2.29625e-07
-3.07799e-07
5.09944e-08
1.95336e-07
-2.98302e-07
1.80607e-07
1.84135e-07
-2.5817e-07
1.49721e-07
-1.26852e-07
-3.39797e-07
-1.66295e-07
-1.57692e-07
-1.62864e-07
1.44484e-08
-1.63386e-07
1.46192e-07
-1.26079e-07
-9.42601e-09
-2.37544e-07
-2.30387e-07
-4.35816e-07
-2.01721e-07
-2.43665e-07
-4.38804e-07
-2.03706e-07
-2.60246e-07
-3.80677e-07
-1.77125e-07
-2.69072e-07
-3.70941e-07
-2.81813e-07
-2.48018e-07
-2.50798e-07
-1.95059e-07
-4.38316e-07
-2.13552e-07
-2.06902e-07
-4.41686e-07
-2.13592e-07
-2.21724e-07
-3.87163e-07
-1.83786e-07
-2.29454e-07
-3.77789e-07
-2.40906e-07
-2.58139e-07
-2.67431e-07
-1.97751e-07
-3.79065e-07
-2.28385e-07
-2.07632e-07
-3.86108e-07
-2.26316e-07
-2.20398e-07
-3.40647e-07
-1.93231e-07
-2.26393e-07
-3.34201e-07
-2.35759e-07
-2.23658e-07
-2.76263e-07
-1.72435e-07
-3.69016e-07
-2.36165e-07
-1.79091e-07
-3.76414e-07
-2.32326e-07
-1.88512e-07
-3.34012e-07
-1.9713e-07
-1.92457e-07
-3.2729e-07
-1.99218e-07
-2.1835e-07
-2.89025e-07
-2.45126e-07
-2.47608e-07
-2.55834e-07
-2.41753e-07
-2.2233e-07
-2.03908e-07
-2.17431e-07
-1.19028e-07
-2.30063e-07
-2.23365e-07
-7.97982e-07
-5.10939e-08
-2.42613e-07
-7.99392e-07
7.39484e-08
-2.82854e-07
-6.87445e-07
1.81349e-07
-2.9609e-07
-6.59862e-07
-3.35045e-07
-4.26391e-07
-2.49311e-07
-4.48914e-08
-7.98572e-07
-6.9699e-08
-6.35361e-08
-8.00367e-07
5.72201e-08
-1.0264e-07
-6.94289e-07
1.66605e-07
-1.16324e-07
-6.6693e-07
-1.55829e-07
-4.39431e-07
-2.89606e-07
7.91069e-08
-6.85026e-07
-1.08844e-07
6.2318e-08
-6.92719e-07
2.196e-08
2.65734e-08
-6.00655e-07
1.32793e-07
1.61991e-08
-5.77543e-07
-2.50184e-08
-3.66064e-07
-3.02833e-07
1.85329e-07
-6.56937e-07
-1.22698e-07
1.70603e-07
-6.64823e-07
9.85879e-09
1.36921e-07
-5.76902e-07
1.24941e-07
1.2883e-07
-5.54986e-07
9.40699e-08
-3.49486e-07
-3.41798e-07
-4.22002e-07
-1.62074e-07
-4.35926e-07
-3.00557e-08
-3.64084e-07
9.0194e-08
-3.4809e-07
-1.60138e-07
-2.08887e-07
-2.00162e-07
-1.07317e-06
-6.70445e-08
-2.1589e-07
-1.07846e-06
2.34027e-08
-2.49145e-07
-9.13919e-07
1.12376e-07
-2.59634e-07
-8.84529e-07
-2.90996e-07
-5.72652e-07
-2.24612e-07
-5.87859e-08
-1.07739e-06
-8.24177e-08
-7.42396e-08
-1.08423e-06
9.53272e-09
-1.07036e-07
-9.28351e-07
1.00513e-07
-1.17158e-07
-9.00375e-07
-1.48627e-07
-5.97018e-07
-2.57942e-07
3.05443e-08
-9.10555e-07
-1.15214e-07
1.65924e-08
-9.26281e-07
-2.14666e-08
-1.41735e-08
-7.87254e-07
7.4146e-08
-2.36476e-08
-7.66642e-07
-5.39301e-08
-4.82566e-07
-2.6844e-07
1.18153e-07
-8.8039e-07
-1.25413e-07
1.06185e-07
-8.9743e-07
-3.07238e-08
8e-08
-7.65742e-07
6.58974e-08
7.15421e-08
-7.46763e-07
4.49582e-08
-4.71238e-07
-2.99784e-07
-5.66406e-07
-1.56818e-07
-5.92067e-07
-6.11027e-08
-4.79542e-07
3.92672e-08
-4.69339e-07
-2.16228e-07
-2.09057e-07
-2.00255e-07
-1.60201e-06
5.11247e-08
-2.2625e-07
-1.60209e-06
2.11091e-07
-2.83043e-07
-1.33748e-06
3.48838e-07
-3.00968e-07
-1.28415e-06
-3.55988e-07
-8.09113e-07
-2.35057e-07
5.91185e-08
-1.60055e-06
2.3615e-08
3.31589e-08
-1.60232e-06
1.88369e-07
-2.7959e-08
-1.34817e-06
3.29464e-07
-4.61395e-08
-1.29627e-06
-1.01629e-07
-8.33946e-07
-2.92134e-07
2.18149e-07
-1.33316e-06
-3.56999e-08
1.9563e-07
-1.34517e-06
1.34443e-07
1.41498e-07
-1.12682e-06
2.80473e-07
1.24744e-07
-1.08351e-06
7.11507e-08
-6.50444e-07
-3.09823e-07
3.54484e-07
-1.27883e-06
-5.41608e-08
3.35155e-07
-1.29259e-06
1.1781e-07
2.86177e-07
-1.08235e-06
2.65599e-07
2.71045e-07
-1.0408e-06
2.2142e-07
-6.19473e-07
-3.64823e-07
-8.01106e-07
-1.0994e-07
-8.27423e-07
6.45033e-08
-6.46959e-07
2.15952e-07
-6.16827e-07
-2.3343e-07
-1.55847e-07
-1.43906e-07
-2.25083e-06
1.60459e-07
-1.67329e-07
-2.24228e-06
3.5081e-07
-2.28597e-07
-1.84776e-06
5.12767e-07
-2.4554e-07
-1.76432e-06
-3.06781e-07
-1.07344e-06
-1.79323e-07
1.71937e-07
-2.24071e-06
1.37111e-07
1.4844e-07
-2.23449e-06
3.28298e-07
8.74803e-08
-1.85539e-06
4.88477e-07
7.30762e-08
-1.775e-06
-5.36207e-09
-1.09523e-06
-2.40615e-07
3.6081e-07
-1.84226e-06
7.65855e-08
3.37651e-07
-1.85153e-06
2.70559e-07
2.81033e-07
-1.51429e-06
4.45134e-07
2.62985e-07
-1.44793e-06
1.98566e-07
-8.20276e-07
-2.57746e-07
5.21098e-07
-1.75756e-06
6.04756e-08
4.96623e-07
-1.76972e-06
2.52842e-07
4.53324e-07
-1.44694e-06
4.25155e-07
4.33265e-07
-1.38332e-06
3.76304e-07
-7.67677e-07
-3.1876e-07
-1.06319e-06
-1.62674e-08
-1.08686e-06
1.88622e-07
-8.15188e-07
3.67988e-07
-7.6387e-07
-2.00678e-07
-1.25889e-07
-1.13607e-07
-3.23136e-06
3.44169e-07
-1.50182e-07
-3.20287e-06
6.19697e-07
-2.44372e-07
-2.607e-06
8.38083e-07
-2.7097e-07
-2.46356e-06
-3.64247e-07
-1.45067e-06
-1.62638e-07
3.56183e-07
-3.20152e-06
3.07026e-07
3.19003e-07
-3.17324e-06
5.86674e-07
2.17258e-07
-2.59658e-06
8.08672e-07
1.91647e-07
-2.45954e-06
9.26637e-08
-1.46578e-06
-2.56813e-07
6.30052e-07
-2.60029e-06
2.0558e-07
5.97057e-07
-2.59189e-06
4.87106e-07
4.97348e-07
-2.07582e-06
7.16724e-07
4.71852e-07
-1.95768e-06
3.70151e-07
-1.03455e-06
-2.83446e-07
8.46499e-07
-2.45526e-06
1.80442e-07
8.1683e-07
-2.45331e-06
4.61635e-07
7.256e-07
-1.95631e-06
6.93498e-07
7.02027e-07
-1.8453e-06
6.07148e-07
-9.43947e-07
-3.77e-07
-1.43795e-06
7.94102e-08
-1.45447e-06
3.59635e-07
-1.02911e-06
5.98607e-07
-9.39323e-07
-1.18184e-07
-2.59022e-09
2.2715e-08
-4.59651e-06
6.57531e-07
-2.16229e-08
-4.53081e-06
1.02637e-06
-1.23314e-07
-3.64289e-06
1.30768e-06
-1.53665e-07
-3.40641e-06
-2.59289e-07
-1.92625e-06
-3.59351e-08
6.76419e-07
-4.52816e-06
6.12596e-07
6.29369e-07
-4.47264e-06
9.86187e-07
5.14344e-07
-3.60774e-06
1.27274e-06
4.80402e-07
-3.38011e-06
3.62648e-07
-1.92447e-06
-1.40347e-07
1.0421e-06
-3.6343e-06
4.97473e-07
1.0013e-06
-3.60156e-06
8.71548e-07
8.86492e-07
-2.82198e-06
1.16642e-06
8.52328e-07
-2.62443e-06
7.29558e-07
-1.26563e-06
-1.71007e-07
1.32059e-06
-3.39616e-06
4.63454e-07
1.28545e-06
-3.37185e-06
8.37408e-07
1.17898e-06
-2.62271e-06
1.13463e-06
1.14722e-06
-2.43737e-06
1.03332e-06
-1.11532e-06
-2.77123e-07
-1.90975e-06
3.46124e-07
-1.9104e-06
7.14722e-07
-1.25799e-06
1.02076e-06
-1.10908e-06
9.85956e-08
1.57349e-07
1.74556e-07
-6.60444e-06
1.06368e-06
1.16999e-07
-6.44533e-06
1.58872e-06
-8.08208e-08
-5.1267e-06
1.95409e-06
-1.26058e-07
-4.72285e-06
-2.91277e-07
-2.57899e-06
9.39016e-08
1.08233e-06
-6.44079e-06
1.01694e-06
1.03398e-06
-6.31257e-06
1.53382e-06
8.33624e-07
-5.03901e-06
1.90275e-06
7.78805e-07
-4.65388e-06
5.78281e-07
-2.53216e-06
-9.763e-08
1.60398e-06
-5.11646e-06
8.16575e-07
1.54931e-06
-5.03104e-06
1.34171e-06
1.35673e-06
-3.87018e-06
1.72512e-06
1.30134e-06
-3.53036e-06
1.09286e-06
-1.56116e-06
-1.43254e-07
1.96672e-06
-4.71126e-06
7.61523e-07
1.91596e-06
-4.64327e-06
1.28618e-06
1.73778e-06
-3.5284e-06
1.67488e-06
1.68782e-06
-3.21253e-06
1.49152e-06
-1.30274e-06
-3.08899e-07
-2.55942e-06
5.61159e-07
-2.51477e-06
1.07782e-06
-1.552e-06
1.47868e-06
-1.29498e-06
4.38139e-07
5.10518e-07
5.36572e-07
-9.51145e-06
1.82202e-06
4.58817e-07
-9.19709e-06
2.52906e-06
2.74854e-07
-7.24465e-06
2.98998e-06
2.11566e-07
-6.57182e-06
-4.82196e-08
-3.4168e-06
4.34166e-07
1.84703e-06
-9.19376e-06
1.73074e-06
1.75852e-06
-8.90883e-06
2.46071e-06
1.53742e-06
-7.03154e-06
2.95295e-06
1.45858e-06
-6.39313e-06
1.19947e-06
-3.31956e-06
2.46074e-07
2.55183e-06
-7.23114e-06
1.51016e-06
2.48523e-06
-7.02183e-06
2.22855e-06
2.25234e-06
-5.30348e-06
2.72742e-06
2.16909e-06
-4.73973e-06
1.90086e-06
-1.86618e-06
1.78956e-07
3.01265e-06
-6.55596e-06
1.43059e-06
2.97149e-06
-6.38115e-06
2.14489e-06
2.74741e-06
-4.73775e-06
2.64685e-06
2.6674e-06
-4.21278e-06
2.42145e-06
-1.44305e-06
-7.21935e-08
-3.3929e-06
1.17348e-06
-3.29554e-06
1.87743e-06
-1.85399e-06
2.40107e-06
-1.43242e-06
1.08383e-06
9.12327e-07
9.37004e-07
-1.37509e-05
2.78864e-06
8.14967e-07
-1.31659e-05
3.81091e-06
5.20448e-07
-1.03069e-05
4.38272e-06
4.34453e-07
-9.15338e-06
1.7127e-08
-4.55436e-06
7.90426e-07
2.81287e-06
-1.31628e-05
2.6521e-06
2.67665e-06
-1.26322e-05
3.69012e-06
2.3144e-06
-9.8635e-06
4.31845e-06
2.19297e-06
-8.77995e-06
1.76039e-06
-4.35134e-06
4.98199e-07
3.83048e-06
-1.02916e-05
2.29036e-06
3.71372e-06
-9.85106e-06
3.30764e-06
3.32931e-06
-7.33564e-06
3.93852e-06
3.19602e-06
-6.37362e-06
2.74306e-06
-2.23623e-06
4.08408e-07
4.39972e-06
-9.13498e-06
2.1679e-06
4.33925e-06
-8.76616e-06
3.17375e-06
3.95749e-06
-6.37175e-06
3.81409e-06
3.83373e-06
-5.4908e-06
3.4095e-06
-1.52455e-06
-1.08412e-08
-4.52483e-06
1.73496e-06
-4.32423e-06
2.72062e-06
-2.22205e-06
3.39024e-06
-1.5121e-06
2.06626e-06
1.84864e-06
1.89029e-06
-2.01102e-05
4.55966e-06
1.72561e-06
-1.89909e-05
5.99533e-06
1.32395e-06
-1.47093e-05
6.74325e-06
1.18625e-06
-1.27879e-05
7.82863e-07
-6.06565e-06
1.68398e-06
4.60193e-06
-1.89884e-05
4.34593e-06
4.38813e-06
-1.79567e-05
5.77761e-06
3.91613e-06
-1.38873e-05
6.5309e-06
3.71772e-06
-1.20646e-05
3.17631e-06
-5.596e-06
1.28308e-06
6.03346e-06
-1.46907e-05
3.87439e-06
5.81595e-06
-1.38701e-05
5.29122e-06
5.32885e-06
-1.01651e-05
6.08714e-06
5.10758e-06
-8.55935e-06
4.51059e-06
-2.5438e-06
1.14681e-06
6.77635e-06
-1.27668e-05
3.67565e-06
6.56629e-06
-1.20453e-05
5.06952e-06
6.12108e-06
-8.55779e-06
5.87139e-06
5.90581e-06
-7.09085e-06
5.35255e-06
-1.38137e-06
7.39904e-07
-6.02762e-06
3.13378e-06
-5.5593e-06
4.47276e-06
-2.5252e-06
5.31846e-06
-1.3636e-06
3.75051e-06
2.936e-06
2.96881e-06
-2.94503e-05
6.85154e-06
2.72703e-06
-2.7474e-05
8.98724e-06
2.13654e-06
-2.12411e-05
9.82713e-06
1.87606e-06
-1.78405e-05
1.2155e-06
-8.0927e-06
2.69372e-06
6.88471e-06
-2.74723e-05
6.56502e-06
6.59852e-06
-2.56995e-05
8.65953e-06
5.83477e-06
-1.968e-05
9.52653e-06
5.49159e-06
-1.65471e-05
4.58793e-06
-7.15742e-06
2.10457e-06
9.01655e-06
-2.122e-05
5.80195e-06
8.68978e-06
-1.96587e-05
7.83024e-06
7.85965e-06
-1.42182e-05
8.7515e-06
7.47317e-06
-1.14621e-05
6.46171e-06
-2.80266e-06
1.84422e-06
9.85255e-06
-1.78177e-05
5.45838e-06
9.55522e-06
-1.65248e-05
7.44332e-06
8.77846e-06
-1.14615e-05
8.40727e-06
8.43487e-06
-9.01648e-06
7.4946e-06
-8.87315e-07
1.18198e-06
-8.05043e-06
4.5547e-06
-7.11473e-06
6.43213e-06
-2.78226e-06
7.46736e-06
-8.66446e-07
6.34969e-06
5.69414e-06
5.75581e-06
-4.45341e-05
1.14741e-05
5.29181e-06
-4.04734e-05
1.43875e-05
4.32172e-06
-3.08116e-05
1.51913e-05
3.89907e-06
-2.49755e-05
2.91511e-06
-1.05149e-05
5.22952e-06
1.15408e-05
-4.04777e-05
1.08195e-05
1.08869e-05
-3.68845e-05
1.37368e-05
9.72244e-06
-2.7998e-05
1.45862e-05
9.08573e-06
-2.25832e-05
7.7291e-06
-8.85281e-06
4.26156e-06
1.44496e-05
-3.0789e-05
9.65663e-06
1.38001e-05
-2.7967e-05
1.25261e-05
1.25868e-05
-1.99521e-05
1.35143e-05
1.18593e-05
-1.5224e-05
1.03322e-05
-2.63324e-06
3.83721e-06
1.52491e-05
-2.49505e-05
9.0181e-06
1.46453e-05
-2.25508e-05
1.1797e-05
1.3571e-05
-1.52246e-05
1.2839e-05
1.28977e-05
-1.10969e-05
1.15247e-05
5.11707e-07
2.85622e-06
-1.04637e-05
7.66282e-06
-8.78877e-06
1.02714e-05
-2.60533e-06
1.14669e-05
5.4304e-07
1.07097e-05
1.01571e-05
1.01979e-05
-6.97305e-05
1.92215e-05
9.20564e-06
-6.12561e-05
2.25841e-05
7.60882e-06
-4.50237e-05
2.24571e-05
6.33906e-06
-3.45319e-05
4.57854e-06
-1.3417e-05
9.16556e-06
1.92628e-05
-6.12625e-05
1.76891e-05
1.77207e-05
-5.39233e-05
2.13788e-05
1.53929e-05
-3.94717e-05
2.15946e-05
1.37562e-05
-3.02161e-05
1.14034e-05
-1.03765e-05
7.57461e-06
2.26211e-05
-4.50031e-05
1.53556e-05
2.14135e-05
-3.94408e-05
1.91206e-05
1.91574e-05
-2.74817e-05
1.966e-05
1.75985e-05
-1.96057e-05
1.49805e-05
-1.5637e-06
6.30439e-06
2.24906e-05
-3.451e-05
1.37166e-05
2.1632e-05
-3.01815e-05
1.75605e-05
1.96956e-05
-1.96067e-05
1.84446e-05
1.84817e-05
-1.28642e-05
1.62294e-05
3.43033e-06
4.54026e-06
-1.33645e-05
1.13636e-05
-1.03066e-05
1.49428e-05
-1.53394e-06
1.61929e-05
3.4647e-06
1.76703e-05
2.27756e-05
2.28891e-05
-0.000121835
3.87722e-05
2.02115e-05
-0.000100528
4.08163e-05
1.4806e-05
-6.51092e-05
3.63255e-05
1.28755e-05
-4.6247e-05
9.2823e-06
-1.5789e-05
2.00954e-05
3.88945e-05
-0.000100537
3.37074e-05
3.38293e-05
-8.11531e-05
3.66414e-05
2.722e-05
-5.48198e-05
3.40499e-05
2.39675e-05
-3.87167e-05
1.92362e-05
-1.05004e-05
1.47057e-05
4.09263e-05
-6.50734e-05
2.71194e-05
3.67405e-05
-5.47659e-05
3.1667e-05
3.1757e-05
-3.65664e-05
3.0893e-05
2.8582e-05
-2.34461e-05
2.39714e-05
2.1034e-06
1.27832e-05
3.64233e-05
-4.62201e-05
2.38616e-05
3.41553e-05
-3.86747e-05
2.8478e-05
3.09872e-05
-2.34533e-05
2.83457e-05
2.84488e-05
-1.25987e-05
2.46618e-05
1.00742e-05
9.18581e-06
-1.57169e-05
1.91313e-05
-1.03998e-05
2.38712e-05
2.14505e-06
2.45617e-05
1.01284e-05
2.94327e-05
3.03422e-05
3.0387e-05
-0.000190031
5.356e-05
2.81882e-05
-0.000155812
6.64507e-05
2.49092e-05
-0.000108114
5.54599e-05
1.92429e-05
-5.92993e-05
1.41878e-05
-1.57568e-05
2.81356e-05
5.36146e-05
-0.000155824
5.08202e-05
5.08853e-05
-0.000126535
5.96226e-05
4.37466e-05
-8.24596e-05
5.09365e-05
3.61719e-05
-4.69596e-05
2.84521e-05
-7.80412e-06
2.48621e-05
6.6495e-05
-0.000108066
4.36866e-05
5.9668e-05
-8.23731e-05
4.90891e-05
4.91352e-05
-4.73574e-05
4.46942e-05
4.24971e-05
-2.53764e-05
3.42025e-05
9.94869e-06
1.92014e-05
5.54976e-05
-5.92704e-05
3.61276e-05
5.09802e-05
-4.69131e-05
4.24635e-05
4.47329e-05
-2.53869e-05
4.02016e-05
4.02457e-05
-8.08546e-06
3.40783e-05
2.15987e-05
1.4146e-05
-1.56879e-05
2.84064e-05
-7.70215e-06
3.41581e-05
9.98467e-06
3.40335e-05
2.16526e-05
4.65055e-05
5.13555e-05
5.14604e-05
-0.000298559
7.87812e-05
4.58916e-05
-0.000232185
9.34843e-05
3.93805e-05
-0.00016648
8.77795e-05
3.41626e-05
-9.23035e-05
2.45076e-05
-1.19938e-05
4.57577e-05
7.89026e-05
-0.000232211
7.28326e-05
7.30085e-05
-0.000180727
8.86002e-05
6.64299e-05
-0.000125277
7.77493e-05
5.75399e-05
-5.9486e-05
4.35703e-05
7.00355e-07
3.92408e-05
9.36089e-05
-0.000166433
6.6251e-05
8.87907e-05
-0.000125165
7.79231e-05
7.80752e-05
-7.06748e-05
6.7767e-05
6.45235e-05
-2.22039e-05
5.01929e-05
2.49374e-05
3.40098e-05
8.79061e-05
-9.22702e-05
5.73564e-05
7.79266e-05
-5.93955e-05
6.43644e-05
6.7922e-05
-2.22417e-05
5.86491e-05
5.88307e-05
3.32264e-06
4.71157e-05
4.14382e-05
2.43477e-05
-1.19182e-05
4.33895e-05
8.41583e-07
5.00198e-05
2.49791e-05
4.69402e-05
4.15215e-05
6.76407e-05
6.93167e-05
6.93352e-05
-0.00044594
0.000107775
6.02382e-05
-0.000335544
0.000124034
5.03036e-05
-0.000239278
0.000111905
4.15622e-05
-0.000127967
2.87219e-05
-1.07526e-05
6.02149e-05
0.000107798
-0.000335585
9.48336e-05
9.48594e-05
-0.000249966
0.000110862
8.26626e-05
-0.000173664
0.000101297
7.19658e-05
-8.03241e-05
5.20746e-05
1.0118e-05
5.02925e-05
0.000124061
-0.00023925
8.26504e-05
0.00011089
-0.000173555
9.87425e-05
9.87472e-05
-0.000102851
8.86818e-05
8.12866e-05
-2.14641e-05
6.26033e-05
4.06728e-05
4.15646e-05
0.000111931
-0.000127964
7.19761e-05
0.000101335
-8.02512e-05
8.12659e-05
8.87167e-05
-2.15009e-05
7.38808e-05
7.39173e-05
1.8077e-05
6.3131e-05
5.98223e-05
2.87028e-05
-1.06996e-05
5.20399e-05
1.02586e-05
6.25684e-05
4.06981e-05
6.3095e-05
5.98896e-05
9.62359e-05
0.000143983
0.000144186
-0.000742155
0.000195772
0.000113427
-0.000504627
0.00020829
9.16527e-05
-0.000349411
0.000172297
6.82843e-05
-0.000166098
4.69002e-05
-4.97065e-06
0.000113213
0.000196007
-0.000504672
0.000159412
0.000159699
-0.000342437
0.000176346
0.000136
-0.000234945
0.000149079
0.000106102
-9.08744e-05
8.11709e-05
2.54701e-05
9.1448e-05
0.000208526
-0.000349375
0.000135747
0.000176629
-0.000234783
0.000153079
0.000153323
-0.000137506
0.000131729
0.000121966
-1.59785e-05
9.93802e-05
6.28764e-05
6.80732e-05
0.000172545
-0.000166098
0.000105824
0.000149402
-9.0775e-05
0.000121703
0.000132011
-1.60688e-05
0.000110573
0.000110878
4.02939e-05
9.56762e-05
9.53638e-05
4.66695e-05
-4.88536e-06
8.0912e-05
2.56601e-05
9.91157e-05
6.29296e-05
9.5385e-05
9.54804e-05
0.000146166
0.000222714
0.000222712
-0.00120032
0.000302824
0.000175188
-0.000766943
0.000307646
0.000135325
-0.000498541
0.000242017
9.62494e-05
-0.000205781
6.51766e-05
6.7953e-06
0.000175174
0.000302824
-0.000766998
0.000242951
0.000242964
-0.000477989
0.00025485
0.000198318
-0.000309837
0.000206264
0.000147396
-9.34361e-05
0.000113393
4.84978e-05
0.000135326
0.000307635
-0.0004985
0.000198316
0.000254857
-0.000309667
0.00021501
0.00021502
-0.000170902
0.000181476
0.000167299
-2.34687e-06
0.000133826
0.000101406
9.62431e-05
0.000242014
-0.000205795
0.000147397
0.00020629
-9.33615e-05
0.000167279
0.000181483
-2.41431e-06
0.000148793
0.000148819
7.72594e-05
0.000124648
0.000150493
6.52022e-05
6.83762e-06
0.000113405
4.86758e-05
0.000133828
0.000101431
0.00012463
0.000150598
0.000215346
0.000598979
0.000599282
-0.00240976
0.000666012
0.000376082
-0.00121437
0.000580868
0.000276761
-0.000698574
0.000413885
0.000175352
-0.000221332
0.000122463
5.08137e-05
0.00037578
0.000666353
-0.00121437
0.000456506
0.000456987
-0.000639619
0.000437768
0.000362192
-0.00037653
0.000327144
0.000241639
-4.90995e-05
0.000184743
0.000120421
0.000276446
0.00058122
-0.000698501
0.000361787
0.000438239
-0.00037626
0.000363044
0.000363466
-0.000173432
0.000287464
0.000264776
5.00958e-05
0.000206393
0.00018825
0.000175053
0.000414281
-0.000221347
0.000241211
0.000327737
-4.90184e-05
0.000264343
0.00028792
5e-05
0.000217272
0.000217784
0.000171323
0.000180973
0.000253348
0.000122198
5.08502e-05
0.000184324
0.000120769
0.000205948
0.000188306
0.000180489
0.000253507
0.00032545
0.000963933
0.000963936
-0.00435765
0.00106548
0.000641102
-0.00197029
0.000887454
0.000428591
-0.000961692
0.000591792
0.000251436
-0.000189774
0.000167696
0.000139885
0.000641108
0.00106539
-0.00197017
0.000726341
0.000726296
-0.000810045
0.000640656
0.000529215
-0.000391468
0.000454716
0.000336671
5.16054e-05
0.000244472
0.000242205
0.000428642
0.000887347
-0.0009616
0.00052926
0.000640563
-0.000391146
0.000505445
0.000505368
-0.000125771
0.000379668
0.000349142
0.000163402
0.000258862
0.000326214
0.000251496
0.00059171
-0.000189833
0.000336722
0.000454652
5.16673e-05
0.000349216
0.000379597
0.000163276
0.000275808
0.000275757
0.000318117
0.000218757
0.000396396
0.000167777
0.000139834
0.000244583
0.00024245
0.000258969
0.000326198
0.000218818
0.000396529
0.000464602
0.00304227
0.00304293
-0.00336628
-0.00252535
-0.00252512
-0.00204474
0.00266096
0.00141288
-0.00300782
0.00170497
0.000859926
-0.000878943
0.00102983
0.000448627
2.92919e-05
0.000255371
0.000412896
0.00141225
0.00266123
-0.00300676
0.00136565
0.00136651
-0.00071708
0.00106718
0.000956745
-0.000189814
0.000694817
0.000519928
0.000352664
0.00034586
0.000502811
0.000859388
0.00170533
-0.00087876
0.000956082
0.00106785
-0.000189179
0.000821935
0.000822621
0.0001425
0.000570958
0.000499295
0.000435012
0.000358733
0.00056827
0.000448332
0.0010304
2.90478e-05
0.000519281
0.000695822
0.000352741
0.000498661
0.000571682
0.000434835
0.000373547
0.000374359
0.000568166
0.000295933
0.000615218
0.000255007
0.000412822
0.000345216
0.000503277
0.000358007
0.000568308
0.000295164
0.000615376
0.000663849
0.00113914
0.00113927
-0.00144796
-0.0013952
-0.00140975
-0.00140976
0.00497798
0.00274588
-0.00137788
-0.000469648
-0.000896419
-0.000355717
-0.00131639
-0.0011998
-0.00302818
-0.00212842
0.00259344
0.00126815
0.000220829
0.00133377
0.00055547
0.000717457
0.000301059
0.000829948
0.0027436
0.00497704
-0.00137705
-0.000891995
-0.000468917
-0.000355398
-0.0013165
-0.00120033
-0.00302821
-0.00212893
0.00222468
0.0022245
0.000323224
0.00140425
0.00129008
0.00060868
0.000829956
0.00062397
0.00085846
0.000389605
0.000847002
0.00126802
0.00259318
0.000220688
0.00129008
0.00140387
0.000609389
0.000981821
0.000981654
0.000759191
0.000646604
0.000557032
0.000837167
0.00038146
0.000871664
0.000555606
0.00133343
0.000717337
0.000624084
0.000829629
0.000858501
0.000557229
0.000646365
0.00083698
0.000401987
0.000401778
0.000878662
0.000307861
0.00085781
0.000301259
0.000829651
0.00038984
0.000847241
0.000381714
0.000871561
0.000308079
0.000857895
0.000867416
0.00351843
0.000595726
0.000595643
-0.00470529
-0.00148992
0.00368208
0.00140171
-0.00140587
-0.00172454
-0.00164701
-0.000265686
-0.00011803
8.94322e-05
8.8011e-05
0.00355528
0.00174074
0.00270808
-0.00215509
-0.00181709
-0.00209084
-0.00174119
0.0018107
0.000746612
0.00171465
0.000362563
0.00148213
-0.00149014
0.00140482
0.00368183
-0.00140599
-0.00172503
-0.0016468
-0.000266154
-0.000118191
8.91783e-05
8.78103e-05
0.00345767
0.00345777
0.00320584
-0.00141587
-0.00102838
-0.00150078
-0.000946338
-0.00142995
-0.0010286
-0.00150125
-0.000946892
0.00180875
0.001773
0.00222535
0.0010696
0.000766267
0.00157795
0.000456435
0.00136373
0.00173983
0.00355573
0.00270703
-0.00215496
-0.00181635
-0.0020909
-0.0017411
0.00177176
0.00180938
0.00222584
0.0012747
0.00127596
0.00175329
0.000806796
0.000657643
0.00141369
0.000437776
0.00126772
0.000746397
0.0018113
0.00171447
0.000765385
0.00107091
0.00157799
0.000656852
0.000807833
0.00141364
0.000464565
0.000465654
0.00126294
0.000351022
0.00115435
0.000361872
0.00148179
0.000455481
0.00136376
0.000436673
0.00126765
0.000349961
0.00115428
0.0010952
0.00512272
2.482e-05
2.49316e-05
-0.00517716
-0.000538514
0.000806731
0.000110093
-0.00138539
0.000989983
0.00222221
0.00124801
0.00384544
-0.00179765
-0.00137417
-0.000861965
-0.000571005
0.00117287
0.000526928
0.00222564
0.000251288
0.0018837
-0.000538577
0.000807015
0.000109804
-0.00138568
0.000990089
0.0015006
0.00149897
0.00373604
-0.000569731
-0.000726687
-0.000161847
-0.000306308
-0.000569558
-0.000726882
-0.000162189
-0.000306564
0.00102239
0.00111814
0.00283343
0.000657644
0.000500134
0.00196949
0.000320768
0.00164895
0.00124833
0.00222158
0.00384387
-0.00179726
-0.00137411
-0.000861911
-0.00057064
0.00111827
0.00102133
0.00283354
0.000822257
0.000821903
0.00234555
0.000543589
0.000428798
0.0017637
0.000307169
0.0015172
0.000527431
0.00117207
0.00222562
0.000500404
0.000656842
0.0019695
0.000429156
0.000543082
0.00176371
0.000307138
0.000306687
0.00150707
0.000257016
0.00133296
0.000251816
0.00188293
0.000321275
0.00164874
0.000307695
0.00151697
0.00025748
0.00133282
0.00122267
0.00541124
9.58258e-05
9.58601e-05
-0.00560515
0.000242151
-1.84104e-05
-0.000528066
-0.00360659
0.000260299
0.000214127
0.000248516
0.00149699
0.00104202
0.00038011
0.000225519
0.00118448
0.000406528
0.00336843
-0.000707818
-0.000290743
-6.2836e-05
-5.58392e-05
0.000648676
0.000412574
0.00234575
7.59331e-05
0.00188598
0.000242134
-0.000527285
-1.66627e-05
-0.00360799
0.000260269
0.000214194
0.000248505
0.00149716
0.00104216
0.000380549
0.000225883
0.000190762
0.000190975
0.00257531
0.000358292
-0.000208326
0.000432164
-0.000191583
0.0003581
-0.000207592
0.000428968
-0.000191035
0.000391125
0.000365678
0.00267392
0.000370237
0.000343527
0.00205943
0.00015317
0.00168622
0.000403747
0.00118535
0.00336824
-0.00070886
-0.000291266
-6.46647e-05
-5.57955e-05
0.000364606
0.000391779
0.00267187
0.000368068
0.000369798
0.00233796
0.000353811
0.000275271
0.00184621
0.000182679
0.00157511
0.000411905
0.000649624
0.00234609
0.000342578
0.000371345
0.00205926
0.00027442
0.000354866
0.0018468
0.000228097
0.000229184
0.00159948
0.000195606
0.00139779
7.48509e-05
0.00188568
0.00015212
0.00168513
0.000181431
0.00157489
0.00019454
0.00139728
0.00127222
0.0056541
-9.1372e-07
-8.25978e-07
-0.00565343
-1.99276e-05
0.00319453
-0.000348279
-0.000151773
-1.06276e-05
-0.000316325
-0.000177225
-0.000673458
-0.00066063
-0.000428138
-0.000416414
0.000309974
-0.000196062
0.00306633
0.000322143
0.000260664
-0.00029503
-0.000108938
5.51566e-05
0.000161128
0.00243008
-7.62247e-05
0.00173251
-2.01318e-05
0.00319363
-0.000151071
-0.000348148
-1.08464e-05
-0.000316407
-0.000177222
-0.000673283
-0.000660511
-0.000428029
-0.000416248
-0.00029014
-0.00029194
0.000836984
0.000195791
-4.56175e-05
-0.000426628
0.000203543
0.000195018
-4.65388e-05
-0.000427299
0.00020274
0.000850958
0.000850899
0.000767542
-0.000197234
-0.000187486
0.00257244
-4.60396e-05
4.00771e-05
0.00202929
-4.24462e-05
0.00157783
-0.000193865
0.000308671
0.0030669
0.00032217
0.000260232
-0.000295178
-0.000108847
-0.000186246
-0.000198581
0.0025709
-9.9405e-05
-0.000100203
0.00216384
2.80227e-05
-1.67575e-05
0.00177562
-1.35741e-06
0.00146164
0.000161368
5.43607e-05
0.00242978
4.03465e-05
-4.73791e-05
0.00202908
-1.61873e-05
2.73345e-05
0.00177579
9.33896e-06
8.86302e-06
0.00154833
5.686e-05
0.00132817
-7.52227e-05
0.00173239
-4.1767e-05
0.00157657
-5.93994e-07
0.00146142
5.75539e-05
0.00132781
0.00119379
0.00567557
9.5965e-06
9.56212e-06
-0.00569414
-0.000450078
0.000513287
8.94414e-05
-0.000639962
0.000482991
-0.000240572
-0.000329133
0.00289913
-0.000129576
-1.9378e-05
0.000407082
0.000448768
-9.97792e-05
1.69697e-05
0.0022717
-0.000108795
0.00157995
-0.000449963
0.000513251
8.8788e-05
-0.000639718
0.000482817
-0.000131111
-0.00013067
3.95739e-05
3.99892e-05
0.00105342
-2.04751e-05
-2.69061e-05
2.94232e-05
-1.9865e-05
-2.62774e-05
2.98797e-05
-0.000324027
-0.000245007
0.00253755
-8.71615e-05
7.31105e-05
0.000139465
0.00014938
-0.000121663
-7.38686e-05
0.00191776
-7.54255e-05
0.00145627
-0.000329182
-0.000240635
0.00289968
-0.000129573
-2.01904e-05
0.000407203
0.000448811
-0.000245058
-0.000323255
0.00253724
-8.76822e-05
7.24656e-05
0.000139031
0.000148974
-0.00016527
-0.000164843
0.00200389
-3.37936e-05
-8.98674e-05
0.00166014
-4.13189e-05
0.00132722
1.61486e-05
-9.95178e-05
0.00227121
-7.4614e-05
-0.000120685
0.00191727
-9.06532e-05
-3.31731e-05
0.00166016
-3.5879e-05
-3.49124e-05
0.0014386
3.12922e-05
0.00122057
-0.000108911
0.00157999
-7.58814e-05
0.00145561
-4.17829e-05
0.00132717
3.07359e-05
0.00122019
0.00109521
0.00572189
-3.80452e-05
-3.81e-05
-0.00564462
0.000631256
-0.00168231
-0.000713626
-0.0017803
0.000666895
0.000729361
0.000733068
0.000746495
0.000101869
0.000442123
8.60657e-05
-0.00237503
-0.00111844
0.00153338
0.00102743
0.00108607
0.0014491
0.00127571
-0.00118302
-0.000391528
0.00146675
-0.000255246
0.00114739
0.000631292
-0.000712938
-0.00168238
-0.00177972
0.000666938
0.000729387
0.000733107
0.000746116
0.000441897
0.000101746
8.60399e-05
-0.0025865
-0.00258746
0.00144853
0.000921954
0.000632884
0.00119169
0.000595756
0.000921428
0.000632291
0.00119132
0.000595269
-0.00082997
-0.000691492
-0.000691513
-0.000744195
-0.00159062
-0.00118779
0.00161102
-0.000850456
-0.00055583
0.00134189
-0.00026774
0.00112024
-0.00111744
-0.00237511
0.00153367
0.00102741
0.00108609
0.00144912
0.00127578
-0.00118705
-0.00159144
0.00161083
-0.000867585
-0.00086828
0.00136491
-0.000509215
-0.000495943
0.00124188
-0.000235652
0.00103582
-0.000390834
-0.00118366
0.0014666
-0.00055518
-0.000851422
0.0013416
-0.000495289
-0.000509963
0.00124196
-0.000340325
-0.000341074
0.00112877
-0.000131259
0.000995593
-0.0002545
0.00114738
-0.000267008
0.0011197
-0.000234853
0.00103574
-0.000130486
0.0009953
0.000887731
-0.0069952
-0.00699558
-0.0329961
0.0157948
0.0119365
0.0119362
0.00734825
-0.00396406
-0.00261108
-0.00349287
0.00152293
0.000375291
0.000686763
0.000458036
-0.00191488
-0.00103024
0.000492016
-0.0010209
-0.000315335
0.000886935
-0.000266162
0.000767801
-0.00261071
-0.00396392
-0.00349241
0.00152255
0.000686619
0.000374877
0.000457814
-0.00215576
-0.00215585
0.000538354
-0.00136391
-0.00108418
0.000873097
-0.000751038
-0.000465377
0.000879067
-0.000277573
0.000815457
-0.00103003
-0.00191461
0.000492061
-0.00108412
-0.00136391
0.000872989
-0.000812417
-0.000812352
0.000821383
-0.000458696
-0.000443853
0.000866635
-0.000243254
0.000755899
-0.000315267
-0.00102083
0.0008869
-0.000465534
-0.000750904
0.000878866
-0.000444043
-0.00045854
0.000866653
-0.000300076
-0.000299839
0.000840786
-0.000123857
0.000772824
-0.000265939
0.000767731
-0.000277614
0.00081519
-0.000243301
0.000755818
-0.000124047
0.000772657
0.000684308
-0.00544967
-0.00545024
-0.0220938
-0.00349232
-0.00240447
-0.00303885
-0.00204283
-0.000935635
-3.58371e-05
-0.00118487
-0.000402872
0.000426598
-0.000248614
0.000496923
-0.00240366
-0.00349277
-0.00303869
-0.00210621
-0.00210693
-5.66436e-05
-0.00145499
-0.00107468
0.000360922
-0.000901646
-0.000558981
0.000481837
-0.0002914
0.000563542
-0.000935051
-0.00204332
-3.57844e-05
-0.00107412
-0.00145567
0.000360804
-0.00088443
-0.000885006
0.000442016
-0.000586307
-0.000540652
0.000550184
-0.000279053
0.000539723
-0.000402394
-0.00118539
0.000426585
-0.000558416
-0.000902442
0.000481659
-0.000540057
-0.000586931
0.00055022
-0.000408316
-0.000408982
0.000577374
-0.000194539
0.000580645
-0.000247995
0.000496897
-0.00029077
0.00056332
-0.000278415
0.000539675
-0.000193895
0.00058051
0.000527915
-0.00417097
-0.00417118
-0.0136844
-0.00281118
-0.00200188
-0.00241452
-0.00175616
-0.000848358
-0.000255292
-0.00103776
-0.000341012
3.75705e-05
-0.000244025
0.000259821
-0.00200167
-0.00281136
-0.00241443
-0.00184442
-0.00184459
-0.000371181
-0.00129697
-0.000994675
-4.0216e-05
-0.000812542
-0.000495164
0.000151561
-0.000293109
0.000336873
-0.000848101
-0.00175632
-0.000255273
-0.000994528
-0.00129713