/*--------------------------------*- C++ -*----------------------------------*\
| =========                 |                                                 |
| \\      /  F ield         | OpenFOAM: The Open Source CFD Toolbox           |
|  \\    /   O peration     | Version:  5.x                                   |
|   \\  /    A nd           | Web:      www.OpenFOAM.org                      |
|    \\/     M anipulation  |                                                 |
\*---------------------------------------------------------------------------*/
FoamFile
{
    version     2.0;
    format      ascii;
    class       volScalarField;
    location    "0.036";
    object      interFace;
}
// * * * * * * * * * * * * * * * * * * * * * * * * * * * * * * * * * * * * * //

dimensions      [0 0 0 0 0 0 0];

internalField   nonuniform List<scalar> 
1553
(
0
0
0
0
0
0
0
0
0
0
0
0
0
0
0
0
0
0
0
0
0
0
0
0
0
0
0
0
0
0
0
0
0
0
0
0
0
0
0
0
0
0
0
0
0
0
0
0
0
0
0
0
0
0
0
0
0
0
0
0
0
0
0
0
0
0
0
0
0
0
0
0
0
0
0
0
0
0
0
0
0
0
0
0
0
0
0
0
0
0
0
0
0
0
0
0
0
0
0
0
0
0
0
0
0
0
0
0
0
0
0
0
0
0
0
0
0
0
0
0
0
0
0
0
0
0
0
0
0
0
0
0
0
0
0
0
0
0
0
0
0
0
0
0
0
0
0
0
0
0
0
0
0
0
0
0
0
0
0
0
0
0
0
0
0
0
0
0
0
0
0
0
0
0
0
0
0
0
0
0
0
0
0
0
0
0
0
0
0
0
0
0
0
0
0
0
0
0
0
0
0
0
0
0
0
0
0
0
0
0
0
0
0
0
0
0
0
0
0
0
0
0
0
0
0
0
0
0
0
0
0
0
0
0
0
0
0
0
0
0
0
0
0
0
0
0
0
0
0
0
0
0
0
0
0
0
0
0
0
0
0
0
0
0
0
0
0
0
0
0
0
0
0
0
0
0
0
0
0
0
0
0
0
0
0
0
0
0
0
0
0
0
0
0
0
0
0
0
0
0
0
0
0
0
0
0
0
0
0
0
0
0
0
0
0
0
0
0
0
0
0
0
0
0
0
0
0
0
0
0
0
0
0
0
0
0
0
0
0
0
0
0
0
0
0
0
0
0
0
0
0
0
0
0
0
0
0
0
0
0
0
0
0
0
0
0
0
0
0
0
0
0
0
0
0
0
0
0
0
0
0
0
0
0
0
0
0
0
0
0
0
0
0
0
0
0
0
0
0
0
0
0
0
0
0
0
0
0
0
0
0
0
0
0
0
0
0
0
0
0
0
0
0
0
0
0
0
0
0
0
0
0
0
0
0
0
0
0
0
0
0
0
0
0
0
0
0
0
0
0
0
0
0
0
0
0
0
0
0
0
0
0
0
0
0
0
0
0
0
0
0
0
0
0
0
0
0
0
0
0
0
0
0
0
0
0
0
0
0
0
0
0
0
0
0
0
0
0
0
0
0
0
0
0
0
0
0
0
0
0
0
0
0
0
0
0
0
0
0
0
0
0
0
0
0
0
0
0
0
0
0
0
0
0
0
0
0
0
0
0
0
0
0
0
0
0
0
0
0
0
0
0
0
0
0
0
0
0
0
0
0
0
0
0
0
0
0
0
0
0
0
0
0
0
0
0
0
0
0
0
0
0
0
0
0
0
0
0
0
0
0
0
0
0
0
0
0
0
0
0
0
0
0
0
0
0
0
0
0
0
0
0
0
0
0
0
0
0
0
0
0
0
0
0
0
0
0
0
0
0
0
0
0
0
0
0
0
0
0
0
0
0
0
0
0
0
0
0
0
0
0
0
0
0
0
0
0
0
0
0
0
0
0
0
0
0
0
0
0
0
0
0
0
0
0
0
0
0
0
0
0
0
0
0
0
0
0
0
0
0
0
0
0
0
0
0
0
0
0
0
0
0
0
0
0
0
0
0
0
0
0
0
0
0
0
0
0
0
0
0
0
0
0
0
0
0
0
0
0
0
0
0
0
0
0
0
0
0
0
0
0
0
0
0
0
0
0
0
0
0.843033
0
0
0
0
0
0
0
0
0
0
0
0
0
0
0
0
0
0
0
0
0
0
0
0
0.568378
0
0
0
0
0
0
0
0
0
0
0
0
0
0
0
0
0
0
0
0
0
0
0
0
0.760323
0
0
0
0
0
0
0
0
0
0
0
0
0
0
0
0
0
0
0
0
0
0
0
0
0
0
0
0
0
0
0
0
0
0
0
0
0
0
0
0
0
0
0
0
0
0
0
0
0
0.684505
0
0
0
0
0
0
0
0
0
0
0
0
0
0
0
0
0
0
0
0
0
0
0
0
0.602259
0
0
0
0
0
0
0
0
0
0
0
0
0
0
0
0
0
0
0
0
0
0
0
0
0
0
0
0
0
0
0
0
0
0
0
0
0
0
0
0
0
0
0
0
0
0
0
0
0
0
0
0
0
0
0
0
0
0
0
0
0
0
0
0
0
0
0
0
0
0
0
0
0
0
0
0
0
0
0
0
0
0
0
0
0
0
0
0
0
0
0
0
0
0
0
0
0
0
0
0
0
0
0
0
0
0
0
0
0
0
0
0
0
0
0
0
0
0
0
0
0
0
0
0
0
0
0.747655
0.478745
0
0
0.824383
0.555473
0.747656
0
0.478746
0
0.824384
0
0.555474
0.299467
0.299468
0.0305572
0.645106
0.376195
0.376196
0.107285
0
0
0.868358
0
0
0
0
0
0
0.868359
0
0
0
0
0.491412
0.491413
0.222502
0
0.919519
0.91952
0.740246
0
0
0.840527
0.817118
0.548206
0.548206
0.279294
0
0.8479
0.594871
0
0
0.734868
0.465956
0.8479
0
0.594872
0
0.734868
0
0.465957
0.415593
0.415593
0.146681
0.55559
0.286678
0.286678
0.0177664
0
0.855295
0.512626
0
0
0
0.948642
0.855295
0
0.512626
0
0
0
0.948642
0.333347
0.333348
0.0644358
0
0.742279
0.742279
0.473367
0
0
0.862714
0
0
0
0
0.651446
0.625865
0.625866
0.92036
0.491408
0.785903
0.785903
0.424834
0.467801
0.467802
0.693749
0.333344
0.559291
0.559291
0.305794
0.574709
0.510648
0.510648
0.440252
0.440252
0.376191
0.216158
0.305798
0.421011
0.241738
0.350615
0.286554
0.171341
0.216158
0.305799
0.421012
0.241738
0.350615
0.286554
0.171342
0.126521
0.0368886
0.152101
0.152101
0.196918
0.0817046
0.081705
0.561809
0.536228
0.356955
0.65145
0.401771
0.696266
0.516992
0.561809
0.536229
0.356955
0.65145
0.401771
0.696267
0.516993
0.472172
0.267318
0.267319
0.38254
0.312135
0.427356
0.427356
0.195188
0.284829
0.331495
0.15222
0.329646
0.197037
0.150371
0.195188
0.284829
0.331495
0.15222
0.329646
0.197037
0.150372
0.105551
0.0159175
0.0625831
0.0625832
0.1074
0.0607342
0.0607343
0.873031
0.736724
0.557442
0.604116
0.781541
0.648932
0.828214
0.873032
0.557443
0.736725
0.604116
0.781542
0.648933
0.828215
0.335196
0.378164
0.19889
0.424837
0.243706
0.469654
0.29038
0.335196
0.378164
0.19889
0.424838
0.243707
0.469654
0.29038
0.245559
0.109252
0.109253
0.155926
0.154069
0.200742
0.200743
0.561144
0.83006
0.876733
0.876733
0.695602
0.695602
0.742275
0.471507
0.561148
0.787096
0.607821
0.605965
0.652638
0.42669
0.471507
0.561148
0.787096
0.607821
0.605965
0.652638
0.42669
0.38187
0.292236
0.518184
0.518184
0.563001
0.337053
0.337053
0.824651
0.824651
0.555741
0.632443
0.363532
0.363533
0.0946222
0.100945
0.0753732
0.0753735
0.0113126
0.12019
0.0561287
0.056129
0.753991
0.485076
0.779571
0.600289
0.529892
0.824387
0.709174
0.753992
0.485077
0.60029
0.779572
0.529893
0.824388
0.709176
0.190582
0.344283
0.16501
0.280222
0.209826
0.325039
0.145765
0.190582
0.344284
0.16501
0.280223
0.209826
0.325039
0.145766
0.284825
0.553741
0.421132
0.421132
0.419283
0.419283
0.286674
0.280219
0.43392
0.43392
0.549133
0.299463
0.414676
0.414676
0.148523
0.191498
0.191498
0.0588892
0.236315
0.103706
0.103706
0
0
0
0
0
0
0
0.843627
0.753987
0
0.689926
0.978085
0.619529
0.914024
0.843628
0.753987
0
0.689926
0.978086
0.61953
0.914025
0.733023
0.464107
0.690055
0.510773
0.508924
0.734872
0.688206
0.733023
0.464108
0.510773
0.690056
0.508924
0.734872
0.688207
0.23816
0.46041
0.281135
0.327801
0.325952
0.372617
0.193343
0.23816
0.46041
0.281135
0.327801
0.325952
0.372618
0.193343
0.139438
0.139439
0.184255
0.29314
0.203508
0.248324
0.248324
0
0
0
0
0
0.894176
0.54281
0
0
0
0
0.894177
0
0.542811
0.728415
0.702843
0.523561
0.4595
0.747659
0.504316
0.683598
0.728416
0.523562
0.702844
0.459501
0.74766
0.504317
0.6836
0.408348
0.229075
0.273891
0.382777
0.472418
0.517234
0.337961
0.408349
0.229076
0.273892
0.382777
0.472419
0.517235
0.337961
0.327797
0.550047
0.550047
0.596713
0.415589
0.462255
0.462255
0.497985
0.497986
0.363528
0.472414
0.741328
0.606871
0.606871
0
0
0
0
0
0
0
0.82266
0.733019
0.958967
0.60041
0.957118
0.598561
0.824509
0.82266
0.733019
0.958967
0.60041
0.957118
0.598562
0.824509
0.546361
0.456727
0.324111
0.324111
0.368928
0.501544
0.501544
0.818052
0.971754
0.613198
0.728411
0.837296
0.952509
0.593953
0.818052
0.971754
0.613198
0.728411
0.837297
0.95251
0.593954
0
0
0
0
0
0
0.933851
0
0
0
0
0
0
0.933851
0.635998
0.725639
0.593022
0.413748
0.770456
0.458565
0.591181
0.635998
0.725639
0.593023
0.413748
0.770456
0.458565
0.591181
0.775995
0.81897
0.639688
0.507079
0.863787
0.551896
0.731178
0.775995
0.639688
0.818971
0.507079
0.863787
0.551896
0.731178
0
0
0
0
0
0
0.97118
0.446846
0.600557
0.600557
0.357214
0.645373
0.40203
0.40203
0.536483
0.869467
0.690193
0.626124
0.73501
0.67094
0.491667
0.536483
0.869467
0.690194
0.626125
0.73501
0.670941
0.491667
0.766908
0.587626
0.811724
0.651695
0.696512
0.92061
0.875794
0.587627
0.766909
0.811725
0.651697
0.696513
0.920611
0.875795
0.725635
0.994551
0.68266
0.68266
0.860093
0.860093
0.548202
)
;

boundaryField
{
    inlet
    {
        type            calculated;
        value           uniform 0;
    }
    wall
    {
        type            calculated;
        value           uniform 0;
    }
    outlet
    {
        type            calculated;
        value           uniform 0;
    }
    procBoundary0to1
    {
        type            processor;
        value           uniform 0;
    }
    procBoundary0to2
    {
        type            processor;
        value           uniform 0;
    }
}


// ************************************************************************* //
