/*--------------------------------*- C++ -*----------------------------------*\
| =========                 |                                                 |
| \\      /  F ield         | OpenFOAM: The Open Source CFD Toolbox           |
|  \\    /   O peration     | Version:  5.x                                   |
|   \\  /    A nd           | Web:      www.OpenFOAM.org                      |
|    \\/     M anipulation  |                                                 |
\*---------------------------------------------------------------------------*/
FoamFile
{
    version     2.0;
    format      ascii;
    class       volScalarField;
    location    "0.027";
    object      phiIB;
}
// * * * * * * * * * * * * * * * * * * * * * * * * * * * * * * * * * * * * * //

dimensions      [0 2 -1 0 0 0 0];

internalField   nonuniform List<scalar> 
1560
(
4.71984e-06
4.72744e-06
4.72446e-06
4.72876e-06
4.7274e-06
4.72119e-06
4.72879e-06
4.72577e-06
4.73004e-06
4.72864e-06
4.71718e-06
4.7247e-06
4.72165e-06
4.72583e-06
4.7244e-06
4.72023e-06
4.72776e-06
4.72469e-06
4.72885e-06
4.7274e-06
4.71284e-06
4.72028e-06
4.71721e-06
4.72129e-06
4.71982e-06
9.14665e-06
9.15108e-06
9.15121e-06
9.15329e-06
9.15345e-06
9.14711e-06
9.15144e-06
9.15144e-06
9.15339e-06
9.15339e-06
9.14574e-06
9.14993e-06
9.14982e-06
9.1516e-06
9.15146e-06
9.1462e-06
9.15032e-06
9.15012e-06
9.15181e-06
9.15156e-06
9.14232e-06
9.14638e-06
9.14613e-06
9.14774e-06
9.14744e-06
2.10765e-05
2.10864e-05
2.10853e-05
2.10909e-05
2.10906e-05
2.10775e-05
2.10873e-05
2.1086e-05
2.10915e-05
2.10909e-05
2.10725e-05
2.10822e-05
2.10808e-05
2.10861e-05
2.10853e-05
2.10742e-05
2.10838e-05
2.10823e-05
2.10875e-05
2.10866e-05
2.10647e-05
2.10743e-05
2.10727e-05
2.10777e-05
2.10768e-05
2.90377e-05
2.90485e-05
2.90478e-05
2.90539e-05
2.90539e-05
2.90387e-05
2.90494e-05
2.90484e-05
2.90543e-05
2.9054e-05
2.90336e-05
2.90441e-05
2.9043e-05
2.90487e-05
2.90482e-05
2.90351e-05
2.90455e-05
2.90443e-05
2.90498e-05
2.90493e-05
2.9025e-05
2.90353e-05
2.90341e-05
2.90395e-05
2.90389e-05
3.92107e-05
3.92272e-05
3.92256e-05
3.9235e-05
3.92346e-05
3.92118e-05
3.92281e-05
3.92265e-05
3.92357e-05
3.92351e-05
3.9203e-05
3.92192e-05
3.92175e-05
3.92266e-05
3.92259e-05
3.9205e-05
3.92212e-05
3.92194e-05
3.92285e-05
3.92277e-05
3.9189e-05
3.92051e-05
3.92032e-05
3.92122e-05
3.92115e-05
4.8592e-05
4.86135e-05
4.86114e-05
4.86238e-05
4.8623e-05
4.85933e-05
4.86147e-05
4.86125e-05
4.86248e-05
4.8624e-05
4.85817e-05
4.86029e-05
4.86007e-05
4.86128e-05
4.8612e-05
4.85843e-05
4.86055e-05
4.86032e-05
4.86153e-05
4.86145e-05
4.85636e-05
4.85845e-05
4.85821e-05
4.85941e-05
4.85933e-05
5.79533e-05
5.79845e-05
5.7982e-05
5.80007e-05
5.8e-05
5.79546e-05
5.79858e-05
5.79832e-05
5.80018e-05
5.80011e-05
5.7937e-05
5.79679e-05
5.79652e-05
5.79835e-05
5.79827e-05
5.79403e-05
5.79711e-05
5.79682e-05
5.79863e-05
5.79855e-05
5.79098e-05
5.79403e-05
5.79373e-05
5.79552e-05
5.79543e-05
6.78971e-05
6.79391e-05
6.79354e-05
6.79609e-05
6.79599e-05
6.78991e-05
6.7941e-05
6.79371e-05
6.79625e-05
6.79615e-05
6.78751e-05
6.79168e-05
6.79126e-05
6.79375e-05
6.79363e-05
6.78797e-05
6.79213e-05
6.7917e-05
6.79417e-05
6.79404e-05
6.78387e-05
6.78798e-05
6.78755e-05
6.78998e-05
6.78985e-05
7.71924e-05
7.7254e-05
7.72504e-05
7.72879e-05
7.72873e-05
7.71945e-05
7.72558e-05
7.72519e-05
7.72892e-05
7.72885e-05
7.71595e-05
7.72202e-05
7.72157e-05
7.72521e-05
7.72513e-05
7.71647e-05
7.72252e-05
7.72204e-05
7.72562e-05
7.7255e-05
7.71052e-05
7.71648e-05
7.71598e-05
7.7195e-05
7.71935e-05
8.72447e-05
8.73281e-05
8.73283e-05
8.73845e-05
8.73882e-05
8.72459e-05
8.7329e-05
8.73279e-05
8.73821e-05
8.7385e-05
8.71968e-05
8.72796e-05
8.7277e-05
8.73279e-05
8.73289e-05
8.7201e-05
8.72836e-05
8.72798e-05
8.73292e-05
8.73288e-05
8.7119e-05
8.72011e-05
8.7197e-05
8.72462e-05
8.72455e-05
9.69528e-05
9.70855e-05
9.711e-05
9.72087e-05
9.72348e-05
9.69468e-05
9.70772e-05
9.70969e-05
9.71891e-05
9.7209e-05
9.68673e-05
9.6995e-05
9.70087e-05
9.70966e-05
9.71102e-05
9.68604e-05
9.69865e-05
9.6995e-05
9.7077e-05
9.70858e-05
9.67375e-05
9.68604e-05
9.68673e-05
9.69467e-05
9.69531e-05
0.000106978
0.000107175
0.000107282
0.000107536
0.000107651
0.00010695
0.000107142
0.000107231
0.000107451
0.000107536
0.000106815
0.000107004
0.000107069
0.000107231
0.000107281
0.000106775
0.000106958
0.000107004
0.000107141
0.000107175
0.000106594
0.000106775
0.000106815
0.000106949
0.000106978
0.000117325
0.000117714
0.00011799
0.000118464
0.000118686
0.000117242
0.000117609
0.000117857
0.000118285
0.000118464
0.000116984
0.000117304
0.000117499
0.000117856
0.000117989
0.000116865
0.000117156
0.000117304
0.000117608
0.000117713
0.000116591
0.000116865
0.000116983
0.000117241
0.000117325
0.000126988
0.000127735
0.000128188
0.000128683
0.000128843
0.000126819
0.000127516
0.000127954
0.000128491
0.000128684
0.000126402
0.000126924
0.000127313
0.000127952
0.000128187
0.000126184
0.000126612
0.000126924
0.000127515
0.000127733
0.000125782
0.000126184
0.000126401
0.000126816
0.000126986
0.000137111
0.000137902
0.000138275
0.000138779
0.000138909
0.000136903
0.000137712
0.000138098
0.000138623
0.000138779
0.000136375
0.000137154
0.000137553
0.000138095
0.000138272
0.000136102
0.000136786
0.000137153
0.000137708
0.000137898
0.000135554
0.000136101
0.000136374
0.000136899
0.000137107
0.000144695
0.000145457
0.000145701
0.000146256
0.000146385
0.000144487
0.000145288
0.000145558
0.000146117
0.000146254
0.000143743
0.00014472
0.000145031
0.000145552
0.000145693
0.000143464
0.000144408
0.000144718
0.000145281
0.000145448
0.000142854
0.000143463
0.00014374
0.000144478
0.000144685
0.00015265
0.000153729
0.000154055
0.000154775
0.000154948
0.000152505
0.000153575
0.000153892
0.000154605
0.000154773
0.000151832
0.000152898
0.000153197
0.000153882
0.000154042
0.00015164
0.000152647
0.000152897
0.000153564
0.000153716
0.000150843
0.000151638
0.000151828
0.000152492
0.000152635
0.000156516
0.000157915
0.000158244
0.000159132
0.000159317
0.000156421
0.000157785
0.000158094
0.000158956
0.000159128
0.00015572
0.000157003
0.00015726
0.000158079
0.000158225
0.000155541
0.000156782
0.000157
0.000157767
0.000157893
0.000154491
0.000155536
0.000155713
0.000156399
0.000156491
0.000163832
0.000165869
0.00016653
0.000167783
0.000168139
0.000163578
0.000165595
0.00016622
0.00016745
0.000167778
0.000162442
0.000164426
0.000165009
0.000166199
0.000166505
0.000162121
0.00016395
0.000164424
0.000165573
0.000165843
0.000160739
0.000162116
0.000162435
0.000163552
0.000163802
0.000164637
0.000167295
0.00016811
0.000169812
0.000170337
0.000164432
0.000166982
0.000167722
0.000169336
0.000169804
0.00016317
0.000165562
0.000166162
0.000167693
0.000168074
0.00016286
0.000165098
0.000165559
0.00016695
0.000167256
0.000160832
0.000162851
0.000163159
0.000164392
0.000164591
0.000173761
0.000177553
0.000179223
0.00018154
0.000182579
0.000173182
0.000176898
0.000178402
0.000180627
0.000181529
0.000171212
0.000174867
0.000176229
0.000178367
0.000179179
0.000170651
0.000173861
0.000174864
0.000176859
0.000177506
0.000168216
0.000170643
0.000171202
0.000173135
0.000173707
0.000171388
0.000176516
0.000178963
0.000182372
0.000184365
0.000170967
0.000175665
0.000177732
0.000180737
0.000182345
0.000168908
0.000173293
0.000174815
0.000177683
0.000178892
0.000168752
0.000172418
0.000173286
0.000175605
0.000176439
0.000164604
0.000168741
0.000168889
0.000170894
0.0001713
0.000184986
0.000191749
0.00019618
0.000200398
0.000203555
0.000183591
0.000190125
0.000193897
0.000197769
0.000200363
0.000180456
0.000186852
0.000190173
0.000193842
0.000196094
0.000179888
0.000184776
0.000186843
0.000190056
0.000191652
0.000175494
0.000179876
0.000180437
0.000183506
0.000184877
0.000178877
0.00018873
0.000197107
0.000204339
0.000213483
0.000177707
0.000185916
0.000192367
0.000197823
0.000204249
0.000174127
0.000182026
0.00018669
0.00019229
0.000196949
0.000172057
0.000178937
0.00018201
0.000185811
0.000188558
0.000163988
0.00017204
0.000174106
0.000177584
0.000178697
0.000198583
0.000209657
0.000220171
0.000228311
0.000237609
0.000195714
0.000205837
0.000214477
0.00022098
0.000228193
0.00019232
0.000201025
0.00020845
0.000214372
0.000219962
0.000189269
0.000196106
0.000201003
0.000205708
0.000209443
0.000181272
0.000189244
0.00019228
0.00019554
0.00019832
0.00019199
0.000209073
0.00023934
0.000257074
0.000301366
0.000187383
0.000199514
0.000219973
0.000229446
0.000256947
0.000177928
0.00019325
0.000208568
0.000219861
0.000239039
0.000171244
0.000183795
0.000193203
0.000199347
0.000208732
0.000156472
0.000171219
0.000177873
0.000187199
0.000191613
0.000212715
0.000229158
0.000247191
0.000268914
0.000305568
0.000208734
0.000220428
0.000235635
0.000248611
0.000268235
0.000202414
0.000213594
0.000225662
0.000235458
0.000246644
0.000194895
0.00020556
0.000213562
0.000220199
0.000228635
0.00018181
0.000194819
0.000202277
0.000208369
0.000212061
0.000215044
0.000238195
0.000333943
0.00040192
0.000586116
0.000193563
0.000211449
0.000267323
0.000282979
0.000402151
0.0001767
0.000200704
0.000243894
0.000267052
0.000333432
0.000162531
0.000176915
0.00020065
0.0002112
0.000237748
0.000142385
0.000162461
0.000176545
0.000193242
0.000214424
0.000217382
0.000254653
0.000284688
0.000353442
0.00061407
0.000211198
0.000229584
0.000243035
0.000263187
0.000351033
0.000198877
0.000215625
0.000226397
0.000243224
0.000283675
0.000189775
0.000201287
0.000215519
0.000229258
0.000253126
0.000173224
0.000189588
0.000198542
0.00021055
0.000216051
0.000219182
0.000254315
0.000452975
0.000825144
0.00165635
0.00018577
0.000211854
0.000306364
0.000306066
0.000755482
0.00016673
0.000187404
0.00025321
0.000306154
0.000452028
0.00014499
0.000159127
0.00018732
0.000211436
0.000252661
0.000125015
0.000144853
0.000166327
0.000184981
0.000217415
0.00019916
0.000225629
0.000251575
0.000731853
0.00178438
0.000198333
0.000204211
0.000222615
0.000409342
0.000813363
0.000180031
0.000194518
0.000197273
0.000222259
0.000247337
0.000175045
0.000180681
0.000194072
0.000203311
0.000222804
0.000156203
0.000174865
0.000179476
0.000197347
0.000196708
0.000100975
0.000112273
-1.45987e-05
0.000185255
-0.00197654
9.68388e-05
0.000123972
6.17556e-05
0.000152767
-2.89174e-05
9.68481e-05
0.000103547
8.32927e-05
6.09893e-05
-1.63355e-05
9.70922e-05
0.000109039
0.000103318
0.000122644
0.000108398
9.05573e-05
9.70379e-05
9.64349e-05
9.58368e-05
9.9494e-05
0.000156191
0.000189789
0.000206763
0.000255125
-0.000111901
0.000152409
0.00015558
0.000176219
0.000109661
0.000239066
0.000135107
0.000148397
0.000145456
0.000176969
0.000202543
0.000136552
0.000137154
0.000147407
0.000154429
0.000184997
0.000126543
0.000136882
0.000135005
0.000152053
0.000154908
0.000114367
5.71164e-05
0.000274152
0.000148162
0.00091654
8.30342e-05
8.70576e-05
0.000120931
0.000194176
0.00059339
7.84478e-05
7.43998e-05
0.000124313
0.000120465
0.000271978
7.06171e-05
7.09961e-05
7.39411e-05
8.58852e-05
5.38994e-05
7.15324e-05
7.06098e-05
7.79878e-05
8.1789e-05
0.000112311
3.26162e-05
-3.40515e-05
-0.000180338
-0.000251265
0.000193931
5.2808e-05
1.1576e-05
-6.74631e-05
-0.000130079
-0.000157442
5.87732e-05
3.17474e-05
-2.03674e-05
-6.72353e-05
-0.000180589
7.50632e-05
5.80916e-05
3.11089e-05
1.04701e-05
-3.67202e-05
8.12265e-05
7.49588e-05
5.82603e-05
5.18776e-05
3.097e-05
1.82654e-05
-3.21933e-05
-8.66981e-05
-0.000267584
-0.00114577
2.16603e-05
-1.40597e-05
-4.7453e-05
-0.000152359
-0.000391291
2.70916e-05
6.4992e-06
-7.55769e-06
-4.7766e-05
-8.64597e-05
3.22087e-05
1.62126e-05
6.19058e-06
-1.48833e-05
-3.40956e-05
4.23164e-05
3.19989e-05
2.66083e-05
2.08434e-05
1.68246e-05
-9.37274e-06
-3.80206e-05
-0.000115732
-0.00026974
-0.000402119
1.00374e-05
-1.73712e-05
-7.14962e-05
-0.00015738
-0.000269932
1.24415e-05
-1.39717e-08
-4.62067e-05
-7.19725e-05
-0.000116592
3.14337e-05
1.95005e-05
-1.71182e-07
-1.79402e-05
-3.90361e-05
3.72988e-05
3.12227e-05
1.20476e-05
9.27969e-06
-1.06266e-05
-1.08014e-05
-4.97945e-05
-8.15859e-05
-0.000159632
-0.000219595
-4.9259e-06
-4.09671e-05
-6.6345e-05
-0.000124252
-0.000160272
5.64219e-06
-1.90865e-05
-3.79814e-05
-6.64447e-05
-8.20681e-05
1.37472e-05
-8.6476e-06
-1.92048e-05
-4.13296e-05
-5.05823e-05
3.10775e-05
1.35009e-05
5.27348e-06
-5.56426e-06
-1.18155e-05
-1.74762e-05
-1.96797e-05
-5.09155e-05
-6.87392e-05
-8.96496e-05
-7.01828e-06
-1.35061e-05
-3.35126e-05
-4.98033e-05
-6.87327e-05
-8.03165e-06
-8.72487e-06
-2.97222e-05
-3.37805e-05
-5.13245e-05
1.46362e-06
1.57631e-06
-8.74402e-06
-1.37935e-05
-2.00953e-05
1.14888e-06
1.35832e-06
-8.18144e-06
-7.43099e-06
-1.81097e-05
-9.57954e-06
-3.18415e-05
-5.54509e-05
-7.83988e-05
-9.6554e-05
-3.43052e-06
-2.60376e-05
-4.1069e-05
-6.39144e-05
-7.86205e-05
1.04919e-05
-1.25137e-05
-2.57718e-05
-4.12405e-05
-5.57402e-05
1.52435e-05
-8.39431e-06
-1.24505e-05
-2.61685e-05
-3.20138e-05
3.81235e-05
1.49881e-05
1.02386e-05
-3.85888e-06
-1.00203e-05
0.00146117
0.000522152
0.000814316
7.2963e-05
0.000102694
0.00016812
9.78886e-05
0.00777624
0.000794857
0.00178236
-0.000745155
0.000447789
0.000149739
-0.000743734
0.00146093
0.000519658
0.000732701
9.57892e-05
0.000100343
0.000165572
6.71021e-05
-0.000247796
0.000161048
-2.58797e-05
0.000158516
-0.000384505
0.000278038
-0.000148515
-0.000536448
-0.000319496
-0.00197204
0.00011986
-0.000983819
0.000486473
0.000121005
3.11876e-05
0.000198364
0.000151586
4.7039e-05
-8.15121e-05
0.000296627
4.46599e-05
-0.000252197
0.000157087
0.000180086
-0.000158561
-0.000393538
0.000275378
0.000146377
0.00021186
-8.13732e-05
-1.67166e-05
0.000951738
0.00133334
0.000553581
0.000935339
0.00110627
7.75472e-07
0.000609367
0.000234697
0.00011759
0.000144764
0.000461339
0.00341818
0.000367302
0.000928896
0.00197135
0.00215105
0.000408587
0.00196585
0.00109677
-1.26964e-05
0.0001348
0.000459436
0.000114616
0.0001422
0.000231423
-0.000383982
-0.000212623
-0.000159378
-0.000258469
-0.000950456
-0.000225457
-0.000492558
0.00049959
8.89927e-05
0.00019272
-0.00135095
-0.00242793
-0.000459602
-0.00135372
-0.000183865
-7.28187e-05
-0.000131549
-0.000161758
-0.000253664
-9.58198e-05
-0.000165829
-0.000385501
-0.000214888
-0.000254642
-0.000486764
-0.000951966
-0.000232321
-0.000261844
-0.000519289
-0.000196011
-0.000392746
-0.000174354
-0.00043167
-0.000130635
-0.000347023
-0.0024273
-0.000448833
-0.0011476
-0.000504268
-0.000676701
-0.000404847
-0.000507818
-0.000518169
-0.000199742
-0.00027089
-0.000343108
-0.000428598
-0.000130722
-0.000179407
-0.00122623
-0.000759186
-0.00163212
-0.00110195
-0.000906297
-0.000826628
-0.00119934
-5.04317e-05
-0.000167688
4.59085e-05
-9.01887e-05
-4.19737e-05
-0.000308826
7.96868e-05
-0.00103858
-0.000201851
0.000138061
-0.00209086
-0.000675587
-0.00171028
-0.00103931
-0.000873263
-0.00169966
-0.00094206
-0.000674257
-0.00152099
-0.000503272
-0.000980902
0.000281894
0.00207773
-0.000258701
-0.000363203
0.0014486
-0.000454379
0.000543364
0.00116129
0.00192416
0.000199999
0.000202036
-3.04654e-05
0.00148688
0.00148639
0.000818744
0.000663526
-0.000281392
-0.000279744
0.00027247
0.000271763
-0.000986683
0.000283847
0.00207302
-0.00025736
-0.000365526
0.00144536
-0.000453651
0.000543608
-4.7225e-05
-0.00020745
-0.000180247
-0.000452438
-0.000154808
-0.000351396
-0.000107905
-4.82514e-05
-0.00016479
4.74616e-05
-8.5221e-05
-3.96562e-05
-0.000304627
8.19326e-05
-0.00125184
-0.000645595
-0.000639032
-0.00131427
-0.00076972
-0.00132994
-0.00131411
-0.00146515
-0.000574117
-0.00056898
-9.66302e-05
-0.00154336
-0.000463302
-0.000454861
-0.00124214
-0.000757004
-0.00163381
-0.00109347
-0.000912427
-0.000827838
-0.00120809
-0.00111729
-0.00077217
-0.000689489
0.000326477
-0.000568327
-0.000320619
-0.00132404
-0.000982073
-0.00191938
-0.000462483
-0.000454352
8.63735e-06
-0.00160782
-0.00157973
-0.000995776
-4.12392e-05
-6.53168e-05
-3.9194e-05
-0.000485826
-0.000460736
-0.000515449
-0.00113801
-0.000741142
-0.000701196
0.000336756
-0.000554789
-0.000343677
-0.00133063
-5.10739e-05
-0.000183331
-0.000208413
-0.000461557
-0.000157465
-0.000358447
-0.000110635
0.00215476
0.00138576
0.000779036
0.00118352
0.000776068
0.000996691
0.00289886
0.00304015
0.00447196
0.00181709
0.00181494
0.00150001
0.00429103
0.00429013
0.00215623
0.00138202
0.000773819
0.00117763
0.000771747
0.000990359
0.00289788
-0.000388659
0.00015108
-0.000444271
-0.000475302
8.41792e-05
-0.000473599
-0.000457841
-0.000495763
-0.000642553
-0.000502666
-0.000908157
-0.000649412
-0.000393166
-0.0006134
-0.000907586
0.000256329
0.000255242
-0.000664248
-4.27933e-05
-0.000791
-0.000791134
-0.00172554
-0.000427518
-0.000428967
-0.000562632
-0.00057664
-0.000910362
-0.00091332
-0.00103757
-0.000203473
0.000137841
-0.00209092
-0.000676555
-0.00171198
-0.00103881
-0.00153756
-0.00221285
-0.00204361
-0.00102691
-0.00174619
-0.00186234
-0.00149634
-0.00163888
-0.0015743
-0.00236953
-0.00236853
-0.00211163
-0.0016003
-0.0015997
-0.00225181
-0.000649311
-0.00104264
-0.00105438
-0.00102479
-0.00103101
-0.00174008
-0.00153338
-0.00221306
-0.00204189
-0.00103138
-0.00174526
-0.00185752
-0.00149402
-0.000392389
-0.000444268
0.000149363
-0.000476438
8.34393e-05
-0.000476234
-0.000458654
-0.000498304
-0.000642291
-0.000920538
-0.000500907
-0.000649881
-0.000397155
-0.000611922
-0.000934668
-0.00177632
-0.0017748
-0.00119583
-0.00152988
-0.00114164
-0.00113906
-0.000877227
-0.00082608
-0.000830179
-0.000202095
-0.00113714
-0.000604981
-0.000606765
-0.000873752
-0.00169907
-0.000943434
-0.000673514
-0.00151994
-0.000503428
-0.000981656
0.00228177
0.0012441
0.001661
0.00224544
0.00491774
0.000949484
0.002246
0.00343642
0.00516806
0.00513936
0.00427507
0.00326615
0.00360492
0.00360127
0.00242764
0.00344178
0.0016757
0.00232075
0.00330292
0.001467
0.00251043
0.000629141
4.96157e-05
0.0001369
3.69998e-05
0.000194599
0.000193739
0.000757589
0.00243506
0.00345082
0.00167303
0.00231659
0.0033161
0.00146028
0.00251684
0.00062385
4.66604e-05
3.48683e-05
0.000135422
0.000193478
0.000189244
0.000756606
0.00171056
0.000534797
0.000325463
0.000325434
0.000803619
0.000802319
0.00150155
0.00199454
0.0014514
0.00144899
0.000794248
0.00310022
0.000934138
0.000930802
-0.0003141
-0.000235786
1.19736e-05
-0.000313075
-0.000107497
-0.000449437
-0.000250277
-0.000313558
-0.000237034
1.09289e-05
-0.000314036
-0.000108555
-0.000449516
-0.000249467
0.0030322
0.00269144
0.00268635
0.00465604
0.00191841
0.00332748
0.0033273
0.000546799
0.000300341
0.000409555
0.000166465
0.000167201
0.00022818
0.00016595
0.000401972
0.000337921
3.59031e-05
0.000244613
0.00036078
0.000448812
0.000151552
0.000400386
0.000337182
3.38326e-05
0.000242086
0.000357992
0.000446747
0.000150015
0.00260601
0.00181037
0.000676364
0.00156445
0.00147607
0.00128529
0.00305022
0.00040737
0.00093958
0.000592625
0.000365629
0.00086266
0.000400352
0.000567988
0.00259423
0.00181786
0.000687879
0.0015495
0.00148744
0.00127477
0.00303972
0.000403217
0.000931436
0.000361731
0.000589655
0.000859514
0.000397451
0.000557955
0.00473052
0.00474487
0.00440994
0.00251765
0.00339905
0.0029203
0.00292049
0.000991385
0.000692254
0.000754477
0.000554024
0.00125059
0.00040005
0.00103049
0.000991439
0.000690491
0.000824829
0.0010327
0.00125007
0.000399492
0.000551722
0.000734427
0.000997074
0.00147437
0.0011203
0.000908663
0.00110351
0.000949844
0.000727961
0.00147633
0.000998436
0.00111873
0.000899677
0.00110308
0.000950292
0.00363906
0.00196833
0.0033782
0.00207287
0.00178187
0.00161806
0.00230147
0.00365949
0.00193771
0.00338418
0.00204552
0.00178211
0.00161588
0.00230417
0.00176242
0.000626903
0.000628317
0.000651365
0.00111497
0.00102518
0.00102384
0.00124335
0.00123908
0.00346003
0.00121912
0.00198507
0.00138826
0.00138763
)
;

boundaryField
{
    inlet
    {
        type            fixedValue;
        value           uniform 0;
    }
    wall
    {
        type            zeroGradient;
    }
    outlet
    {
        type            fixedValue;
        value           uniform 0;
    }
    procBoundary2to0
    {
        type            processor;
        value           nonuniform List<scalar> 
317
(
4.72005e-06
4.72762e-06
4.72459e-06
4.72893e-06
4.72749e-06
9.14597e-06
9.15073e-06
9.15096e-06
9.15315e-06
9.15335e-06
2.10764e-05
2.10864e-05
2.10853e-05
2.10909e-05
2.10906e-05
2.90371e-05
2.9048e-05
2.90474e-05
2.90536e-05
2.90537e-05
3.92105e-05
3.92269e-05
3.92255e-05
3.92349e-05
3.92344e-05
4.85914e-05
4.8613e-05
4.86109e-05
4.86234e-05
4.86225e-05
5.7953e-05
5.79843e-05
5.79818e-05
5.80004e-05
5.79995e-05
6.78967e-05
6.79388e-05
6.7935e-05
6.79605e-05
6.79592e-05
7.71924e-05
7.72539e-05
7.72503e-05
7.72876e-05
7.72866e-05
8.72447e-05
8.73281e-05
8.73283e-05
8.73843e-05
8.73876e-05
9.6953e-05
9.70857e-05
9.71102e-05
9.72087e-05
9.72343e-05
0.000106979
0.000107175
0.000107282
0.000107536
0.000107651
0.000117326
0.000117715
0.00011799
0.000118465
0.000118687
0.00012699
0.000127736
0.00012819
0.000128685
0.000128845
0.000137114
0.000137904
0.000138277
0.000138781
0.00013891
0.000144698
0.00014546
0.000145703
0.000146258
0.000146387
0.000152652
0.000153731
0.000154056
0.000154776
0.000154948
0.000156515
0.000157913
0.000158242
0.000159129
0.000159313
0.000163826
0.000165861
0.00016652
0.000167772
0.000168127
0.000164621
0.000167278
0.000168091
0.000169793
0.000170316
0.000173736
0.000177524
0.000179192
0.000181506
0.000182542
0.000171341
0.00017647
0.000178916
0.000182325
0.000184314
0.000184932
0.000191687
0.000196114
0.000200326
0.000203473
0.000178782
0.000188645
0.000197024
0.000204267
0.000213404
0.000198497
0.000209553
0.000220055
0.000228187
0.000237455
0.00019186
0.000208964
0.000239247
0.000257052
0.000301359
0.000212613
0.00022901
0.000246988
0.000268619
0.000305117
0.000214961
0.000238143
0.000333926
0.000402159
0.000586616
0.000217336
0.000254421
0.000284152
0.000352656
0.000612742
0.000219189
0.000254238
0.00045299
0.000827369
0.00165717
0.000199111
0.00022575
0.000250326
0.000736414
0.00178331
0.000101028
0.000112873
-1.57966e-05
0.000185106
-0.00197438
0.000157219
0.000190063
0.000209483
0.000261136
-6.52521e-05
0.000114697
5.77767e-05
0.000275775
0.000147821
0.000922913
3.29085e-05
-3.36563e-05
-0.000179388
-0.000249938
0.00019513
1.81509e-05
-3.16059e-05
-8.64455e-05
-0.000266207
-0.00114722
-9.11211e-06
-3.78761e-05
-0.000114725
-0.000269792
-0.000399688
-1.0894e-05
-4.96674e-05
-8.17421e-05
-0.00015926
-0.000220197
-1.74081e-05
-1.95722e-05
-5.05768e-05
-6.87656e-05
-8.8621e-05
-9.66434e-06
-3.18186e-05
-5.55395e-05
-7.83567e-05
-9.66112e-05
7.32705e-05
0.000101242
0.00146287
-0.000743605
0.000446904
0.0077924
0.000162347
-0.000389213
-0.00025029
0.000127598
-0.000975335
-0.000539194
0.000929637
0.0013164
0.000198482
0.000235545
0.00011754
0.00110816
0.00196939
0.00215275
0.00342583
-0.000259137
-0.000954304
-0.000383578
-0.00135263
-0.00242742
0.00050029
-0.000178094
-0.000429301
-0.00051825
-0.000507644
-0.000678354
-0.00242592
-0.00109591
-0.00120728
-0.000759615
-0.00209044
-0.00103916
-0.000201565
-0.000673269
-0.000979539
-0.0017015
-0.000257783
0.000545725
0.00208094
0.0019251
0.00148812
0.000200086
-0.000208297
-0.000107275
-0.000457264
-0.000689865
-0.00133029
-0.000757569
-0.00190058
-0.00159722
-0.000477437
-0.000646371
-0.00133024
-0.00131633
0.000779409
0.0029019
0.00138964
0.00447561
0.00429988
0.00181925
-0.000642867
-0.000612868
-0.000501892
0.000151674
-0.000457008
-0.000474582
-0.00204239
-0.00149661
-0.00221267
-0.00157431
-0.00160047
-0.00236962
0.000256937
-0.00079089
-0.000664052
-0.00177638
-0.00114069
-0.00119368
0.0022436
0.00492653
0.00227983
0.00516959
0.00360874
0.00427958
0.00231291
0.00253074
0.00344991
4.8768e-05
0.000757174
0.000138658
0.00269675
0.00333268
0.004659
0.00155972
0.00304962
0.00181301
0.000939336
0.000569214
0.000592623
0.00340467
0.0029237
0.0047331
0.0005533
0.00125093
0.000991406
0.000997319
0.00095394
0.00112203
0.00365847
0.00230837
0.00178263
)
;
    }
    procBoundary2to3
    {
        type            processor;
        value           nonuniform List<scalar> 
317
(
4.72734e-06
4.72864e-06
4.72438e-06
4.72738e-06
4.71978e-06
9.15347e-06
9.15341e-06
9.15145e-06
9.15153e-06
9.14738e-06
2.10905e-05
2.10908e-05
2.10852e-05
2.10865e-05
2.10767e-05
2.90539e-05
2.9054e-05
2.90482e-05
2.90492e-05
2.90388e-05
3.92345e-05
3.92351e-05
3.92258e-05
3.92277e-05
3.92114e-05
4.86229e-05
4.86241e-05
4.86121e-05
4.86145e-05
4.85933e-05
5.79998e-05
5.80011e-05
5.79828e-05
5.79855e-05
5.79543e-05
6.79596e-05
6.79615e-05
6.79364e-05
6.79404e-05
6.78985e-05
7.72867e-05
7.72885e-05
7.72513e-05
7.72551e-05
7.71936e-05
8.73874e-05
8.73847e-05
8.73288e-05
8.73288e-05
8.72454e-05
9.72338e-05
9.72086e-05
9.711e-05
9.70856e-05
9.6953e-05
0.000107649
0.000107535
0.000107281
0.000107175
0.000106977
0.000118685
0.000118463
0.000117988
0.000117713
0.000117324
0.000128842
0.000128682
0.000128185
0.000127731
0.000126984
0.000138906
0.000138777
0.000138269
0.000137895
0.000137104
0.000146381
0.00014625
0.000145689
0.000145444
0.000144681
0.000154947
0.000154771
0.000154041
0.000153714
0.000152634
0.000159319
0.00015913
0.000158226
0.000157894
0.00015649
0.000168151
0.000167789
0.000166515
0.000165852
0.000163811
0.000170357
0.000169825
0.000168094
0.000167275
0.000164608
0.000182619
0.00018157
0.000179219
0.000177544
0.000173744
0.000184416
0.000182403
0.00017895
0.000176499
0.000171359
0.000203641
0.00020046
0.00019619
0.000191748
0.00018497
0.000213563
0.000204362
0.000197066
0.00018869
0.000178836
0.000237759
0.0002284
0.000220148
0.000209635
0.000198497
0.00030137
0.000257087
0.000239227
0.000208973
0.000191872
0.000305807
0.000268682
0.000246956
0.000229013
0.000212401
0.000585622
0.000402186
0.00033379
0.000238152
0.000214913
0.000615662
0.000351988
0.000284448
0.000253747
0.000216491
0.00228776
0.000994449
0.000452717
0.000253131
0.000217961
0.00776044
0.00146112
0.000249239
0.000223092
0.000197586
-0.00052838
-0.000248211
-1.51897e-05
0.000108931
9.96676e-05
3.45043e-05
0.000229319
0.000200729
0.000185686
0.000155007
0.00339433
0.00105081
0.000269984
5.35084e-05
0.000111989
0.00049887
-0.000386946
-0.000181502
-3.71761e-05
3.08254e-05
-0.00242996
-0.00051834
-8.71728e-05
-3.42717e-05
1.64222e-05
-0.000402806
-0.000271082
-0.000116371
-3.94168e-05
-1.06631e-05
-0.000220391
-0.000159916
-8.22252e-05
-5.05519e-05
-1.20405e-05
-8.92569e-05
-6.91378e-05
-5.12177e-05
-2.02055e-05
-1.81893e-05
-9.64007e-05
-7.8451e-05
-5.57188e-05
-3.19574e-05
-1.00998e-05
0.00178255
-0.000742289
0.000450082
0.000730201
6.78368e-05
0.000101911
-0.00196639
0.000133046
-0.000966875
0.000182322
0.000146438
-0.000383792
2.03153e-05
0.000923575
0.00139039
0.000919051
0.00196045
0.00214999
0.000122714
0.000228883
0.000111466
0.000191238
-0.00135335
-0.00242857
-0.000255169
-0.000262872
-0.000948984
-0.00114845
-0.000507405
-0.000672227
-0.000269301
-0.000179953
-0.000426921
-0.00062697
-0.00126268
-0.00129342
-0.000206213
-0.000107377
-0.000457308
0.000254325
-0.00079171
-0.000664588
0.000148764
-0.000460134
-0.000478234
-0.00177461
-0.00113904
-0.0011963
-0.000256198
0.000543524
0.00207447
0.00192373
0.0014866
0.000204896
-0.00108876
-0.00120699
-0.000753324
-0.000681267
-0.00132088
-0.00070324
-0.00190712
-0.00140346
-0.00033012
0.000771588
0.00288953
0.00137743
0.00447206
0.00428797
0.00181347
-0.00209244
-0.00103988
-0.000204753
-0.0020431
-0.00149537
-0.00221375
-0.00157447
-0.00160009
-0.00236869
-0.000642552
-0.000613246
-0.000503741
-0.000672722
-0.000981639
-0.0017009
0.00165511
0.002243
0.0049104
0.00513691
0.00360047
0.00427126
0.00231529
0.00251563
0.00344736
4.74765e-05
0.000756769
0.000136518
0.00266106
0.00333442
0.00466654
0.00153948
0.00303594
0.00180753
0.000917864
0.000546223
0.000587302
0.00339434
0.00291817
0.00474309
0.000824216
0.000552107
0.00124999
0.000997385
0.000950182
0.00111881
0.00365664
0.00229846
0.00177969
)
;
    }
}


// ************************************************************************* //
