/*--------------------------------*- C++ -*----------------------------------*\
| =========                 |                                                 |
| \\      /  F ield         | OpenFOAM: The Open Source CFD Toolbox           |
|  \\    /   O peration     | Version:  5.x                                   |
|   \\  /    A nd           | Web:      www.OpenFOAM.org                      |
|    \\/     M anipulation  |                                                 |
\*---------------------------------------------------------------------------*/
FoamFile
{
    version     2.0;
    format      ascii;
    class       volVectorField;
    location    "0.027";
    object      U;
}
// * * * * * * * * * * * * * * * * * * * * * * * * * * * * * * * * * * * * * //

dimensions      [0 1 -1 0 0 0 0];

internalField   nonuniform List<vector> 
1560
(
(-2.34439e-06 1.07342e-07 -0.000238621)
(-2.4548e-06 9.26574e-08 -0.00024006)
(-1.52654e-06 7.5598e-08 -0.000239541)
(-1.45335e-06 7.8034e-08 -0.000240271)
(-8.51543e-08 6.80271e-08 -0.000240047)
(-2.35311e-06 1.41868e-06 -0.000238864)
(-2.46825e-06 1.43252e-06 -0.000240292)
(-1.5344e-06 1.4281e-06 -0.000239776)
(-1.46061e-06 1.443e-06 -0.000240496)
(-8.97836e-08 1.44018e-06 -0.000240274)
(-2.33009e-06 1.46628e-06 -0.000238247)
(-2.44536e-06 1.48982e-06 -0.000239643)
(-1.51605e-06 1.48818e-06 -0.00023912)
(-1.44127e-06 1.5073e-06 -0.00023982)
(-7.97039e-08 1.50716e-06 -0.000239592)
(-2.32897e-06 2.38095e-06 -0.000238777)
(-2.44633e-06 2.41449e-06 -0.000240168)
(-1.51692e-06 2.41602e-06 -0.000239649)
(-1.44163e-06 2.43973e-06 -0.000240345)
(-8.04968e-08 2.44153e-06 -0.00024012)
(-2.29587e-06 2.25322e-06 -0.000237454)
(-2.41028e-06 2.28632e-06 -0.000238814)
(-1.49082e-06 2.28997e-06 -0.000238291)
(-1.41577e-06 2.31296e-06 -0.00023897)
(-6.90856e-08 2.31634e-06 -0.00023874)
(-1.28849e-06 1.50643e-08 -1.38575e-05)
(-1.71815e-06 8.85122e-08 -1.41929e-05)
(-1.29184e-06 1.18414e-07 -1.43934e-05)
(-1.08815e-06 1.61596e-07 -1.4636e-05)
(-2.5954e-07 1.84021e-07 -1.47409e-05)
(-1.27217e-06 9.17341e-07 -1.37629e-05)
(-1.69344e-06 9.58329e-07 -1.40952e-05)
(-1.27183e-06 9.74423e-07 -1.42927e-05)
(-1.06778e-06 1.00302e-06 -1.45343e-05)
(-2.45335e-07 1.01847e-06 -1.46356e-05)
(-1.24664e-06 1.15567e-06 -1.34921e-05)
(-1.66104e-06 1.18746e-06 -1.38264e-05)
(-1.24715e-06 1.19873e-06 -1.40231e-05)
(-1.0441e-06 1.22157e-06 -1.42669e-05)
(-2.32294e-07 1.23217e-06 -1.43682e-05)
(-1.23975e-06 1.59645e-06 -1.32956e-05)
(-1.65037e-06 1.62312e-06 -1.36297e-05)
(-1.23772e-06 1.63071e-06 -1.38249e-05)
(-1.03434e-06 1.65026e-06 -1.40685e-05)
(-2.26035e-07 1.65763e-06 -1.41685e-05)
(-1.21946e-06 1.20863e-06 -1.29353e-05)
(-1.62677e-06 1.22893e-06 -1.32697e-05)
(-1.22002e-06 1.23268e-06 -1.34652e-05)
(-1.01718e-06 1.24697e-06 -1.37091e-05)
(-2.20182e-07 1.25016e-06 -1.381e-05)
(-2.71001e-06 2.14003e-07 -0.000119597)
(-3.02125e-06 2.03517e-07 -0.000121364)
(-1.99272e-06 1.96455e-07 -0.000121421)
(-1.82016e-06 1.95669e-07 -0.000122473)
(-1.82656e-07 1.90951e-07 -0.000122503)
(-2.71542e-06 1.80083e-06 -0.000119552)
(-3.02842e-06 1.81618e-06 -0.00012132)
(-1.9965e-06 1.8157e-06 -0.00012138)
(-1.82264e-06 1.82973e-06 -0.000122431)
(-1.85146e-07 1.83066e-06 -0.000122463)
(-2.69416e-06 1.95442e-06 -0.000118541)
(-3.00636e-06 1.9765e-06 -0.000120288)
(-1.97917e-06 1.97731e-06 -0.000120346)
(-1.80519e-06 1.99487e-06 -0.000121384)
(-1.78304e-07 1.99615e-06 -0.000121415)
(-2.69275e-06 2.96616e-06 -0.000118481)
(-3.00552e-06 3.00011e-06 -0.000120225)
(-1.97813e-06 3.00288e-06 -0.000120284)
(-1.8038e-06 3.02683e-06 -0.00012132)
(-1.78413e-07 3.02918e-06 -0.000121352)
(-2.65946e-06 2.64264e-06 -0.000116779)
(-2.96963e-06 2.67593e-06 -0.000118489)
(-1.95245e-06 2.67928e-06 -0.000118544)
(-1.7789e-06 2.70218e-06 -0.000119559)
(-1.70834e-07 2.70472e-06 -0.000119588)
(-3.08545e-06 8.69248e-08 -0.000103506)
(-3.54251e-06 1.46843e-07 -0.000105419)
(-2.40094e-06 1.63464e-07 -0.000105719)
(-2.17095e-06 2.05792e-07 -0.000106908)
(-2.90088e-07 2.21799e-07 -0.000107067)
(-3.06937e-06 1.97353e-06 -0.000103357)
(-3.52135e-06 2.03477e-06 -0.000105265)
(-2.38325e-06 2.0492e-06 -0.000105564)
(-2.15143e-06 2.09214e-06 -0.00010675)
(-2.78841e-07 2.10727e-06 -0.000106908)
(-3.02301e-06 2.22654e-06 -0.000102181)
(-3.46682e-06 2.28241e-06 -0.000104072)
(-2.34356e-06 2.29393e-06 -0.000104369)
(-2.11288e-06 2.33275e-06 -0.000105545)
(-2.62149e-07 2.34353e-06 -0.000105702)
(-3.01238e-06 3.35834e-06 -0.000101888)
(-3.45395e-06 3.42284e-06 -0.000103776)
(-2.33291e-06 3.43302e-06 -0.000104072)
(-2.10182e-06 3.47609e-06 -0.000105246)
(-2.56855e-07 3.48479e-06 -0.000105403)
(-2.95724e-06 2.93884e-06 -0.000100006)
(-3.39212e-06 2.99397e-06 -0.000101867)
(-2.29031e-06 3.00187e-06 -0.00010216)
(-2.06111e-06 3.03742e-06 -0.000103318)
(-2.46206e-07 3.04336e-06 -0.000103474)
(-4.65837e-06 3.61519e-07 -7.54157e-05)
(-5.23507e-06 3.60626e-07 -7.8661e-05)
(-3.48149e-06 3.57891e-07 -7.90549e-05)
(-3.16815e-06 3.60481e-07 -8.10424e-05)
(-3.32088e-07 3.579e-07 -8.12429e-05)
(-4.65839e-06 3.12535e-06 -7.51954e-05)
(-5.23556e-06 3.16326e-06 -7.84399e-05)
(-3.48114e-06 3.16621e-06 -7.88363e-05)
(-3.16639e-06 3.19279e-06 -8.08239e-05)
(-3.33934e-07 3.19589e-06 -8.10274e-05)
(-4.61944e-06 3.42303e-06 -7.32502e-05)
(-5.1942e-06 3.46576e-06 -7.64561e-05)
(-3.45196e-06 3.46933e-06 -7.68485e-05)
(-3.13846e-06 3.49853e-06 -7.8815e-05)
(-3.28014e-07 3.50066e-06 -7.90175e-05)
(-4.61454e-06 5.14146e-06 -7.28571e-05)
(-5.18924e-06 5.20592e-06 -7.60553e-05)
(-3.44837e-06 5.2118e-06 -7.64483e-05)
(-3.13506e-06 5.25391e-06 -7.841e-05)
(-3.27984e-07 5.2573e-06 -7.8614e-05)
(-4.55348e-06 4.55854e-06 -6.97129e-05)
(-5.12386e-06 4.6196e-06 -7.28402e-05)
(-3.40398e-06 4.62543e-06 -7.32248e-05)
(-3.09297e-06 4.66509e-06 -7.5144e-05)
(-3.21536e-07 4.66854e-06 -7.53434e-05)
(-6.38769e-06 3.59077e-07 -0.000124851)
(-7.18205e-06 4.01026e-07 -0.000129269)
(-4.78236e-06 4.09844e-07 -0.000129892)
(-4.35893e-06 4.41113e-07 -0.000132625)
(-4.79899e-07 4.49257e-07 -0.000132953)
(-6.3707e-06 4.13906e-06 -0.000124533)
(-7.16261e-06 4.23968e-06 -0.000128945)
(-4.76733e-06 4.2556e-06 -0.000129567)
(-4.3425e-06 4.31961e-06 -0.000132296)
(-4.74172e-07 4.33267e-06 -0.000132624)
(-6.28506e-06 4.56491e-06 -0.000121867)
(-7.06549e-06 4.66696e-06 -0.000126232)
(-4.70242e-06 4.68192e-06 -0.000126848)
(-4.28187e-06 4.74671e-06 -0.000129547)
(-4.57861e-07 4.75695e-06 -0.000129872)
(-6.26647e-06 6.89599e-06 -0.000121262)
(-7.04557e-06 7.03907e-06 -0.000125616)
(-4.68758e-06 7.05709e-06 -0.000126231)
(-4.26747e-06 7.14745e-06 -0.000128924)
(-4.54254e-07 7.15932e-06 -0.000129248)
(-6.13885e-06 6.13755e-06 -0.000116958)
(-6.90439e-06 6.26517e-06 -0.000121238)
(-4.59405e-06 6.28182e-06 -0.000121843)
(-4.17964e-06 6.36072e-06 -0.000124489)
(-4.39408e-07 6.37141e-06 -0.000124809)
(-9.15706e-06 6.84186e-07 -7.79853e-05)
(-1.02773e-05 6.91585e-07 -8.45068e-05)
(-6.83739e-06 6.91089e-07 -8.53754e-05)
(-6.22848e-06 6.97306e-07 -8.93848e-05)
(-6.48282e-07 6.93356e-07 -8.98365e-05)
(-9.15007e-06 6.10879e-06 -7.75308e-05)
(-1.027e-05 6.20112e-06 -8.40412e-05)
(-6.83213e-06 6.21054e-06 -8.49115e-05)
(-6.22342e-06 6.27122e-06 -8.8916e-05)
(-6.52039e-07 6.27669e-06 -8.93698e-05)
(-9.06223e-06 6.69414e-06 -7.36594e-05)
(-1.01755e-05 6.79436e-06 -8.00685e-05)
(-6.76729e-06 6.8056e-06 -8.09238e-05)
(-6.16233e-06 6.8706e-06 -8.48764e-05)
(-6.44715e-07 6.87632e-06 -8.53242e-05)
(-9.04711e-06 1.00514e-05 -7.28191e-05)
(-1.01585e-05 1.02e-05 -7.92043e-05)
(-6.75589e-06 1.02173e-05 -8.00596e-05)
(-6.1527e-06 1.03121e-05 -8.39966e-05)
(-6.43796e-07 1.03208e-05 -8.44453e-05)
(-8.90992e-06 8.93929e-06 -6.65775e-05)
(-1.00096e-05 9.07648e-06 -7.27865e-05)
(-6.65519e-06 9.09187e-06 -7.36174e-05)
(-6.05884e-06 9.17989e-06 -7.74496e-05)
(-6.34342e-07 9.18821e-06 -7.78846e-05)
(-1.30287e-05 8.61949e-07 -0.000120571)
(-1.4573e-05 9.01311e-07 -0.000129823)
(-9.66036e-06 9.0539e-07 -0.000131137)
(-8.82002e-06 9.316e-07 -0.000136896)
(-9.1285e-07 9.32645e-07 -0.000137595)
(-1.30002e-05 8.46497e-06 -0.000119909)
(-1.45442e-05 8.67808e-06 -0.000129143)
(-9.64223e-06 8.70722e-06 -0.000130451)
(-8.80076e-06 8.82803e-06 -0.000136197)
(-9.12609e-07 8.845e-06 -0.000136895)
(-1.28108e-05 9.27662e-06 -0.000114376)
(-1.43307e-05 9.50381e-06 -0.000123486)
(-9.5104e-06 9.53385e-06 -0.000124774)
(-8.68224e-06 9.66615e-06 -0.000130425)
(-8.93145e-07 9.68145e-06 -0.000131109)
(-1.27676e-05 1.39786e-05 -0.000113132)
(-1.42869e-05 1.43218e-05 -0.000122208)
(-9.47988e-06 1.43644e-05 -0.000123486)
(-8.65316e-06 1.45751e-05 -0.000129116)
(-8.90774e-07 1.45997e-05 -0.000129794)
(-1.24598e-05 1.24917e-05 -0.00010421)
(-1.3945e-05 1.27995e-05 -0.000113102)
(-9.25711e-06 1.28414e-05 -0.000114345)
(-8.44689e-06 1.30275e-05 -0.000119851)
(-8.63804e-07 1.30523e-05 -0.000120512)
(-1.85811e-05 1.35989e-06 -9.80415e-05)
(-2.08449e-05 1.38472e-06 -0.000111297)
(-1.39108e-05 1.3903e-06 -0.00011311)
(-1.26867e-05 1.40869e-06 -0.000121291)
(-1.33237e-06 1.40404e-06 -0.000122255)
(-1.85552e-05 1.23033e-05 -9.71381e-05)
(-2.08136e-05 1.25376e-05 -0.000110353)
(-1.38859e-05 1.25733e-05 -0.00011216)
(-1.26668e-05 1.27426e-05 -0.000120318)
(-1.33666e-06 1.27628e-05 -0.000121276)
(-1.83406e-05 1.34706e-05 -8.93707e-05)
(-2.05749e-05 1.37287e-05 -0.000102328)
(-1.37057e-05 1.37711e-05 -0.000104082)
(-1.24972e-05 1.39516e-05 -0.000112114)
(-1.31773e-06 1.39768e-05 -0.000113048)
(-1.829e-05 2.02181e-05 -8.76849e-05)
(-2.05131e-05 2.05854e-05 -0.000100572)
(-1.3663e-05 2.06472e-05 -0.000102319)
(-1.24611e-05 2.08867e-05 -0.000110297)
(-1.31105e-06 2.09187e-05 -0.000111225)
(-1.79629e-05 1.8023e-05 -7.5188e-05)
(-2.01457e-05 1.835e-05 -8.76396e-05)
(-1.34044e-05 1.84007e-05 -8.93161e-05)
(-1.22258e-05 1.86157e-05 -9.70352e-05)
(-1.28567e-06 1.86422e-05 -9.79209e-05)
(-2.65356e-05 1.80563e-06 -0.000117927)
(-2.96434e-05 1.87786e-06 -0.000136945)
(-1.9655e-05 1.88622e-06 -0.000139783)
(-1.79648e-05 1.93065e-06 -0.000151741)
(-1.85229e-06 1.93277e-06 -0.000153264)
(-2.64652e-05 1.71358e-05 -0.00011654)
(-2.9568e-05 1.76467e-05 -0.000135495)
(-1.96072e-05 1.77352e-05 -0.000138305)
(-1.79172e-05 1.80057e-05 -0.000150221)
(-1.84971e-06 1.80521e-05 -0.000151742)
(-2.60125e-05 1.87298e-05 -0.000105276)
(-2.90439e-05 1.92844e-05 -0.000123903)
(-1.9296e-05 1.93747e-05 -0.000126634)
(-1.76479e-05 1.96866e-05 -0.00013827)
(-1.80815e-06 1.9733e-05 -0.000139749)
(-2.58968e-05 2.81629e-05 -0.000102707)
(-2.8923e-05 2.90121e-05 -0.000121216)
(-1.9205e-05 2.91321e-05 -0.000123905)
(-1.75589e-05 2.96555e-05 -0.000135462)
(-1.80004e-06 2.97284e-05 -0.000136912)
(-2.51428e-05 2.52208e-05 -8.46364e-05)
(-2.80747e-05 2.59748e-05 -0.000102668)
(-1.86527e-05 2.60896e-05 -0.000105239)
(-1.70517e-05 2.65409e-05 -0.000116467)
(-1.73258e-06 2.6609e-05 -0.000117855)
(-3.79617e-05 2.76861e-06 -0.000120739)
(-4.2704e-05 2.8544e-06 -0.000147557)
(-2.87065e-05 2.88767e-06 -0.000151608)
(-2.61677e-05 2.94551e-06 -0.000168599)
(-2.8396e-06 2.94339e-06 -0.000170865)
(-3.78706e-05 2.49536e-05 -0.000118866)
(-4.25815e-05 2.55794e-05 -0.000145554)
(-2.8612e-05 2.57223e-05 -0.000149543)
(-2.61032e-05 2.62132e-05 -0.000166364)
(-2.84115e-06 2.62781e-05 -0.000168591)
(-3.73198e-05 2.7304e-05 -0.000103304)
(-4.19352e-05 2.80075e-05 -0.000129416)
(-2.80727e-05 2.81717e-05 -0.000133178)
(-2.56119e-05 2.87109e-05 -0.000149481)
(-2.78249e-06 2.8806e-05 -0.000151536)
(-3.71485e-05 4.08604e-05 -9.9818e-05)
(-4.17136e-05 4.1823e-05 -0.00012572)
(-2.79086e-05 4.20444e-05 -0.00012941)
(-2.54689e-05 4.26923e-05 -0.000145485)
(-2.74846e-06 4.28154e-05 -0.000147478)
(-3.63303e-05 3.64298e-05 -7.48732e-05)
(-4.07513e-05 3.7248e-05 -9.97569e-05)
(-2.72036e-05 3.7419e-05 -0.000103237)
(-2.4841e-05 3.79716e-05 -0.000118737)
(-2.66148e-06 3.8063e-05 -0.000120598)
(-5.38852e-05 3.71923e-06 -0.000134634)
(-6.05171e-05 3.91692e-06 -0.00017365)
(-4.06974e-05 3.9875e-06 -0.000180174)
(-3.72221e-05 4.19857e-06 -0.000203975)
(-4.0906e-06 4.24133e-06 -0.000207186)
(-5.36803e-05 3.45705e-05 -0.000131589)
(-6.02484e-05 3.57872e-05 -0.000170322)
(-4.04169e-05 3.61655e-05 -0.000176753)
(-3.69653e-05 3.71239e-05 -0.000200624)
(-4.04635e-06 3.73813e-05 -0.000203997)
(-5.26349e-05 3.77783e-05 -0.000108903)
(-5.89218e-05 3.91184e-05 -0.000146638)
(-3.93607e-05 3.95077e-05 -0.00015281)
(-3.60063e-05 4.0565e-05 -0.000176708)
(-3.83612e-06 4.0846e-05 -0.00018015)
(-5.23027e-05 5.65972e-05 -0.000103367)
(-5.85187e-05 5.86752e-05 -0.000140713)
(-3.89703e-05 5.90773e-05 -0.00014665)
(-3.56269e-05 6.04038e-05 -0.000170289)
(-3.76501e-06 6.06705e-05 -0.000173637)
(-5.05017e-05 5.0642e-05 -6.72835e-05)
(-5.64417e-05 5.24429e-05 -0.00010332)
(-3.76324e-05 5.27742e-05 -0.000108868)
(-3.44133e-05 5.38183e-05 -0.000131508)
(-3.56798e-06 5.40212e-05 -0.000134571)
(-7.77457e-05 5.84613e-06 -0.000143416)
(-8.82494e-05 6.2117e-06 -0.000197162)
(-5.90312e-05 6.33797e-06 -0.000206023)
(-5.31801e-05 6.31934e-06 -0.000240668)
(-6.03396e-06 6.16031e-06 -0.000245863)
(-7.73654e-05 5.06848e-05 -0.000139416)
(-8.77507e-05 5.25907e-05 -0.000192734)
(-5.89141e-05 5.3086e-05 -0.000201474)
(-5.3347e-05 5.34796e-05 -0.00023569)
(-6.19434e-06 5.33143e-05 -0.00024068)
(-7.5794e-05 5.55259e-05 -0.000108834)
(-8.58478e-05 5.76155e-05 -0.00016129)
(-5.81424e-05 5.82742e-05 -0.000169608)
(-5.29519e-05 5.9046e-05 -0.000201386)
(-6.20597e-06 5.91656e-05 -0.000205947)
(-7.52226e-05 8.24851e-05 -0.000101459)
(-8.50019e-05 8.51471e-05 -0.000153243)
(-5.74836e-05 8.59924e-05 -0.000161294)
(-5.24557e-05 8.7898e-05 -0.000192646)
(-6.07828e-06 8.83998e-05 -0.000197087)
(-7.30613e-05 7.32094e-05 -5.19242e-05)
(-8.23406e-05 7.53708e-05 -0.000101374)
(-5.53919e-05 7.59415e-05 -0.000108754)
(-5.05448e-05 7.75156e-05 -0.000139244)
(-5.7098e-06 7.78981e-05 -0.000143255)
(-0.000108754 7.77341e-06 -0.00018438)
(-0.000123133 8.39532e-06 -0.000262754)
(-8.4204e-05 8.58649e-06 -0.000277464)
(-7.70626e-05 9.22616e-06 -0.000328146)
(-9.24004e-06 9.47662e-06 -0.00033704)
(-0.00010811 6.91526e-05 -0.000177951)
(-0.000122316 7.16592e-05 -0.000255443)
(-8.33735e-05 7.25806e-05 -0.000269846)
(-7.61712e-05 7.64064e-05 -0.000319824)
(-8.98845e-06 7.72979e-05 -0.000328232)
(-0.000106157 7.57349e-05 -0.00013354)
(-0.000119704 7.86088e-05 -0.000208506)
(-7.94569e-05 7.96883e-05 -0.000221988)
(-7.23452e-05 8.36089e-05 -0.000269779)
(-8.35134e-06 8.44391e-05 -0.000277484)
(-0.000105132 0.000113514 -0.000121399)
(-0.000118361 0.000118599 -0.000195713)
(-7.83734e-05 0.00011994 -0.00020855)
(-7.14204e-05 0.000122554 -0.00025542)
(-8.16114e-06 0.000123371 -0.000262814)
(-0.000100925 0.000101151 -5.06189e-05)
(-0.000113279 0.000105359 -0.000121342)
(-7.55022e-05 0.000106382 -0.000133524)
(-6.89147e-05 0.000108334 -0.00017787)
(-7.53324e-06 0.000108978 -0.000184381)
(-0.000157751 1.2336e-05 -0.000171978)
(-0.000181346 1.35802e-05 -0.000290505)
(-0.000124422 1.40145e-05 -0.000313897)
(-0.000112756 1.46949e-05 -0.000387616)
(-1.48849e-05 1.50238e-05 -0.000400808)
(-0.000156469 0.000101525 -0.000162878)
(-0.000179658 0.000106839 -0.000279551)
(-0.000123295 0.000108563 -0.00030231)
(-0.000111734 0.000111847 -0.000374852)
(-1.45571e-05 0.000112871 -0.000387727)
(-0.00015231 0.000112078 -0.000104649)
(-0.000174307 0.000117345 -0.000212092)
(-0.000119415 0.00011957 -0.000232764)
(-0.000108448 0.000123449 -0.000302153)
(-1.38733e-05 0.000124584 -0.000313846)
(-0.000151054 0.000165417 -8.89067e-05)
(-0.000172164 0.000172323 -0.000192465)
(-0.00011719 0.000174468 -0.000212128)
(-0.00010672 0.000179819 -0.000279436)
(-1.34354e-05 0.000181515 -0.000290487)
(-0.000145204 0.000145411 8.8845e-06)
(-0.000165257 0.000151261 -8.87835e-05)
(-0.00011192 0.000152518 -0.000104558)
(-0.000101402 0.000156679 -0.000162629)
(-1.21924e-05 0.000157964 -0.000171819)
(-0.000229705 1.69838e-05 -0.000289447)
(-0.000265071 1.94581e-05 -0.000454631)
(-0.000181314 2.0284e-05 -0.000492903)
(-0.000163974 2.20974e-05 -0.000597529)
(-2.23279e-05 2.26658e-05 -0.00062101)
(-0.000227163 0.000136482 -0.000273415)
(-0.000261767 0.000150072 -0.000436235)
(-0.000178674 0.000153714 -0.000472945)
(-0.000161588 0.000161869 -0.000575535)
(-2.17619e-05 0.000164261 -0.000597837)
(-0.000215835 0.000149706 -0.000188806)
(-0.000247838 0.000165694 -0.000342686)
(-0.000169517 0.000169869 -0.000376627)
(-0.000153427 0.000179025 -0.000472816)
(-1.99387e-05 0.000181678 -0.000493075)
(-0.000210855 0.000227063 -0.000161139)
(-0.0002416 0.000241925 -0.000310736)
(-0.000165344 0.000248164 -0.000342802)
(-0.000149779 0.000262097 -0.000436222)
(-1.91104e-05 0.000265417 -0.000454912)
(-0.000200576 0.000200928 -2.24681e-05)
(-0.000226736 0.000211207 -0.000161074)
(-0.000149347 0.00021619 -0.000188858)
(-0.000136176 0.000227523 -0.000273343)
(-1.6619e-05 0.000230073 -0.000289661)
(-0.000326465 2.854e-05 -0.000237199)
(-0.000384831 3.21288e-05 -0.000476838)
(-0.00026732 3.41306e-05 -0.000536199)
(-0.000240864 3.68342e-05 -0.000689617)
(-3.82364e-05 3.8347e-05 -0.000726337)
(-0.000322753 0.000202167 -0.000215625)
(-0.000379217 0.000218784 -0.000448902)
(-0.000262594 0.00022484 -0.000505826)
(-0.000236626 0.00023656 -0.000654916)
(-3.67282e-05 0.000240807 -0.000689967)
(-0.000309452 0.000224353 -9.49826e-05)
(-0.000362155 0.000242843 -0.000315318)
(-0.000249544 0.000249713 -0.000365693)
(-0.000224897 0.000262761 -0.000505531)
(-3.40189e-05 0.000267508 -0.000536256)
(-0.000303802 0.000331778 -5.84922e-05)
(-0.000353852 0.000353961 -0.000268706)
(-0.000242676 0.000362263 -0.000315421)
(-0.00021883 0.000379321 -0.000448705)
(-3.20113e-05 0.000384958 -0.000476986)
(-0.00028669 0.000286964 0.000123711)
(-0.00033167 0.000304077 -5.83102e-05)
(-0.000224188 0.000309726 -9.49077e-05)
(-0.000202205 0.000323025 -0.000215241)
(-2.8412e-05 0.000326747 -0.000237159)
(-0.000474496 3.8817e-05 -0.000499687)
(-0.000564113 4.76565e-05 -0.000840908)
(-0.00039409 5.09163e-05 -0.00095016)
(-0.000354112 5.70626e-05 -0.00117291)
(-5.8789e-05 5.92929e-05 -0.00124522)
(-0.00046547 0.000278699 -0.000459347)
(-0.000552009 0.000311592 -0.000790899)
(-0.000384685 0.00032422 -0.00089245)
(-0.00034573 0.000345956 -0.00110765)
(-5.65582e-05 0.000354342 -0.00117362)
(-0.000440876 0.000306837 -0.000295185)
(-0.000518586 0.000345888 -0.000602429)
(-0.000359727 0.000360273 -0.000693462)
(-0.00032399 0.000385233 -0.000892218)
(-5.03939e-05 0.000394658 -0.000950647)
(-0.000425546 0.000445789 -0.000227451)
(-0.000498565 0.000498969 -0.000521824)
(-0.00034534 0.000518987 -0.000602693)
(-0.000311344 0.000552428 -0.000790924)
(-4.71229e-05 0.000564556 -0.000841645)
(-0.000386535 0.000387073 3.74206e-05)
(-0.000445387 0.000426085 -0.000227391)
(-0.000306276 0.000441412 -0.0002954)
(-0.000278427 0.000466022 -0.000459323)
(-3.82574e-05 0.000475055 -0.00050038)
(-0.000675233 6.92435e-05 -0.000348304)
(-0.00083537 8.24628e-05 -0.000843198)
(-0.000599325 9.21811e-05 -0.00100855)
(-0.000535925 0.000102389 -0.00133702)
(-0.000110265 0.000110256 -0.00144915)
(-0.000661634 0.000406672 -0.000295079)
(-0.000812384 0.000457265 -0.000768222)
(-0.000579346 0.00048154 -0.000923131)
(-0.000517802 0.000517259 -0.00123378)
(-0.000102402 0.000535381 -0.00133772)
(-0.000623493 0.000456247 -6.81221e-05)
(-0.000760492 0.000511916 -0.000504324)
(-0.000539332 0.000539468 -0.000636318)
(-0.000482084 0.000579488 -0.000922649)
(-9.21901e-05 0.000599485 -0.0010088)
(-0.00060464 0.000664432 1.88377e-05)
(-0.000729151 0.000729054 -0.000386629)
(-0.000511774 0.000760385 -0.000504532)
(-0.000457784 0.000812281 -0.000767918)
(-8.24621e-05 0.000835292 -0.00084363)
(-0.000557234 0.000557571 0.000359851)
(-0.000664539 0.000604977 1.9102e-05)
(-0.000456118 0.000623819 -6.80776e-05)
(-0.000407187 0.000661956 -0.000294503)
(-6.92446e-05 0.000675562 -0.000348487)
(-0.000980409 9.25446e-05 -0.00089886)
(-0.00122446 0.000123125 -0.00160876)
(-0.000887899 0.000136798 -0.00193841)
(-0.000794717 0.00016077 -0.00242538)
(-0.000170454 0.000171163 -0.00267043)
(-0.000949199 0.000558878 -0.000788721)
(-0.00118015 0.000650465 -0.00146556)
(-0.000850233 0.000696452 -0.00175907)
(-0.000760318 0.000760326 -0.00221657)
(-0.000160023 0.000794694 -0.00242661)
(-0.000886829 0.000620744 -0.000471943)
(-0.00108686 0.000727471 -0.00108747)
(-0.000778041 0.00077886 -0.00134439)
(-0.000696475 0.000851085 -0.00175877)
(-0.000136009 0.000888733 -0.00193943)
(-0.000840086 0.00087383 -0.000298724)
(-0.00102201 0.00102247 -0.000873501)
(-0.000726619 0.00108731 -0.00108796)
(-0.000650442 0.00118067 -0.0014657)
(-0.000122278 0.00122497 -0.00161023)
(-0.000735021 0.000735831 0.000192579)
(-0.000873384 0.000840896 -0.000298725)
(-0.000619873 0.000887625 -0.000472479)
(-0.000558833 0.000950029 -0.000788897)
(-9.1611e-05 0.000981225 -0.000900434)
(-0.00140177 0.00018 -0.000528709)
(-0.00187508 0.000226165 -0.00156372)
(-0.00141593 0.000272053 -0.0020576)
(-0.00126796 0.000311586 -0.00280097)
(-0.000354954 0.000354529 -0.00318802)
(-0.00135427 0.0008336 -0.00039396)
(-0.00178289 0.000978568 -0.00134783)
(-0.00133035 0.00107558 -0.00179434)
(-0.00118535 0.00118387 -0.00245856)
(-0.00031197 0.00126639 -0.00280193)
(-0.00125331 0.000946242 4.00104e-05)
(-0.00163307 0.00110396 -0.00082808)
(-0.00121064 0.00121058 -0.00118963)
(-0.00107714 0.00133036 -0.00179377)
(-0.000272446 0.00141586 -0.00205819)
(-0.00119271 0.00132905 0.000244252)
(-0.00151851 0.00151792 -0.000523712)
(-0.00110396 0.00163243 -0.000828392)
(-0.000980062 0.00178231 -0.00134742)
(-0.000226521 0.00187445 -0.00156453)
(-0.00105964 0.00105998 0.000872715)
(-0.00132969 0.00119305 0.000244575)
(-0.000946288 0.0012536 3.99504e-05)
(-0.000835153 0.00135457 -0.000393218)
(-0.000180397 0.00140199 -0.000529304)
(-0.00203978 0.000228029 -0.0016047)
(-0.00275359 0.000339721 -0.00307846)
(-0.00212511 0.000400628 -0.00411674)
(-0.00192515 0.000503802 -0.00523524)
(-0.000556908 0.000557715 -0.00615383)
(-0.00192571 0.00112758 -0.00130076)
(-0.00258075 0.00138611 -0.00265969)
(-0.00196092 0.00156443 -0.00352708)
(-0.00176792 0.00176754 -0.00452218)
(-0.000502792 0.00192455 -0.00523684)
(-0.00177523 0.00125892 -0.000700215)
(-0.00231668 0.00155156 -0.00191166)
(-0.00174368 0.00174477 -0.00264823)
(-0.00156504 0.00196218 -0.00352704)
(-0.000399588 0.00212609 -0.00411867)
(-0.00162612 0.00170668 -0.000262747)
(-0.00209482 0.00209529 -0.00134691)
(-0.00155029 0.00231707 -0.00191241)
(-0.00138658 0.00258143 -0.00266013)
(-0.000338459 0.00275409 -0.00308093)
(-0.00137789 0.00137904 0.000604397)
(-0.0017063 0.00162726 -0.000262938)
(-0.00125763 0.00177629 -0.000701375)
(-0.00112807 0.00192688 -0.00130151)
(-0.000226511 0.00204082 -0.0016078)
(-0.00291278 0.000484825 -0.000758205)
(-0.0043875 0.000645417 -0.00294776)
(-0.00357274 0.000862253 -0.00450573)
(-0.00330513 0.00102471 -0.00635419)
(-0.00127363 0.00127169 -0.00788608)
(-0.00274742 0.00173814 -0.00041404)
(-0.00400956 0.00214537 -0.00229109)
(-0.00319284 0.00254413 -0.00362562)
(-0.00289516 0.00289212 -0.0050866)
(-0.00102631 0.00330163 -0.0063542)
(-0.00249488 0.00198425 0.000409272)
(-0.00358141 0.00241671 -0.00129185)
(-0.00282602 0.00282525 -0.0023019)
(-0.00254762 0.0031924 -0.00362551)
(-0.000863734 0.00357179 -0.00450656)
(-0.00230343 0.00263383 0.000865254)
(-0.00316842 0.00316689 -0.00050272)
(-0.00241715 0.0035796 -0.00129207)
(-0.0021486 0.00400819 -0.00229061)
(-0.000646654 0.0043857 -0.00294868)
(-0.00194768 0.00194783 0.0020049)
(-0.00263563 0.00230358 0.000865396)
(-0.00198486 0.00249475 0.000409061)
(-0.00174163 0.00274741 -0.00041334)
(-0.000486088 0.00291239 -0.000759388)
(-0.00428376 0.000572836 -0.00264615)
(-0.00650173 0.000997031 -0.00565132)
(-0.00553143 0.00128093 -0.00895844)
(-0.00530553 0.00177183 -0.0117822)
(-0.00208876 0.00208968 -0.015578)
(-0.00385063 0.00229497 -0.00182794)
(-0.00579282 0.00304201 -0.00444622)
(-0.00475631 0.00376826 -0.00696726)
(-0.00449647 0.0044962 -0.00922734)
(-0.0017703 0.00530409 -0.0117834)
(-0.00351805 0.0025381 -0.00071523)
(-0.00502825 0.00333983 -0.00301083)
(-0.0040772 0.00407818 -0.00506346)
(-0.00376969 0.00475805 -0.00696832)
(-0.00127983 0.00553151 -0.00896179)
(-0.00302842 0.00330264 0.000273022)
(-0.00425248 0.00425288 -0.00160314)
(-0.00333809 0.00502843 -0.00301156)
(-0.00304318 0.00579409 -0.00444733)
(-0.000995358 0.00650188 -0.00565491)
(-0.00254434 0.00254564 0.00170778)
(-0.00330246 0.00302972 0.000272388)
(-0.00253626 0.00351913 -0.000716978)
(-0.00229643 0.00385204 -0.00182957)
(-0.000570645 0.00428455 -0.00265103)
(-0.0060005 0.001304 -0.000759334)
(-0.0107007 0.00185015 -0.00536893)
(-0.00970423 0.00285298 -0.0104627)
(-0.00992532 0.00357764 -0.0157863)
(-0.00507332 0.00506402 -0.0227964)
(-0.0054377 0.00366922 0.000132636)
(-0.0091497 0.00478589 -0.00331626)
(-0.00797424 0.00643929 -0.00730752)
(-0.00771156 0.00770624 -0.0105757)
(-0.00358487 0.00991847 -0.0157811)
(-0.00485166 0.00408523 0.00160117)
(-0.0079303 0.00525973 -0.00152366)
(-0.00678366 0.0067811 -0.00430476)
(-0.00644614 0.00797269 -0.00730992)
(-0.00285822 0.0097009 -0.010463)
(-0.00422898 0.00505709 0.00261754)
(-0.00645341 0.00645053 0.000432893)
(-0.00526128 0.00792675 -0.00152332)
(-0.00479198 0.00914776 -0.00331613)
(-0.00185392 0.0106974 -0.00536887)
(-0.00341924 0.00341877 0.00443208)
(-0.00506064 0.00422851 0.00261718)
(-0.00408684 0.00485052 0.00160024)
(-0.00367585 0.00543716 0.000132348)
(-0.00130694 0.00599882 -0.000761157)
(-0.00901522 0.00146408 -0.00329458)
(-0.0162057 0.0030495 -0.00909087)
(-0.0159489 0.00443504 -0.0191794)
(-0.0176371 0.00698416 -0.0276448)
(-0.00910656 0.00911204 -0.045043)
(-0.00739631 0.00465526 -0.00126132)
(-0.0132336 0.00688712 -0.00588303)
(-0.0120156 0.00992558 -0.0126534)
(-0.012969 0.0129716 -0.0182201)
(-0.00697921 0.0176354 -0.027641)
(-0.0067239 0.00502287 0.000500418)
(-0.0109349 0.0070888 -0.00330609)
(-0.00986305 0.00986197 -0.00847578)
(-0.00992731 0.0120175 -0.0126553)
(-0.00443372 0.0159439 -0.0191822)
(-0.00527266 0.00613418 0.00249905)
(-0.00839401 0.00839439 -0.000225709)
(-0.00708693 0.0109341 -0.00330688)
(-0.00688858 0.013237 -0.00588512)
(-0.00304744 0.0162043 -0.00909571)
(-0.00440369 0.00440465 0.00446096)
(-0.00613493 0.00527362 0.00249869)
(-0.00502096 0.00672373 0.00049862)
(-0.00465762 0.00739733 -0.00126169)
(-0.00146185 0.00901414 -0.00329918)
(-0.011976 0.00333789 0.000996467)
(-0.0265889 0.00505528 -0.00796056)
(-0.0282637 0.00937577 -0.0243432)
(-0.035793 0.0130001 -0.0430617)
(-0.0225195 0.0224701 -0.0791743)
(-0.0102018 0.00746396 0.00312389)
(-0.0205439 0.010571 -0.00200836)
(-0.0203146 0.0171434 -0.0129394)
(-0.0226968 0.0226933 -0.0197956)
(-0.0130364 0.0357834 -0.0430537)
(-0.00876969 0.00784554 0.00545813)
(-0.0169077 0.0109174 0.000600155)
(-0.0161345 0.0161292 -0.00620774)
(-0.017153 0.0203109 -0.0129481)
(-0.00939423 0.0282517 -0.0243409)
(-0.00703421 0.00901781 0.00726554)
(-0.0122598 0.0122558 0.00464657)
(-0.010921 0.0169024 0.000601748)
(-0.0105812 0.0205435 -0.00201081)
(-0.00506779 0.0265837 -0.00796227)
(-0.00543572 0.00543488 0.00945216)
(-0.00902315 0.00703338 0.00726362)
(-0.00784716 0.00876753 0.0054565)
(-0.00747339 0.010203 0.00311971)
(-0.00334353 0.0119746 0.000995811)
(-0.0182329 0.00358833 0.0004195)
(-0.041538 0.00900037 -0.00883216)
(-0.0510497 0.0158458 -0.0351007)
(-0.072396 0.0303077 -0.0667371)
(-0.0454845 0.0455351 -0.157819)
(-0.0126985 0.00911743 0.00405632)
(-0.0292942 0.0154454 -0.00214589)
(-0.0298019 0.0280499 -0.0168525)
(-0.043063 0.0430648 -0.0320813)
(-0.0302855 0.0723962 -0.066684)
(-0.0117182 0.00916483 0.0063396)
(-0.0226008 0.0137439 0.00171831)
(-0.0234099 0.0234017 -0.00795157)
(-0.0280494 0.0298012 -0.0168535)
(-0.0158441 0.0510348 -0.0350879)
(-0.00797729 0.0101289 0.00912699)
(-0.0150589 0.0150589 0.00645757)
(-0.0137445 0.0225984 0.0017168)
(-0.0154502 0.0293021 -0.00214949)
(-0.00900015 0.0415336 -0.00883299)
(-0.00664937 0.00664841 0.0108287)
(-0.0101313 0.00797632 0.00912837)
(-0.00916517 0.0117148 0.00634094)
(-0.00911882 0.0126978 0.00406227)
(-0.00358661 0.0182328 0.000426771)
(-0.0215666 0.00697384 0.0115388)
(-0.0621104 0.0117409 0.00115333)
(-0.0861436 0.0276629 -0.0419951)
(-0.159908 0.0482521 -0.126615)
(-0.120007 0.119716 -0.329063)
(-0.0166356 0.0133834 0.015088)
(-0.0414553 0.0211175 0.0118022)
(-0.0502719 0.0442845 -0.00804999)
(-0.0725113 0.0725591 -0.0160812)
(-0.0484284 0.159904 -0.126654)
(-0.0135511 0.0129172 0.0166287)
(-0.0312006 0.0195238 0.0132533)
(-0.034715 0.0347073 0.00308571)
(-0.0442814 0.0502645 -0.00806046)
(-0.0277172 0.0860786 -0.0419693)
(-0.00980282 0.0135081 0.0180949)
(-0.0196716 0.0196674 0.0174701)
(-0.019531 0.0311966 0.0132508)
(-0.0211269 0.0414618 0.011793)
(-0.0117754 0.0620998 0.00111395)
(-0.00719155 0.00719208 0.0184994)
(-0.0135122 0.00980335 0.0180927)
(-0.0129143 0.0135517 0.0166263)
(-0.0133869 0.0166464 0.0150808)
(-0.00698074 0.0215732 0.0115417)
(-0.0290466 0.00713851 0.0212947)
(-0.0949493 0.01968 0.0221555)
(-0.150124 0.0503179 -0.00548128)
(-0.337897 0.0893911 -0.0653341)
(-0.617345 0.251693 -0.574927)
(-0.0161745 0.0142038 0.0224022)
(-0.0524222 0.0275241 0.0232276)
(-0.057378 0.0730585 0.00923598)
(-0.15934 0.159343 -0.0333556)
(-0.167196 0.347465 -0.177386)
(-0.0152288 0.0121708 0.0232357)
(-0.036138 0.0194092 0.0233388)
(-0.0447222 0.044701 0.0191879)
(-0.0730325 0.0573699 0.00926154)
(-0.0503531 0.150298 -0.0053771)
(-0.00865834 0.0119982 0.0233141)
(-0.0198998 0.0198952 0.0245991)
(-0.0194191 0.0361333 0.0233395)
(-0.0275658 0.0524335 0.0232195)
(-0.0197215 0.0949235 0.0221522)
(-0.00707976 0.00707662 0.0224946)
(-0.012003 0.00865519 0.0233165)
(-0.0121761 0.0152255 0.0232382)
(-0.0141999 0.016176 0.0224128)
(-0.00714439 0.0290889 0.0213109)
(-0.0208812 0.00809704 0.0557386)
(-0.086177 0.012807 0.0762756)
(-0.117454 0.042777 0.162067)
(-0.496493 0.126363 0.105333)
(-2.12287 0.34752 -0.965828)
(-0.0159625 0.0153338 0.0478423)
(-0.0542961 0.0222419 0.0553595)
(-0.071011 0.0674319 0.100644)
(-0.247282 0.154747 0.145162)
(-0.421015 0.608286 0.166389)
(-0.0135066 0.0138346 0.0409287)
(-0.0352178 0.0208865 0.0516489)
(-0.0484416 0.0484608 0.0745085)
(-0.0673257 0.0711034 0.10064)