/*--------------------------------*- C++ -*----------------------------------*\
| =========                 |                                                 |
| \\      /  F ield         | OpenFOAM: The Open Source CFD Toolbox           |
|  \\    /   O peration     | Version:  5.x                                   |
|   \\  /    A nd           | Web:      www.OpenFOAM.org                      |
|    \\/     M anipulation  |                                                 |
\*---------------------------------------------------------------------------*/
FoamFile
{
    version     2.0;
    format      ascii;
    class       volScalarField;
    location    "0.07";
    object      Ksl;
}
// * * * * * * * * * * * * * * * * * * * * * * * * * * * * * * * * * * * * * //

dimensions      [1 -3 -1 0 0 0 0];

internalField   nonuniform List<scalar> 
160
(
0.000263051
0.000546572
0.000395166
7.87946e-05
1.35706e-05
3.04389e-05
2.28731e-05
-5.049e-21
0
0
0
0
0
0
0
0
0
0
0
0
0
0
0
0
0
0
0
0
0
0
0
0
0
0
0
0
0
0
0
0
0.000546572
0.00512928
0.00319047
0.000412163
3.04389e-05
0.00013868
9.06409e-05
2.38719e-05
0
5.67448e-06
3.58306e-06
0
0
0
0
0
0
0
0
0
0
0
0
0
0
0
0
0
0
0
0
0
0
0
0
0
0
0
0
0
0.000395166
0.00319047
0.00212661
0.000190154
2.28731e-05
9.06409e-05
4.66534e-05
1.49049e-05
0
3.58306e-06
2.37951e-06
0
0
0
0
0
0
0
0
0
0
0
0
0
0
0
0
0
0
0
0
0
0
0
0
0
0
0
0
0
7.87946e-05
0.000412163
0.000190154
8.90958e-05
-5.049e-21
2.38719e-05
1.49049e-05
0
0
0
0
0
0
0
0
0
0
0
0
0
0
0
0
0
0
0
0
0
0
0
0
0
0
0
0
0
0
0
0
0
)
;

boundaryField
{
    inlet
    {
        type            zeroGradient;
    }
    outlet
    {
        type            zeroGradient;
    }
    walls
    {
        type            zeroGradient;
    }
    procBoundary1to0
    {
        type            processor;
        value           nonuniform List<scalar> 
16
(
0.0117355
0.0209463
0.0189485
0.00331722
0.0209463
0.158262
0.108025
0.0242724
0.0189485
0.108025
0.051934
0.0157546
0.00331722
0.0242724
0.0157546
0.00294789
)
;
    }
}


// ************************************************************************* //
