/*--------------------------------*- C++ -*----------------------------------*\
| =========                 |                                                 |
| \\      /  F ield         | OpenFOAM: The Open Source CFD Toolbox           |
|  \\    /   O peration     | Version:  5.x                                   |
|   \\  /    A nd           | Web:      www.OpenFOAM.org                      |
|    \\/     M anipulation  |                                                 |
\*---------------------------------------------------------------------------*/
FoamFile
{
    version     2.0;
    format      ascii;
    class       volScalarField;
    location    "0.07";
    object      p;
}
// * * * * * * * * * * * * * * * * * * * * * * * * * * * * * * * * * * * * * //

dimensions      [0 2 -2 0 0 0 0];

internalField   nonuniform List<scalar> 
160
(
-1.81757e-08
7.65464e-09
-4.67543e-08
1.64353e-07
8.45964e-08
1.10234e-07
6.39843e-08
7.02715e-08
-3.07968e-08
-2.52989e-08
-1.04036e-07
-1.54478e-08
-6.05599e-08
-7.23468e-08
-1.01245e-07
-9.1689e-08
-1.23044e-07
-1.46963e-07
-1.74516e-07
-1.51723e-07
-1.45629e-07
-1.58472e-07
-1.68527e-07
-1.75579e-07
-1.7441e-07
-1.89901e-07
-2.03361e-07
-2.02909e-07
-1.86432e-07
-1.95396e-07
-2.01646e-07
-2.11231e-07
-1.98871e-07
-2.0764e-07
-2.14988e-07
-2.18709e-07
-2.04431e-07
-2.10028e-07
-2.14356e-07
-2.20309e-07
7.65464e-09
-2.75237e-06
-1.57167e-06
-1.20081e-06
1.10234e-07
-1.68575e-06
-9.92664e-07
-8.59402e-07
-2.52989e-08
-9.63139e-07
-6.5241e-07
-6.02699e-07
-7.23468e-08
-4.72336e-07
-3.83479e-07
-4.25767e-07
-1.46963e-07
-3.69936e-07
-3.45318e-07
-3.57054e-07
-1.58472e-07
-2.57586e-07
-2.60485e-07
-2.89571e-07
-1.89901e-07
-2.46614e-07
-2.56433e-07
-2.7043e-07
-1.95396e-07
-2.24478e-07
-2.33299e-07
-2.50274e-07
-2.0764e-07
-2.24917e-07
-2.33084e-07
-2.4247e-07
-2.10028e-07
-2.20429e-07
-2.26604e-07
-2.34181e-07
-4.67543e-08
-1.57167e-06
-1.47241e-06
-8.73774e-07
6.39843e-08
-9.92664e-07
-8.19722e-07
-7.06467e-07
-1.04036e-07
-6.5241e-07
-6.91994e-07
-5.25137e-07
-1.01245e-07
-3.83479e-07
-3.91279e-07
-4.19199e-07
-1.74516e-07
-3.45318e-07
-3.74515e-07
-3.66508e-07
-1.68527e-07
-2.60485e-07
-2.81855e-07
-3.0983e-07
-2.03361e-07
-2.56433e-07
-2.74128e-07
-2.88092e-07
-2.01646e-07
-2.33299e-07
-2.47738e-07
-2.64147e-07
-2.14988e-07
-2.33084e-07
-2.43142e-07
-2.53783e-07
-2.14356e-07
-2.26604e-07
-2.34052e-07
-2.42531e-07
1.64353e-07
-1.20081e-06
-8.73774e-07
-9.13868e-07
7.02715e-08
-8.59402e-07
-7.06467e-07
-8.43864e-07
-1.54478e-08
-6.02699e-07
-5.25137e-07
-6.94073e-07
-9.1689e-08
-4.25767e-07
-4.19199e-07
-5.55779e-07
-1.51723e-07
-3.57054e-07
-3.66508e-07
-4.56069e-07
-1.75579e-07
-2.89571e-07
-3.0983e-07
-3.76196e-07
-2.02909e-07
-2.7043e-07
-2.88092e-07
-3.28426e-07
-2.11231e-07
-2.50274e-07
-2.64147e-07
-2.91963e-07
-2.18709e-07
-2.4247e-07
-2.53783e-07
-2.71041e-07
-2.20309e-07
-2.34181e-07
-2.42531e-07
-2.54331e-07
)
;

boundaryField
{
    inlet
    {
        type            zeroGradient;
    }
    outlet
    {
        type            totalPressure;
        rho             rho;
        psi             none;
        gamma           1;
        p0              nonuniform 0();
        value           nonuniform 0();
    }
    walls
    {
        type            zeroGradient;
    }
    procBoundary1to0
    {
        type            processor;
        value           nonuniform List<scalar> 
16
(
1.38154e-07
7.34747e-07
5.88272e-07
3.53433e-07
7.34747e-07
-5.38188e-06
-3.01006e-06
-1.7663e-06
5.88272e-07
-3.01006e-06
-1.92889e-06
-9.15077e-07
3.53433e-07
-1.7663e-06
-9.15077e-07
-1.01971e-06
)
;
    }
}


// ************************************************************************* //
