/*--------------------------------*- C++ -*----------------------------------*\
| =========                 |                                                 |
| \\      /  F ield         | OpenFOAM: The Open Source CFD Toolbox           |
|  \\    /   O peration     | Version:  5.x                                   |
|   \\  /    A nd           | Web:      www.OpenFOAM.org                      |
|    \\/     M anipulation  |                                                 |
\*---------------------------------------------------------------------------*/
FoamFile
{
    version     2.0;
    format      ascii;
    class       surfaceScalarField;
    location    "0.07";
    object      phi;
}
// * * * * * * * * * * * * * * * * * * * * * * * * * * * * * * * * * * * * * //

dimensions      [0 3 -1 0 0 0 0];

internalField   nonuniform List<scalar> 
384
(
4.69393e-11
1.86947e-11
4.69393e-11
1.09261e-11
-1.68428e-11
4.22344e-10
-4.69345e-11
-1.52894e-11
3.53182e-10
1.23929e-11
8.93568e-11
1.57493e-11
1.37694e-11
1.57493e-11
4.88401e-12
-6.85197e-12
1.29174e-10
-1.12506e-11
-1.111e-11
9.635e-11
9.39535e-12
4.34396e-11
1.39677e-11
7.48955e-12
1.39677e-11
4.03967e-12
-8.67461e-13
8.3027e-11
-1.4157e-11
-4.4029e-12
6.75038e-11
6.4219e-12
3.35589e-11
4.62852e-12
5.07947e-12
4.62852e-12
1.97839e-12
-4.07242e-13
2.81687e-11
-3.67293e-12
-2.71495e-12
2.29773e-11
4.54931e-12
1.58582e-11
4.1751e-12
2.86374e-12
4.1751e-12
1.23961e-12
6.9567e-13
1.55441e-11
-3.64618e-12
-5.5499e-13
1.36957e-11
2.65656e-12
1.0788e-11
1.56393e-12
1.8497e-12
1.56393e-12
8.48301e-13
3.37097e-13
6.67533e-12
-7.53848e-13
-3.66002e-13
6.2085e-12
1.68439e-12
5.4376e-12
1.32266e-12
1.08336e-12
1.32266e-12
5.58169e-13
4.42136e-13
3.2377e-12
-7.17999e-13
9.63989e-14
3.22926e-12
8.82581e-13
3.3222e-12
5.99631e-13
6.50293e-13
5.99631e-13
4.06773e-13
2.1041e-13
1.72249e-12
-3.54282e-15
-1.14915e-14
1.82448e-12
4.7758e-13
1.806e-12
4.78873e-13
3.2896e-13
4.78873e-13
3.15131e-13
1.23649e-13
8.60709e-13
-2.40667e-14
3.09788e-14
9.48752e-13
1.9928e-13
1.077e-12
2.49867e-13
2.49867e-13
2.33079e-13
4.98576e-13
1.37191e-13
5.71752e-13
5.94579e-13
4.22344e-10
-1.68428e-11
1.09261e-11
-4.865e-11
-5.34787e-10
-4.865e-11
-3.44632e-10
-3.36041e-10
2.53493e-11
-5.23537e-11
2.78035e-12
1.29174e-10
-6.85197e-12
4.88401e-12
-8.46731e-12
-2.59503e-10
-8.46731e-12
-7.5227e-11
-1.79213e-10
6.28153e-12
-3.4513e-11
6.36561e-12
8.3027e-11
-8.67461e-13
4.03967e-12
7.55392e-13
-9.496e-11
7.55392e-13
-5.26021e-11
-6.59396e-11
7.58781e-12
-1.97378e-11
6.24907e-12
2.81687e-11
-4.07242e-13
1.97839e-12
2.65732e-12
-4.39372e-11
2.65732e-12
-1.13477e-11
-3.31726e-11
4.21534e-12
-1.12585e-11
5.56449e-12
1.55441e-11
6.9567e-13
1.23961e-12
2.17076e-12
-1.71906e-11
2.17076e-12
-6.87435e-12
-1.36547e-11
3.22287e-12
-5.78808e-12
4.30501e-12
6.67533e-12
3.37097e-13
8.48301e-13
1.77708e-12
-7.39415e-12
1.77708e-12
-1.42428e-12
-6.43298e-12
2.18817e-12
-3.09958e-12
2.91563e-12
3.2377e-12
4.42136e-13
5.58169e-13
1.08798e-12
-3.0947e-12
1.08798e-12
-5.92324e-13
-2.9497e-12
1.4263e-12
-1.59178e-12
1.98241e-12
1.72249e-12
2.1041e-13
4.06773e-13
8.06108e-13
-1.26191e-12
8.06108e-13
8.95893e-15
-1.33222e-12
1.00415e-12
-8.50776e-13
1.24836e-12
8.60709e-13
1.23649e-13
3.15131e-13
5.05374e-13
-5.51248e-13
5.05374e-13
1.23997e-13
-6.43348e-13
6.41252e-13
-4.47271e-13
8.26297e-13
4.98576e-13
2.33079e-13
3.67661e-13
3.67661e-13
1.86225e-13
4.44262e-13
5.17406e-13
3.53182e-10
-1.52894e-11
-4.69345e-11
2.53493e-11
-3.36041e-10
-3.44632e-10
-3.29528e-10
-3.37865e-10
-3.29528e-10
-3.11053e-11
-4.18348e-11
9.635e-11
-1.111e-11
-1.12506e-11
6.28153e-12
-1.79213e-10
-7.5227e-11
-6.72735e-11
-1.90754e-10
-6.72735e-11
-2.08861e-11
-8.24443e-12
6.75038e-11
-4.4029e-12
-1.4157e-11
7.58781e-12
-6.59396e-11
-5.26021e-11
-5.39625e-11
-6.76539e-11
-5.39625e-11
-1.15766e-11
-6.1284e-12
2.29773e-11
-2.71495e-12
-3.67293e-12
4.21534e-12
-3.31726e-11
-1.13477e-11
-1.19968e-11
-3.52297e-11
-1.19968e-11
-7.72295e-12
1.74551e-12
1.36957e-11
-5.5499e-13
-3.64618e-12
3.22287e-12
-1.36547e-11
-6.87435e-12
-7.15884e-12
-1.44663e-11
-7.15884e-12
-4.46139e-12
1.06258e-12
6.2085e-12
-3.66002e-13
-7.53848e-13
2.18817e-12
-6.43298e-12
-1.42428e-12
-1.4892e-12
-7.11157e-12
-1.4892e-12
-2.91202e-12
1.8123e-12
3.22926e-12
9.63989e-14
-7.17999e-13
1.4263e-12
-2.9497e-12
-5.92324e-13
-4.37077e-13
-3.38482e-12
-4.37077e-13
-1.75335e-12
1.14506e-12
1.82448e-12
-1.14915e-14
-3.54282e-15
1.00415e-12
-1.33222e-12
8.95894e-15
1.29775e-13
-1.63609e-12
1.29775e-13
-1.08897e-12
8.58646e-13
9.48752e-13
3.09788e-14
-2.40667e-14
6.41252e-13
-6.43348e-13
1.23997e-13
2.34155e-13
-8.21894e-13
2.34155e-13
-6.28387e-13
5.6819e-13
5.71752e-13
1.37191e-13
4.44262e-13
1.86225e-13
2.42126e-13
2.42126e-13
3.84227e-13
8.93568e-11
1.23929e-11
2.78035e-12
-5.23537e-11
-4.18348e-11
-3.11053e-11
3.88894e-12
4.34396e-11
9.39535e-12
6.36561e-12
-3.4513e-11
-8.24443e-12
-2.08861e-11
-2.9003e-12
3.35589e-11
6.4219e-12
6.24907e-12
-1.97378e-11
-6.1284e-12
-1.15766e-11
-5.65035e-12
1.58582e-11
4.54931e-12
5.56449e-12
-1.12585e-11
1.74551e-12
-7.72295e-12
-5.62194e-12
1.0788e-11
2.65656e-12
4.30501e-12
-5.78808e-12
1.06258e-12
-4.46139e-12
-4.68393e-12
5.4376e-12
1.68439e-12
2.91563e-12
-3.09958e-12
1.8123e-12
-2.91202e-12
-3.31505e-12
3.3222e-12
8.82581e-13
1.98241e-12
-1.59178e-12
1.14506e-12
-1.75335e-12
-2.18554e-12
1.806e-12
4.7758e-13
1.24836e-12
-8.50776e-13
8.58646e-13
-1.08897e-12
-1.37219e-12
1.077e-12
1.9928e-13
8.26297e-13
-4.47271e-13
5.6819e-13
-6.28387e-13
-8.00377e-13
5.94579e-13
5.17406e-13
3.84227e-13
)
;

boundaryField
{
    inlet
    {
        type            calculated;
        value           nonuniform List<scalar> 
16
(
1.24851e-13
-2.83963e-14
-7.42668e-14
7.00575e-14
-2.83963e-14
-2.89421e-13
-3.34417e-13
-2.45691e-13
-7.42668e-14
-3.34417e-13
-4.17612e-13
-3.47546e-13
7.00575e-14
-2.45691e-13
-3.47546e-13
-4.23073e-13
)
;
    }
    outlet
    {
        type            calculated;
        value           nonuniform 0();
    }
    walls
    {
        type            calculated;
        value           nonuniform List<scalar> 
160
(
-4.0153e-11
-1.32867e-11
-1.08277e-11
-3.42347e-12
-3.06724e-12
-1.05691e-12
-9.3949e-13
-3.83098e-13
-3.18203e-13
-1.47811e-13
-4.27387e-10
-1.283e-10
-7.90835e-11
-2.59788e-11
-1.37115e-11
-5.60114e-12
-2.57826e-12
-1.2979e-12
-6.102e-13
-3.29749e-13
-2.94981e-10
-8.43947e-11
-5.60143e-11
-1.9014e-11
-1.09699e-11
-4.79535e-12
-2.41548e-12
-1.30626e-12
-6.52027e-13
-3.70623e-13
-8.50115e-11
-3.9622e-11
-3.00279e-11
-1.34153e-11
-8.74976e-12
-4.1617e-12
-2.42402e-12
-1.25103e-12
-7.14392e-13
-3.73847e-13
-4.77637e-11
-1.20707e-11
-1.47145e-11
-4.24325e-12
-3.79168e-12
-1.05757e-12
-8.14355e-13
-1.53511e-13
-1.08375e-13
4.56845e-14
-2.55173e-10
-5.59937e-11
-4.00675e-11
-9.53336e-12
-5.86174e-12
-1.5908e-12
-7.60344e-13
-1.7441e-13
-2.88067e-14
6.18244e-14
-3.13853e-10
-6.28827e-11
-5.08945e-11
-1.20314e-11
-7.17797e-12
-1.93524e-12
-7.58404e-13
-1.44899e-13
3.16862e-14
9.4471e-14
-3.23262e-11
-4.84981e-12
-4.75338e-12
1.7313e-12
5.93578e-13
1.12785e-12
5.80297e-13
4.51972e-13
2.82289e-13
1.95576e-13
-4.0153e-11
-1.32867e-11
-1.08277e-11
-3.42347e-12
-3.06724e-12
-1.05691e-12
-9.3949e-13
-3.83098e-13
-3.18203e-13
-1.47811e-13
-4.27387e-10
-1.283e-10
-7.90835e-11
-2.59788e-11
-1.37115e-11
-5.60114e-12
-2.57826e-12
-1.2979e-12
-6.102e-13
-3.29749e-13
-2.94981e-10
-8.43947e-11
-5.60143e-11
-1.9014e-11
-1.09699e-11
-4.79535e-12
-2.41548e-12
-1.30626e-12
-6.52027e-13
-3.70623e-13
-8.50115e-11
-3.9622e-11
-3.00279e-11
-1.34153e-11
-8.74976e-12
-4.1617e-12
-2.42402e-12
-1.25103e-12
-7.14392e-13
-3.73847e-13
-4.77637e-11
-1.20707e-11
-1.47145e-11
-4.24325e-12
-3.79168e-12
-1.05757e-12
-8.14355e-13
-1.53511e-13
-1.08375e-13
4.56845e-14
-2.55173e-10
-5.59937e-11
-4.00675e-11
-9.53335e-12
-5.86174e-12
-1.5908e-12
-7.60344e-13
-1.7441e-13
-2.88067e-14
6.18244e-14
-3.13853e-10
-6.28827e-11
-5.08945e-11
-1.20314e-11
-7.17797e-12
-1.93524e-12
-7.58404e-13
-1.44899e-13
3.16862e-14
9.4471e-14
-3.23262e-11
-4.84981e-12
-4.75338e-12
1.7313e-12
5.93578e-13
1.12785e-12
5.80297e-13
4.51972e-13
2.82289e-13
1.95576e-13
)
;
    }
    procBoundary1to0
    {
        type            processor;
        value           nonuniform List<scalar> 
16
(
-3.22673e-11
5.78993e-11
1.49489e-11
-1.59089e-11
5.78993e-11
1.47677e-09
9.59856e-10
4.9471e-11
1.49489e-11
9.59856e-10
1.04762e-09
6.00462e-11
-1.59089e-11
4.9471e-11
6.00462e-11
-2.29063e-11
)
;
    }
}


// ************************************************************************* //
