/*--------------------------------*- C++ -*----------------------------------*\
| =========                 |                                                 |
| \\      /  F ield         | OpenFOAM: The Open Source CFD Toolbox           |
|  \\    /   O peration     | Version:  5.x                                   |
|   \\  /    A nd           | Web:      www.OpenFOAM.org                      |
|    \\/     M anipulation  |                                                 |
\*---------------------------------------------------------------------------*/
FoamFile
{
    version     2.0;
    format      ascii;
    class       volVectorField;
    location    "0.07";
    object      U;
}
// * * * * * * * * * * * * * * * * * * * * * * * * * * * * * * * * * * * * * //

dimensions      [0 1 -1 0 0 0 0];

internalField   nonuniform List<vector> 
160
(
(6.41939e-06 4.21261e-06 6.41939e-06)
(8.77361e-06 -2.31784e-06 6.89278e-05)
(-5.87702e-06 2.00868e-08 4.74985e-05)
(-7.68388e-06 2.07015e-06 1.38714e-05)
(2.12081e-06 2.11417e-06 2.12081e-06)
(2.80785e-06 -2.87498e-06 2.08832e-05)
(-1.45071e-06 -4.12847e-06 1.37121e-05)
(-1.93255e-06 1.59718e-06 6.52311e-06)
(1.73135e-06 1.75727e-06 1.73135e-06)
(2.64709e-06 2.38784e-07 1.28389e-05)
(-1.61284e-06 -9.22403e-09 9.07075e-06)
(-2.37181e-06 1.21725e-06 4.92044e-06)
(5.50083e-07 7.38479e-07 5.50083e-07)
(9.27007e-07 -5.43043e-07 4.23572e-06)
(-3.79031e-07 -1.17217e-06 3.09805e-06)
(-6.80807e-07 6.74088e-07 2.21242e-06)
(4.95482e-07 7.15115e-07 4.95482e-07)
(7.37415e-07 3.56773e-07 2.23794e-06)
(-4.0392e-07 1.35976e-07 1.78896e-06)
(-6.11169e-07 6.4028e-07 1.44051e-06)
(1.71641e-07 2.63622e-07 1.71641e-07)
(3.06751e-07 -8.52235e-08 9.15786e-07)
(-5.6344e-08 -2.45338e-07 7.85444e-07)
(-1.67819e-07 2.48984e-07 6.88383e-07)
(1.53377e-07 2.67718e-07 1.53377e-07)
(2.2553e-07 1.6472e-07 4.23738e-07)
(-6.6087e-08 8.36581e-08 3.96974e-07)
(-1.30386e-07 2.27778e-07 4.01177e-07)
(6.30659e-08 1.03331e-07 6.30659e-08)
(1.10307e-07 3.18389e-09 2.13415e-07)
(1.82412e-08 -3.67217e-08 2.15262e-07)
(-2.26691e-08 7.79116e-08 2.07874e-07)
(5.26442e-08 8.55383e-08 5.26442e-08)
(8.27985e-08 5.02877e-08 1.01049e-07)
(1.13223e-08 2.68731e-08 1.07903e-07)
(-1.66053e-08 5.72544e-08 1.18995e-07)
(2.47532e-08 2.10725e-08 2.47532e-08)
(4.54806e-08 -4.07191e-09 5.48137e-08)
(2.80192e-08 -1.20075e-08 6.17183e-08)
(8.48327e-09 1.15248e-08 6.25504e-08)
(6.89278e-05 -2.31784e-06 8.77361e-06)
(5.06267e-05 -0.000114827 5.06267e-05)
(-6.22798e-05 -6.61481e-05 5.46856e-05)
(-4.09011e-05 -9.98204e-06 1.05373e-05)
(2.08832e-05 -2.87498e-06 2.80785e-06)
(1.45574e-05 -6.41153e-05 1.45574e-05)
(-1.59671e-05 -4.6875e-05 1.35748e-05)
(-8.98535e-06 -7.82322e-06 5.09842e-06)
(1.28389e-05 2.38784e-07 2.64709e-06)
(1.01118e-05 -1.71801e-05 1.01118e-05)
(-9.571e-06 -1.12466e-05 1.02026e-05)
(-6.42063e-06 -3.11356e-06 4.18229e-06)
(4.23572e-06 -5.43043e-07 9.27007e-07)
(3.53687e-06 -1.17638e-05 3.53687e-06)
(-2.37658e-06 -8.99847e-06 3.39809e-06)
(-1.51697e-06 -2.92044e-06 2.06678e-06)
(2.23794e-06 3.56773e-07 7.37415e-07)
(2.04921e-06 -3.11032e-06 2.04921e-06)
(-1.16742e-06 -2.31114e-06 2.0725e-06)
(-9.35557e-07 -8.9172e-07 1.49162e-06)
(9.15786e-07 -8.52235e-08 3.06751e-07)
(9.37045e-07 -1.99735e-06 9.37045e-07)
(-2.61235e-07 -1.72745e-06 9.59625e-07)
(-2.48775e-07 -8.13941e-07 7.93809e-07)
(4.23738e-07 1.6472e-07 2.2553e-07)
(4.73237e-07 -5.68111e-07 4.73237e-07)
(-7.3144e-08 -5.17614e-07 5.10503e-07)
(-1.18887e-07 -2.57763e-07 5.09006e-07)
(2.13415e-07 3.18389e-09 1.10307e-07)
(2.66591e-07 -3.34791e-07 2.66591e-07)
(2.24422e-08 -3.40941e-07 2.96316e-07)
(-2.45482e-08 -2.08345e-07 2.88545e-07)
(1.01049e-07 5.02877e-08 8.27985e-08)
(1.39601e-07 -1.10654e-07 1.39601e-07)
(3.54636e-08 -1.29502e-07 1.59778e-07)
(-2.75264e-09 -8.63924e-08 1.78308e-07)
(5.48137e-08 -4.07191e-09 4.54806e-08)
(8.38003e-08 -4.71951e-08 8.38003e-08)
(3.95006e-08 -5.47884e-08 9.71613e-08)
(1.13881e-08 -4.09475e-08 1.0134e-07)
(4.74985e-05 2.00868e-08 -5.87702e-06)
(5.46856e-05 -6.61481e-05 -6.22798e-05)
(-4.60657e-05 -5.52231e-05 -4.60657e-05)
(-5.03349e-05 -5.81399e-06 -9.07812e-06)
(1.37121e-05 -4.12847e-06 -1.45071e-06)
(1.35748e-05 -4.6875e-05 -1.59671e-05)
(-1.08768e-05 -5.19812e-05 -1.08768e-05)
(-1.00836e-05 -5.0099e-06 -2.35719e-06)
(9.07075e-06 -9.22403e-09 -1.61284e-06)
(1.02026e-05 -1.12466e-05 -9.571e-06)
(-7.46263e-06 -1.05464e-05 -7.46263e-06)
(-8.17612e-06 -1.75368e-06 -1.61853e-06)
(3.09805e-06 -1.17217e-06 -3.79031e-07)
(3.39809e-06 -8.99847e-06 -2.37658e-06)
(-1.78929e-06 -9.67363e-06 -1.78929e-06)
(-1.9195e-06 -2.04313e-06 9.09295e-08)
(1.78896e-06 1.35976e-07 -4.0392e-07)
(2.0725e-06 -2.31114e-06 -1.16742e-06)
(-9.17662e-07 -2.36768e-06 -9.17662e-07)
(-1.15006e-06 -6.03383e-07 1.32782e-07)
(7.85444e-07 -2.45338e-07 -5.6344e-08)
(9.59625e-07 -1.72745e-06 -2.61235e-07)
(-1.694e-07 -1.87571e-06 -1.694e-07)
(-3.04105e-07 -7.351e-07 2.78305e-07)
(3.96974e-07 8.36581e-08 -6.6087e-08)
(5.10503e-07 -5.17614e-07 -7.3144e-08)
(-1.19119e-08 -5.94147e-07 -1.19119e-08)
(-1.18583e-07 -2.68887e-07 2.03316e-07)
(2.15262e-07 -3.67217e-08 1.82412e-08)
(2.96316e-07 -3.40941e-07 2.24422e-08)
(5.2871e-08 -3.99136e-07 5.2871e-08)
(-1.99383e-08 -2.5138e-07 1.53313e-07)
(1.07903e-07 2.68731e-08 1.13223e-08)
(1.59778e-07 -1.29502e-07 3.54636e-08)
(5.775e-08 -1.69642e-07 5.775e-08)
(7.17439e-09 -1.22314e-07 1.06995e-07)
(6.17183e-08 -1.20075e-08 2.80192e-08)
(9.71613e-08 -5.47884e-08 3.95006e-08)
(5.06787e-08 -6.86157e-08 5.06787e-08)
(1.67896e-08 -5.78294e-08 7.14604e-08)
(1.38714e-05 2.07015e-06 -7.68388e-06)
(1.05373e-05 -9.98204e-06 -4.09011e-05)
(-9.07812e-06 -5.81399e-06 -5.03349e-05)
(-5.16427e-06 1.16012e-06 -5.16427e-06)
(6.52311e-06 1.59718e-06 -1.93255e-06)
(5.09842e-06 -7.82322e-06 -8.98535e-06)
(-2.35719e-06 -5.0099e-06 -1.00836e-05)
(-7.48838e-07 -1.4944e-07 -7.48838e-07)
(4.92044e-06 1.21725e-06 -2.37181e-06)
(4.18229e-06 -3.11356e-06 -6.42063e-06)
(-1.61853e-06 -1.75368e-06 -8.17612e-06)
(-7.2718e-07 -6.79866e-07 -7.2718e-07)
(2.21242e-06 6.74088e-07 -6.80807e-07)
(2.06678e-06 -2.92044e-06 -1.51697e-06)
(9.09295e-08 -2.04313e-06 -1.9195e-06)
(3.03979e-07 -1.08952e-06 3.03979e-07)
(1.44051e-06 6.4028e-07 -6.11169e-07)
(1.49162e-06 -8.9172e-07 -9.35557e-07)
(1.32782e-07 -6.03383e-07 -1.15006e-06)
(1.12658e-07 -6.89752e-07 1.12658e-07)
(6.88383e-07 2.48984e-07 -1.67819e-07)
(7.93809e-07 -8.13941e-07 -2.48775e-07)
(2.78305e-07 -7.351e-07 -3.04105e-07)
(1.93562e-07 -7.0707e-07 1.93562e-07)
(4.01177e-07 2.27778e-07 -1.30386e-07)
(5.09006e-07 -2.57763e-07 -1.18887e-07)
(2.03316e-07 -2.68887e-07 -1.18583e-07)
(1.00812e-07 -3.70412e-07 1.00812e-07)
(2.07874e-07 7.79116e-08 -2.26691e-08)
(2.88545e-07 -2.08345e-07 -2.45482e-08)
(1.53313e-07 -2.5138e-07 -1.99383e-08)
(7.78084e-08 -2.91724e-07 7.78084e-08)
(1.18995e-07 5.72544e-08 -1.66053e-08)
(1.78308e-07 -8.63924e-08 -2.75264e-09)
(1.06995e-07 -1.22314e-07 7.17439e-09)
(4.85741e-08 -1.5973e-07 4.85741e-08)
(6.25504e-08 1.15248e-08 8.48327e-09)
(1.0134e-07 -4.09475e-08 1.13881e-08)
(7.14604e-08 -5.78294e-08 1.67896e-08)
(3.36187e-08 -7.09862e-08 3.36187e-08)
)
;

boundaryField
{
    inlet
    {
        type            fixedValue;
        value           uniform (0 0 0);
    }
    outlet
    {
        type            zeroGradient;
    }
    walls
    {
        type            fixedValue;
        value           uniform (0 0 0);
    }
    procBoundary1to0
    {
        type            processor;
        value           nonuniform List<vector> 
16
(
(6.0527e-06 4.54555e-06 6.0527e-06)
(5.25704e-06 -1.97089e-05 9.90815e-05)
(-3.17215e-06 -6.02626e-06 5.42666e-05)
(-2.01474e-06 2.1537e-06 1.65041e-05)
(9.90815e-05 -1.97089e-05 5.25704e-06)
(5.33621e-05 -0.000341965 5.33621e-05)
(-8.72556e-05 -0.000231428 3.74716e-05)
(-3.88419e-05 -7.59135e-06 1.03634e-05)
(5.42666e-05 -6.02626e-06 -3.17215e-06)
(3.74716e-05 -0.000231428 -8.72556e-05)
(-4.69043e-05 -0.000264608 -4.69043e-05)
(-2.83588e-05 -1.58064e-05 -1.16655e-05)
(1.65041e-05 2.1537e-06 -2.01474e-06)
(1.03634e-05 -7.59135e-06 -3.88419e-05)
(-1.16655e-05 -1.58064e-05 -2.83588e-05)
(-5.15173e-06 6.23273e-06 -5.15173e-06)
)
;
    }
}


// ************************************************************************* //
