/*--------------------------------*- C++ -*----------------------------------*\
| =========                 |                                                 |
| \\      /  F ield         | OpenFOAM: The Open Source CFD Toolbox           |
|  \\    /   O peration     | Version:  5.x                                   |
|   \\  /    A nd           | Web:      www.OpenFOAM.org                      |
|    \\/     M anipulation  |                                                 |
\*---------------------------------------------------------------------------*/
FoamFile
{
    version     2.0;
    format      ascii;
    class       volVectorField;
    location    "0.07";
    object      Us;
}
// * * * * * * * * * * * * * * * * * * * * * * * * * * * * * * * * * * * * * //

dimensions      [0 1 -1 0 0 0 0];

internalField   uniform (0 0 0);

boundaryField
{
    inlet
    {
        type            zeroGradient;
    }
    outlet
    {
        type            zeroGradient;
    }
    walls
    {
        type            zeroGradient;
    }
    procBoundary1to0
    {
        type            processor;
        value           nonuniform List<vector> 
16
(
(-5.94583e-12 -1.7383e-08 -5.94583e-12)
(-2.18303e-10 -6.38224e-07 -2.18303e-10)
(-2.21201e-10 -6.46696e-07 -2.21201e-10)
(-9.07862e-12 -2.65419e-08 -9.07862e-12)
(-2.18303e-10 -6.38224e-07 -2.18303e-10)
(-7.96448e-09 -2.32847e-05 -7.96448e-09)
(-8.06598e-09 -2.35814e-05 -8.06598e-09)
(-3.26779e-10 -9.55358e-07 -3.26779e-10)
(-2.21201e-10 -6.46696e-07 -2.21201e-10)
(-8.06598e-09 -2.35814e-05 -8.06598e-09)
(-8.17275e-09 -2.38936e-05 -8.17275e-09)
(-3.3534e-10 -9.80387e-07 -3.3534e-10)
(-9.07862e-12 -2.65419e-08 -9.07862e-12)
(-3.26779e-10 -9.55358e-07 -3.26779e-10)
(-3.3534e-10 -9.80387e-07 -3.3534e-10)
(-1.83504e-11 -5.36485e-08 -1.83504e-11)
)
;
    }
}


// ************************************************************************* //
