/*--------------------------------*- C++ -*----------------------------------*\
| =========                 |                                                 |
| \\      /  F ield         | OpenFOAM: The Open Source CFD Toolbox           |
|  \\    /   O peration     | Version:  5.x                                   |
|   \\  /    A nd           | Web:      www.OpenFOAM.org                      |
|    \\/     M anipulation  |                                                 |
\*---------------------------------------------------------------------------*/
FoamFile
{
    version     2.0;
    format      ascii;
    class       surfaceScalarField;
    location    "0.13";
    object      phi;
}
// * * * * * * * * * * * * * * * * * * * * * * * * * * * * * * * * * * * * * //

dimensions      [0 3 -1 0 0 0 0];

internalField   nonuniform List<scalar> 
784
(
-4.55762e-12
1.66737e-11
-4.55762e-12
-1.37974e-12
-3.45959e-13
-2.82721e-11
1.4127e-12
2.43457e-12
-2.00476e-11
1.06502e-11
-1.5496e-11
-1.57959e-11
2.33393e-11
-1.57959e-11
-7.63778e-13
-3.04051e-12
-1.08053e-10
7.64174e-12
4.95012e-12
-7.32496e-11
2.0833e-11
-4.61331e-11
-2.10391e-11
2.88483e-11
-2.10391e-11
-1.11895e-12
8.16976e-12
-2.65136e-10
1.15574e-11
1.58369e-11
-1.66078e-10
3.41982e-11
-8.6295e-11
-3.72099e-11
1.82574e-11
-3.72099e-11
1.00282e-13
-3.53971e-11
-6.76406e-10
3.27591e-11
-2.67001e-12
-3.95626e-10
4.97131e-11
-1.44622e-10
-1.19097e-11
-3.03885e-12
-1.19097e-11
1.63074e-12
-1.87502e-10
-5.56469e-10
2.56305e-11
-7.6665e-11
-3.2795e-10
3.71844e-11
-1.37671e-10
3.79448e-12
8.54503e-12
3.79448e-12
2.64012e-11
-2.59735e-10
-4.07552e-11
2.78432e-11
-1.20442e-10
-5.86022e-11
1.66895e-11
-5.39813e-11
-1.71172e-11
1.64228e-11
-1.71172e-11
2.81689e-11
-2.90491e-10
1.26802e-10
4.67197e-11
-1.38977e-10
3.53955e-11
2.58778e-11
-7.51212e-12
-7.46458e-12
1.34395e-11
-7.46458e-12
1.52734e-11
-2.8566e-10
2.08353e-10
2.46772e-11
-1.39478e-10
1.02117e-10
3.22527e-11
4.49165e-11
7.6395e-12
2.60485e-11
7.6395e-12
3.44539e-12
-2.11152e-10
3.22168e-10
1.59549e-11
-9.88153e-11
1.43756e-10
3.589e-11
8.9177e-11
4.8425e-11
3.2857e-11
4.8425e-11
-1.0468e-12
-9.92773e-11
4.57012e-10
-3.46567e-11
-4.54256e-11
3.02037e-10
2.91856e-11
1.37746e-10
5.31414e-11
2.08497e-11
5.31414e-11
3.84546e-12
-3.43767e-11
3.58024e-10
-4.94067e-11
-2.14061e-11
2.97912e-10
1.93241e-11
1.2128e-10
2.1094e-11
1.6845e-11
2.1094e-11
4.29379e-12
-1.11079e-11
1.54887e-10
-1.49629e-11
-1.00084e-11
1.2319e-10
1.45871e-11
7.29981e-11
1.52223e-11
1.04681e-11
1.52223e-11
3.38015e-12
-2.64488e-13
8.86748e-11
-1.34689e-11
-1.63263e-12
7.50854e-11
1.0463e-11
5.02491e-11
6.45801e-12
7.57765e-12
6.45801e-12
2.6013e-12
1.64734e-12
3.9867e-11
-3.08611e-12
-2.08238e-13
3.49318e-11
7.37667e-12
2.94572e-11
5.0236e-12
4.95152e-12
5.0236e-12
2.10883e-12
2.5596e-12
2.2448e-11
-2.69626e-12
1.54828e-12
2.03122e-11
4.82055e-12
1.91712e-11
2.60361e-12
3.4437e-12
2.60361e-12
1.62449e-12
1.98274e-12
1.13848e-11
-7.76549e-14
1.23702e-12
1.10496e-11
3.03491e-12
1.15012e-11
2.02699e-12
2.27585e-12
2.02699e-12
1.3321e-12
1.54599e-12
6.464e-12
6.60196e-14
1.14472e-12
6.51691e-12
1.80905e-12
7.19443e-12
1.31048e-12
1.44649e-12
1.31048e-12
1.06466e-12
9.72989e-13
3.71359e-12
5.45108e-13
7.05818e-13
3.94624e-12
9.93879e-13
4.42319e-12
1.0376e-12
7.87727e-13
1.0376e-12
8.84005e-13
5.37774e-13
2.30984e-12
5.22792e-13
3.88517e-13
2.52203e-12
4.53518e-13
2.86382e-12
6.81469e-13
6.81469e-13
6.64674e-13
1.31877e-12
5.09689e-13
1.4769e-12
1.64537e-12
-2.82721e-11
-3.45959e-13
-1.37974e-12
-1.28092e-12
-1.83074e-10
-1.28092e-12
8.68824e-12
-1.09448e-10
-2.74611e-12
-5.48135e-11
-4.06274e-12
-1.08053e-10
-3.04051e-12
-7.63778e-13
6.40331e-12
-4.11986e-10
6.40331e-12
5.06592e-11
-2.23278e-10
-3.67539e-12
-6.60698e-11
-8.13946e-12
-2.65136e-10
8.16976e-12
-1.11895e-12
3.73698e-11
-1.017e-09
3.73698e-11
1.37939e-10
-4.90848e-10
9.21688e-13
-7.04493e-11
-1.09468e-11
-6.76406e-10
-3.53971e-11
1.00282e-13
1.63324e-10
-2.69646e-09
1.63324e-10
4.63967e-10
-1.226e-09
3.8887e-11
6.88599e-13
-8.01723e-12
-5.56469e-10
-1.87502e-10
1.63074e-12
9.98387e-11
-4.00907e-09
9.98387e-11
4.14091e-10
-1.88699e-09
1.87798e-11
5.0926e-11
-1.12947e-11
-4.07552e-11
-2.59735e-10
2.64012e-11
-6.56676e-11
-3.95925e-09
-6.56676e-11
1.37434e-11
-2.00836e-09
-1.66399e-11
1.71726e-11
-2.65845e-11
1.26802e-10
-2.90491e-10
2.81689e-11
-3.75631e-11
-3.63052e-09
-3.75631e-11
-7.08745e-11
-1.93693e-09
-2.71889e-12
-2.36809e-11
-1.38211e-11
2.08353e-10
-2.8566e-10
1.52734e-11
-2.80578e-11
-3.1577e-09
-2.80578e-11
-1.10313e-10
-1.75184e-09
-7.22866e-13
-4.53315e-11
3.6239e-12
3.22168e-10
-2.11152e-10
3.44539e-12
-6.96993e-11
-2.37396e-09
-6.96993e-11
-1.80057e-10
-1.46104e-09
-3.66802e-11
-8.33884e-11
5.19955e-12
4.57012e-10
-9.92773e-11
-1.0468e-12
-7.14896e-11
-1.31696e-09
-7.14896e-11
-3.22135e-10
-8.94362e-10
-1.39999e-11
-1.00846e-10
1.20212e-11
3.58024e-10
-3.43767e-11
3.84546e-12
-1.81455e-11
-5.64621e-10
-1.81455e-11
-2.62428e-10
-3.79208e-10
2.70403e-11
-7.81465e-11
2.13508e-11
1.54887e-10
-1.11079e-11
4.29379e-12
6.89722e-12
-2.6864e-10
6.89722e-12
-7.67379e-11
-1.91286e-10
1.89029e-11
-5.0654e-11
2.20916e-11
8.86748e-11
-2.64488e-13
3.38015e-12
1.05093e-11
-1.12309e-10
1.05093e-11
-4.10391e-11
-8.0502e-11
1.58502e-11
-3.06651e-11
1.89126e-11
3.9867e-11
1.64734e-12
2.6013e-12
1.01231e-11
-5.28215e-11
1.01231e-11
-7.79621e-12
-3.96424e-11
1.19915e-11
-1.82853e-11
1.5038e-11
2.2448e-11
2.5596e-12
2.10883e-12
7.10957e-12
-2.21445e-11
7.10957e-12
-2.89623e-12
-1.76528e-11
8.32841e-12
-1.02779e-11
1.09115e-11
1.13848e-11
1.98274e-12
1.62449e-12
5.35026e-12
-1.00755e-11
5.35026e-12
1.21289e-12
-8.61659e-12
6.15069e-12
-6.04554e-12
7.7173e-12
6.464e-12
1.54599e-12
1.3321e-12
3.56439e-12
-4.27625e-12
3.56439e-12
1.36505e-12
-4.02093e-12
4.12059e-12
-3.4571e-12
5.22999e-12
3.71359e-12
9.72989e-13
1.06466e-12
2.53127e-12
-1.9116e-12
2.53127e-12
1.52232e-12
-2.00915e-12
2.94342e-12
-1.99864e-12
3.54963e-12
2.30984e-12
5.37774e-13
8.84005e-13
1.7702e-12
-8.3233e-13
1.7702e-12
1.19546e-12
-9.75963e-13
2.06357e-12
-1.11579e-12
2.46576e-12
1.31877e-12
6.64674e-13
1.15211e-12
1.15211e-12
9.008e-13
1.33378e-12
1.51641e-12
-2.00476e-11
2.43457e-12
1.4127e-12
-2.74611e-12
-1.09448e-10
8.68824e-12
5.2589e-12
-7.83098e-11
5.2589e-12
-3.81934e-11
-3.41318e-14
-7.32496e-11
4.95012e-12
7.64174e-12
-3.67539e-12
-2.23278e-10
5.06592e-11
3.18971e-11
-1.49455e-10
3.18971e-11
-3.6851e-11
5.42277e-12
-1.66078e-10
1.58369e-11
1.15574e-11
9.21688e-13
-4.90848e-10
1.37939e-10
8.68756e-11
-3.21363e-10
8.68756e-11
-2.47448e-11
1.57964e-11
-3.95626e-10
-2.67001e-12
3.27591e-11
3.8887e-11
-1.226e-09
4.63967e-10
2.83242e-10
-8.10074e-10
2.83242e-10
2.50695e-11
4.28996e-11
-3.2795e-10
-7.6665e-11
2.56305e-11
1.87798e-11
-1.88699e-09
4.14091e-10
2.43571e-10
-1.25966e-09
2.43571e-10
4.20177e-11
3.83992e-11
-5.86022e-11
-1.20442e-10
2.78432e-11
-1.66399e-11
-2.00836e-09
1.37434e-11
3.40159e-11
-1.36097e-09
3.40159e-11
1.17443e-11
5.01754e-12
3.53955e-11
-1.38977e-10
4.67197e-11
-2.71889e-12
-1.93693e-09
-7.08745e-11
-6.78774e-12
-1.35283e-09
-6.78774e-12
-1.17035e-11
1.03315e-12
1.02117e-10
-1.39478e-10
2.46772e-11
-7.22866e-13
-1.75184e-09
-1.10313e-10
-4.25602e-11
-1.26916e-09
-4.25602e-11
-2.7389e-11
-4.43445e-12
1.43756e-10
-9.88153e-11
1.59549e-11
-3.66802e-11
-1.46104e-09
-1.80057e-10
-4.51843e-11
-1.25215e-09
-4.51843e-11
-7.61885e-11
-1.26098e-11
3.02037e-10
-4.54256e-11
-3.46567e-11
-1.39999e-11
-8.94362e-10
-3.22135e-10
-2.06422e-10
-8.67304e-10
-2.06422e-10
-8.97281e-11
-4.31422e-11
2.97912e-10
-2.14061e-11
-4.94067e-11
2.70403e-11
-3.79208e-10
-2.62428e-10
-2.30754e-10
-3.51716e-10
-2.30754e-10
-5.33768e-11
-3.80613e-11
1.2319e-10
-1.00084e-11
-1.49629e-11
1.89029e-11
-1.91286e-10
-7.67379e-11
-6.37132e-11
-1.86484e-10
-6.37132e-11
-3.43519e-11
-3.06962e-12
7.50854e-11
-1.63263e-12
-1.34689e-11
1.58502e-11
-8.0502e-11
-4.10391e-11
-3.92709e-11
-7.62418e-11
-3.92709e-11
-2.07839e-11
2.61665e-12
3.49318e-11
-2.08238e-13
-3.08611e-12
1.19915e-11
-3.96424e-11
-7.79621e-12
-6.45972e-12
-3.93393e-11
-6.45972e-12
-1.33566e-11
8.37801e-12
2.03122e-11
1.54828e-12
-2.69626e-12
8.32841e-12
-1.76528e-11
-2.89623e-12
-2.5109e-12
-1.76607e-11
-2.5109e-12
-8.5473e-12
6.88441e-12
1.10496e-11
1.23702e-12
-7.76549e-14
6.15069e-12
-8.61659e-12
1.21289e-12
1.87253e-12
-9.10434e-12
1.87253e-12
-5.62433e-12
5.78284e-12
6.51691e-12
1.14472e-12
6.60196e-14
4.12059e-12
-4.02093e-12
1.36505e-12
1.82827e-12
-4.51968e-12
1.82827e-12
-3.65533e-12
4.11379e-12
3.94624e-12
7.05818e-13
5.45108e-13
2.94342e-12
-2.00915e-12
1.52232e-12
1.89367e-12
-2.42018e-12
1.89367e-12
-2.317e-12
2.91573e-12
2.52203e-12
3.88517e-13
5.22792e-13
2.06357e-12
-9.75963e-13
1.19546e-12
1.47332e-12
-1.23968e-12
1.47332e-12
-1.38067e-12
2.08435e-12
1.4769e-12
5.09689e-13
1.33378e-12
9.008e-13
1.06879e-12
1.06879e-12
1.30838e-12
-1.5496e-11
1.06502e-11
-4.06274e-12
-5.48135e-11
-3.41318e-14
-3.81934e-11
-3.11829e-11
-4.61331e-11
2.0833e-11
-8.13946e-12
-6.60698e-11
5.42277e-12
-3.6851e-11
-2.20732e-11
-8.6295e-11
3.41982e-11
-1.09468e-11
-7.04493e-11
1.57964e-11
-2.47448e-11
-1.40856e-12
-1.44622e-10
4.97131e-11
-8.01723e-12
6.88599e-13
4.28996e-11
2.50695e-11
4.18521e-11
-1.37671e-10
3.71844e-11
-1.12947e-11
5.0926e-11
3.83992e-11
4.20177e-11
8.341e-11
-5.39813e-11
1.66895e-11
-2.65845e-11
1.71726e-11
5.01754e-12
1.17443e-11
1.1078e-10
-7.51212e-12
2.58778e-11
-1.38211e-11
-2.36809e-11
1.03315e-12
-1.17035e-11
1.14579e-10
4.49165e-11
3.22527e-11
3.6239e-12
-4.53315e-11
-4.43445e-12
-2.7389e-11
1.01368e-10
8.9177e-11
3.589e-11
5.19955e-12
-8.33884e-11
-1.26098e-11
-7.61885e-11
6.28017e-11
1.37746e-10
2.91856e-11
1.20212e-11
-1.00846e-10
-4.31422e-11
-8.97281e-11
1.9517e-11
1.2128e-10
1.93241e-11
2.13508e-11
-7.81465e-11
-3.80613e-11
-5.33768e-11
-1.45872e-12
7.29981e-11
1.45871e-11
2.20916e-11
-5.0654e-11
-3.06962e-12
-3.43519e-11
-1.14656e-11
5.02491e-11
1.0463e-11
1.89126e-11
-3.06651e-11
2.61665e-12
-2.07839e-11
-1.52279e-11
2.94572e-11
7.37667e-12
1.5038e-11
-1.82853e-11
8.37801e-12
-1.33566e-11
-1.33776e-11
1.91712e-11
4.82055e-12
1.09115e-11
-1.02779e-11
6.88441e-12
-8.5473e-12
-1.05549e-11
1.15012e-11
3.03491e-12
7.7173e-12
-6.04554e-12
5.78284e-12
-5.62433e-12
-7.65984e-12
7.19443e-12
1.80905e-12
5.22999e-12
-3.4571e-12
4.11379e-12
-3.65533e-12
-5.27141e-12
4.42319e-12
9.93879e-13
3.54963e-12
-1.99864e-12
2.91573e-12
-2.317e-12
-3.45397e-12
2.86382e-12
4.53518e-13
2.46576e-12
-1.11579e-12
2.08435e-12
-1.38067e-12
-2.04376e-12
1.64537e-12
1.51641e-12
1.30838e-12
)
;

boundaryField
{
    inlet
    {
        type            calculated;
        value           nonuniform List<scalar> 
16
(
3.25626e-13
1.63266e-13
9.2867e-14
1.44206e-13
1.63266e-13
-4.99018e-13
-5.81543e-13
-6.44279e-13
9.2867e-14
-5.81543e-13
-7.09689e-13
-7.88233e-13
1.44206e-13
-6.44279e-13
-7.88233e-13
-1.13035e-12
)
;
    }
    outlet
    {
        type            calculated;
        value           nonuniform List<scalar> 
16
(
-1.57151e-11
5.76175e-13
-2.31523e-12
-7.74337e-12
5.76175e-13
1.29092e-10
8.21776e-11
4.79374e-11
-2.31523e-12
8.21776e-11
6.22998e-11
3.68411e-11
-7.74337e-12
4.79374e-11
3.68411e-11
3.32119e-11
)
;
    }
    walls
    {
        type            calculated;
        value           nonuniform List<scalar> 
320
(
4.07832e-12
1.24631e-11
1.82846e-11
4.25053e-11
2.25578e-11
-9.58642e-12
1.31783e-11
8.95623e-12
-1.3944e-11
-5.18293e-11
-4.71378e-11
-1.90916e-11
-1.20339e-11
-5.0128e-12
-3.71053e-12
-1.8497e-12
-1.44307e-12
-8.958e-13
-7.08217e-13
-4.50419e-13
2.4864e-11
9.5715e-11
2.34005e-10
6.82663e-10
6.95034e-10
9.03813e-11
-1.41332e-10
-2.35921e-10
-3.92482e-10
-5.19415e-10
-3.73628e-10
-1.61356e-10
-8.7676e-11
-3.79222e-11
-2.04455e-11
-9.82878e-12
-5.33236e-12
-2.89477e-12
-1.72103e-12
-9.27477e-13
1.71358e-11
6.23285e-11
1.42515e-10
3.81474e-10
3.77946e-10
1.00938e-10
-3.54114e-11
-1.1102e-10
-1.96928e-10
-3.21817e-10
-2.68679e-10
-1.15331e-10
-6.66122e-11
-3.06688e-11
-1.72636e-11
-9.03617e-12
-5.15853e-12
-2.98779e-12
-1.84352e-12
-1.02626e-12
1.31064e-11
3.98212e-11
7.75144e-11
1.38741e-10
1.50366e-10
8.219e-11
1.10694e-11
-4.48767e-11
-9.77843e-11
-1.42309e-10
-1.16336e-10
-6.91093e-11
-4.61294e-11
-2.59044e-11
-1.62498e-11
-9.32295e-12
-5.63337e-12
-3.3154e-12
-2.06978e-12
-1.13732e-12
8.95509e-13
3.77085e-12
6.97282e-12
2.31253e-11
2.5465e-11
2.01294e-11
3.39742e-11
1.82623e-11
2.09249e-11
-2.33891e-11
-4.44892e-11
-1.41147e-11
-1.34646e-11
-3.55255e-12
-3.06152e-12
-4.70292e-13
-2.69167e-13
2.52481e-13
2.69108e-13
3.1095e-13
4.13102e-12
2.39219e-11
6.69705e-11
2.56224e-10
2.37477e-10
2.01e-11
-2.3712e-11
-4.73696e-11
-5.80231e-11
-1.78953e-10
-1.85198e-10
-5.33239e-11
-2.96915e-11
-5.75688e-12
-2.644e-12
7.64511e-13
7.41042e-13
9.3742e-13
7.10672e-13
5.58245e-13
2.58264e-12
1.69924e-11
4.80263e-11
1.82511e-10
1.76929e-10
3.26873e-11
1.80582e-12
-1.88163e-11
2.14245e-11
-1.37719e-10
-2.07693e-10
-5.75768e-11
-3.65429e-11
-7.22701e-12
-3.29311e-12
8.84013e-13
9.75467e-13
1.18923e-12
9.18412e-13
6.84387e-13
-1.04864e-12
8.67917e-13
5.46403e-12
2.12693e-11
1.76203e-11
-8.66741e-12
-8.66267e-13
2.17102e-12
6.67325e-12
-2.14999e-11
-2.75734e-11
1.93383e-12
4.4978e-12
7.45287e-12
5.47302e-12
4.33533e-12
2.91957e-12
2.00702e-12
1.37924e-12
8.51673e-13
4.07832e-12
1.24631e-11
1.82846e-11
4.25053e-11
2.25578e-11
-9.58642e-12
1.31783e-11
8.95623e-12
-1.3944e-11
-5.18293e-11
-4.71378e-11
-1.90916e-11
-1.20339e-11
-5.0128e-12
-3.71053e-12
-1.8497e-12
-1.44307e-12
-8.958e-13
-7.08217e-13
-4.50419e-13
2.4864e-11
9.5715e-11
2.34005e-10
6.82663e-10
6.95034e-10
9.03813e-11
-1.41332e-10
-2.35921e-10
-3.92482e-10
-5.19415e-10
-3.73628e-10
-1.61356e-10
-8.7676e-11
-3.79222e-11
-2.04455e-11
-9.82878e-12
-5.33236e-12
-2.89477e-12
-1.72103e-12
-9.27477e-13
1.71358e-11
6.23285e-11
1.42515e-10
3.81474e-10
3.77946e-10
1.00938e-10
-3.54114e-11
-1.1102e-10
-1.96928e-10
-3.21817e-10
-2.68679e-10
-1.15331e-10
-6.66122e-11
-3.06688e-11
-1.72636e-11
-9.03617e-12
-5.15853e-12
-2.98779e-12
-1.84352e-12
-1.02626e-12
1.31064e-11
3.98212e-11
7.75144e-11
1.38741e-10
1.50366e-10
8.219e-11
1.10694e-11
-4.48767e-11
-9.77843e-11
-1.42309e-10
-1.16336e-10
-6.91093e-11
-4.61294e-11
-2.59044e-11
-1.62498e-11
-9.32295e-12
-5.63337e-12
-3.3154e-12
-2.06978e-12
-1.13732e-12
8.95509e-13
3.77085e-12
6.97282e-12
2.31253e-11
2.5465e-11
2.01294e-11
3.39742e-11
1.82623e-11
2.09249e-11
-2.33891e-11
-4.44892e-11
-1.41147e-11
-1.34646e-11
-3.55255e-12
-3.06152e-12
-4.70292e-13
-2.69167e-13
2.52481e-13
2.69108e-13
3.1095e-13
4.13102e-12
2.39219e-11
6.69705e-11
2.56224e-10
2.37477e-10
2.01e-11
-2.3712e-11
-4.73696e-11
-5.80231e-11
-1.78953e-10
-1.85198e-10
-5.33239e-11
-2.96915e-11
-5.75688e-12
-2.644e-12
7.64511e-13
7.41042e-13
9.3742e-13
7.10672e-13
5.58245e-13
2.58264e-12
1.69924e-11
4.80263e-11
1.82511e-10
1.76929e-10
3.26873e-11
1.80582e-12
-1.88163e-11
2.14245e-11
-1.37719e-10
-2.07693e-10
-5.75768e-11
-3.65429e-11
-7.22701e-12
-3.29311e-12
8.84013e-13
9.75467e-13
1.18923e-12
9.18412e-13
6.84387e-13
-1.04864e-12
8.67917e-13
5.46403e-12
2.12693e-11
1.76203e-11
-8.66741e-12
-8.66267e-13
2.17102e-12
6.67325e-12
-2.14999e-11
-2.75734e-11
1.93383e-12
4.4978e-12
7.45287e-12
5.47302e-12
4.33533e-12
2.91957e-12
2.00702e-12
1.37924e-12
8.51673e-13
)
;
    }
}


// ************************************************************************* //
