/*--------------------------------*- C++ -*----------------------------------*\
| =========                 |                                                 |
| \\      /  F ield         | OpenFOAM: The Open Source CFD Toolbox           |
|  \\    /   O peration     | Version:  5.x                                   |
|   \\  /    A nd           | Web:      www.OpenFOAM.org                      |
|    \\/     M anipulation  |                                                 |
\*---------------------------------------------------------------------------*/
FoamFile
{
    version     2.0;
    format      ascii;
    class       volVectorField;
    location    "0.13";
    object      U;
}
// * * * * * * * * * * * * * * * * * * * * * * * * * * * * * * * * * * * * * //

dimensions      [0 1 -1 0 0 0 0];

internalField   nonuniform List<vector> 
320
(
(-6.61624e-07 2.4939e-06 -6.61624e-07)
(-6.51997e-07 -2.52306e-07 -4.21263e-06)
(2.02564e-07 2.90087e-07 -2.87832e-06)
(1.55032e-07 1.24511e-06 -2.18135e-06)
(-2.16047e-06 2.98131e-06 -2.16047e-06)
(-1.73756e-06 4.38768e-07 -1.63184e-05)
(1.27585e-06 9.437e-07 -1.05598e-05)
(7.24788e-07 2.19657e-06 -6.64094e-06)
(-3.20986e-06 4.02451e-06 -3.20986e-06)
(-2.79314e-06 -4.42448e-07 -4.03633e-05)
(2.00358e-06 8.49595e-07 -2.43622e-05)
(1.32587e-06 3.85177e-06 -1.28713e-05)
(-6.60782e-06 3.88539e-06 -6.60782e-06)
(-5.08677e-06 1.68666e-06 -0.000112085)
(5.66589e-06 2.7364e-06 -6.2105e-05)
(3.62662e-06 6.26468e-06 -2.26828e-05)
(-3.11518e-06 6.98426e-07 -3.11518e-06)
(-3.09443e-06 -1.69357e-05 -0.000108985)
(4.48199e-06 -4.58962e-06 -5.91632e-05)
(3.75543e-06 7.5268e-06 -2.39466e-05)
(1.005e-06 -9.62943e-07 1.005e-06)
(1.49063e-06 -4.07592e-05 -1.12957e-05)
(4.50336e-06 -1.79622e-05 -1.47731e-05)
(3.40764e-06 4.04465e-06 -1.27341e-05)
(-2.55565e-06 2.3923e-06 -2.55565e-06)
(-8.55347e-07 -5.14637e-05 2.32147e-05)
(7.7958e-06 -2.44144e-05 6.04914e-06)
(5.55049e-06 2.29452e-06 -1.47297e-06)
(-1.51114e-06 1.81713e-06 -1.51114e-06)
(-2.94943e-07 -5.18459e-05 3.81522e-05)
(4.52952e-06 -2.63268e-05 1.79855e-05)
(2.94838e-06 4.04322e-06 7.40051e-06)
(2.24748e-06 1.667e-06 2.24748e-06)
(6.15413e-08 -4.60401e-05 6.31711e-05)
(1.16102e-06 -2.19546e-05 3.1712e-05)
(3.35021e-06 5.39935e-06 1.58589e-05)
(8.32483e-06 5.11855e-06 8.32483e-06)
(6.34986e-06 -2.72856e-05 8.33555e-05)
(-6.62601e-06 -1.33982e-05 5.16398e-05)
(-3.77023e-06 4.64362e-06 2.29578e-05)
(7.57452e-06 4.2469e-06 7.57452e-06)
(8.41912e-06 -7.35749e-06 5.99303e-05)
(-7.33801e-06 -3.03823e-06 4.30795e-05)
(-7.15254e-06 3.65034e-06 1.87504e-05)
(3.07094e-06 2.38656e-06 3.07094e-06)
(3.55801e-06 -4.28793e-06 2.59222e-05)
(-2.23168e-06 -3.92422e-06 1.85252e-05)
(-2.26943e-06 2.18429e-06 1.11557e-05)
(1.93505e-06 2.39855e-06 1.93505e-06)
(2.67814e-06 1.91042e-07 1.40892e-05)
(-1.70624e-06 2.17573e-07 1.07018e-05)
(-2.16674e-06 1.98287e-06 7.44545e-06)
(8.07153e-07 1.09618e-06 8.07153e-07)
(1.17665e-06 -2.54517e-07 6.10491e-06)
(-3.47238e-07 -6.19468e-07 4.93646e-06)
(-5.69728e-07 1.16686e-06 4.18633e-06)
(5.97745e-07 1.07905e-06 5.97745e-07)
(8.98532e-07 6.60513e-07 3.29515e-06)
(-2.66092e-07 5.12764e-07 2.77951e-06)
(-4.9275e-07 9.62698e-07 2.62777e-06)
(2.9862e-07 5.30875e-07 2.9862e-07)
(4.75267e-07 1.98958e-07 1.58633e-06)
(5.42611e-08 4.77222e-08 1.45728e-06)
(-7.48692e-08 4.97033e-07 1.50897e-06)
(2.33004e-07 4.68887e-07 2.33004e-07)
(3.61716e-07 3.59637e-07 8.61764e-07)
(6.62369e-08 2.91339e-07 8.32712e-07)
(-4.25867e-08 3.81092e-07 9.12509e-07)
(1.45014e-07 2.41941e-07 1.45014e-07)
(2.37218e-07 1.45945e-07 4.68386e-07)
(1.18721e-07 9.52101e-08 4.82866e-07)
(4.12576e-08 1.73004e-07 5.37574e-07)
(1.14709e-07 1.83329e-07 1.14709e-07)
(1.86085e-07 1.38545e-07 2.7888e-07)
(1.08743e-07 1.08799e-07 2.98377e-07)
(4.39291e-08 1.14587e-07 3.36025e-07)
(7.31896e-08 5.27357e-08 7.31896e-08)
(1.21321e-07 2.64894e-08 1.50642e-07)
(9.5453e-08 1.51507e-08 1.66517e-07)
(5.05873e-08 2.33291e-08 1.85091e-07)
(-4.21263e-06 -2.52306e-07 -6.51997e-07)
(-2.89393e-06 -2.11179e-05 -2.89393e-06)
(2.10452e-06 -1.34076e-05 -2.34625e-06)
(7.24855e-07 -7.68081e-06 -1.88753e-06)
(-1.63184e-05 4.38768e-07 -1.73756e-06)
(-1.01811e-05 -3.71269e-05 -1.01811e-05)
(1.06402e-05 -2.15118e-05 -8.03197e-06)
(4.26639e-06 -8.96095e-06 -5.32232e-06)
(-4.03633e-05 -4.42448e-07 -2.79314e-06)
(-2.39875e-05 -0.000100959 -2.39875e-05)
(2.91207e-05 -5.32382e-05 -1.76244e-05)
(1.20159e-05 -1.26297e-05 -9.65115e-06)
(-0.000112085 1.68666e-06 -5.08677e-06)
(-6.04724e-05 -0.000183118 -6.04724e-05)
(9.53132e-05 -8.53171e-05 -4.26976e-05)
(4.15064e-05 -6.28269e-06 -1.542e-05)
(-0.000108985 -1.69357e-05 -3.09443e-06)
(-5.87699e-05 -0.000670057 -5.87699e-05)
(9.04006e-05 -0.000332382 -4.11816e-05)
(3.64808e-05 5.32377e-06 -1.57864e-05)
(-1.12957e-05 -4.07592e-05 1.49063e-06)
(-1.34475e-05 -0.000556885 -1.34475e-05)
(3.39385e-06 -0.000286029 -1.20502e-05)
(2.44332e-06 7.73303e-06 -8.94878e-06)
(2.32147e-05 -5.14637e-05 -8.55347e-07)
(8.48118e-06 -0.000580687 8.48118e-06)
(-1.6648e-05 -0.00030509 2.01075e-06)
(-3.76382e-06 -2.03491e-06 -2.30343e-06)
(3.81522e-05 -5.18459e-05 -2.94943e-07)
(1.9558e-05 -0.000528358 1.9558e-05)
(-2.58536e-05 -0.00029344 1.0181e-05)
(-7.5543e-06 -7.4576e-06 4.26175e-06)
(6.31711e-05 -4.60401e-05 6.15413e-08)
(2.829e-05 -0.000429883 2.829e-05)
(-4.62564e-05 -0.000247543 9.57358e-06)
(-9.27126e-06 -9.41587e-06 8.68249e-06)
(8.33555e-05 -2.72856e-05 6.34986e-06)
(4.91336e-05 -0.000286391 4.91336e-05)
(-6.82563e-05 -0.000200939 3.70464e-05)
(-2.8621e-05 -2.05331e-05 1.61514e-05)
(5.99303e-05 -7.35749e-06 8.41912e-06)
(4.491e-05 -0.000112315 4.491e-05)
(-4.93475e-05 -7.35257e-05 4.5064e-05)
(-2.96199e-05 -1.36368e-05 1.61038e-05)
(2.59222e-05 -4.28793e-06 3.55801e-06)
(1.93978e-05 -6.01983e-05 1.93978e-05)
(-1.65578e-05 -4.47941e-05 1.80469e-05)
(-8.51677e-06 -1.05207e-05 9.69571e-06)
(1.40892e-05 1.91042e-07 2.67814e-06)
(1.17863e-05 -2.18872e-05 1.17863e-05)
(-7.86076e-06 -1.51921e-05 1.14717e-05)
(-4.74209e-06 -5.30876e-06 6.90691e-06)
(6.10491e-06 -2.54517e-07 1.17665e-06)
(5.49552e-06 -1.23044e-05 5.49552e-06)
(-1.82845e-06 -9.65293e-06 5.34222e-06)
(-9.10194e-07 -3.92574e-06 4.21855e-06)
(3.29515e-06 6.60513e-07 8.98532e-07)
(3.19433e-06 -4.21628e-06 3.19433e-06)
(-6.27595e-07 -3.29056e-06 3.18539e-06)
(-4.15432e-07 -1.78137e-06 2.82892e-06)
(1.58633e-06 1.98958e-07 4.75267e-07)
(1.70609e-06 -2.45011e-06 1.70609e-06)
(1.88987e-07 -2.10812e-06 1.77529e-06)
(1.28532e-07 -1.28597e-06 1.76886e-06)
(8.61764e-07 3.59637e-07 3.61716e-07)
(1.00344e-06 -8.14741e-07 1.00344e-06)
(2.54099e-07 -7.45174e-07 1.07014e-06)
(1.22887e-07 -6.09598e-07 1.13601e-06)
(4.68386e-07 1.45945e-07 2.37218e-07)
(6.04307e-07 -4.67177e-07 6.04307e-07)
(2.79556e-07 -4.76323e-07 6.67569e-07)
(1.53152e-07 -4.20265e-07 7.23535e-07)
(2.7888e-07 1.38545e-07 1.86085e-07)
(3.87967e-07 -1.64011e-07 3.87967e-07)
(2.26644e-07 -1.96191e-07 4.35102e-07)
(1.16035e-07 -2.21197e-07 4.79883e-07)
(1.50642e-07 2.64894e-08 1.21321e-07)
(2.26358e-07 -8.07402e-08 2.26358e-07)
(1.66441e-07 -9.38499e-08 2.57565e-07)
(9.09652e-08 -1.04564e-07 2.79464e-07)
(-2.87832e-06 2.90087e-07 2.02564e-07)
(-2.34625e-06 -1.34076e-05 2.10452e-06)
(1.0693e-06 -1.01113e-05 1.0693e-06)
(4.61378e-07 -5.87944e-06 1.81075e-07)
(-1.05598e-05 9.437e-07 1.27585e-06)
(-8.03197e-06 -2.15118e-05 1.06402e-05)
(5.8073e-06 -1.49297e-05 5.8073e-06)
(3.02103e-06 -5.8022e-06 1.66017e-06)
(-2.43622e-05 8.49595e-07 2.00358e-06)
(-1.76244e-05 -5.32382e-05 2.91207e-05)
(1.59076e-05 -3.52826e-05 1.59076e-05)
(8.54049e-06 -6.36532e-06 4.48451e-06)
(-6.2105e-05 2.7364e-06 5.66589e-06)
(-4.26976e-05 -8.53171e-05 9.53132e-05)
(5.0599e-05 -5.56775e-05 5.0599e-05)
(2.95661e-05 -6.11344e-07 1.1152e-05)
(-5.91632e-05 -4.58962e-06 4.48199e-06)
(-4.11816e-05 -0.000332382 9.04006e-05)
(4.78045e-05 -0.00022183 4.78045e-05)
(2.72617e-05 6.16631e-06 1.14925e-05)
(-1.47731e-05 -1.79622e-05 4.50336e-06)
(-1.20502e-05 -0.000286029 3.39385e-06)
(9.70963e-06 -0.000193945 9.70963e-06)
(4.62996e-06 5.19607e-06 3.09886e-06)
(6.04914e-06 -2.44144e-05 7.7958e-06)
(2.01075e-06 -0.00030509 -1.6648e-05)
(-2.10517e-06 -0.000208496 -2.10517e-06)
(2.7927e-07 -7.52145e-07 -2.2075e-07)
(1.79855e-05 -2.63268e-05 4.52952e-06)
(1.0181e-05 -0.00029344 -2.58536e-05)
(-9.99249e-06 -0.000210668 -9.99249e-06)
(-2.96149e-06 -4.22228e-06 -2.44382e-06)
(3.1712e-05 -2.19546e-05 1.16102e-06)
(9.57358e-06 -0.000247543 -4.62564e-05)
(-1.9126e-05 -0.000182254 -1.9126e-05)
(3.4384e-06 -5.76836e-06 -6.1908e-06)
(5.16398e-05 -1.33982e-05 -6.62601e-06)
(3.70464e-05 -0.000200939 -6.82563e-05)
(-4.03879e-05 -0.000200733 -4.03879e-05)
(-2.20205e-05 -2.16781e-05 -1.12442e-05)
(4.30795e-05 -3.03823e-06 -7.33801e-06)
(4.5064e-05 -7.35257e-05 -4.93475e-05)
(-3.56077e-05 -6.37175e-05 -3.56077e-05)
(-3.32267e-05 -9.12408e-06 -8.18316e-06)
(1.85252e-05 -3.92422e-06 -2.23168e-06)
(1.80469e-05 -4.47941e-05 -1.65578e-05)
(-1.11723e-05 -4.46961e-05 -1.11723e-05)
(-9.19936e-06 -8.02054e-06 -1.62239e-06)
(1.07018e-05 2.17573e-07 -1.70624e-06)
(1.14717e-05 -1.51921e-05 -7.86076e-06)
(-5.90399e-06 -1.36816e-05 -5.90399e-06)
(-5.84523e-06 -3.54916e-06 -1.20116e-07)
(4.93646e-06 -6.19468e-07 -3.47238e-07)
(5.34222e-06 -9.65293e-06 -1.82845e-06)
(-1.09569e-06 -9.64489e-06 -1.09569e-06)
(-1.14661e-06 -2.97469e-06 1.10161e-06)
(2.77951e-06 5.12764e-07 -2.66092e-07)
(3.18539e-06 -3.29056e-06 -6.27595e-07)
(-2.68747e-07 -3.20441e-06 -2.68747e-07)
(-5.21798e-07 -1.43797e-06 1.02434e-06)
(1.45728e-06 4.77222e-08 5.42611e-08)
(1.77529e-06 -2.10812e-06 1.88987e-07)
(3.7449e-07 -2.19266e-06 3.7449e-07)
(1.47204e-07 -1.18821e-06 9.2718e-07)
(8.32712e-07 2.91339e-07 6.62369e-08)
(1.07014e-06 -7.45174e-07 2.54099e-07)
(3.65754e-07 -8.2817e-07 3.65754e-07)
(1.59965e-07 -6.37959e-07 6.87268e-07)
(4.82866e-07 9.52101e-08 1.18721e-07)
(6.67569e-07 -4.76323e-07 2.79556e-07)
(3.53721e-07 -5.5387e-07 3.53721e-07)
(1.9352e-07 -4.73964e-07 5.0323e-07)
(2.98377e-07 1.08799e-07 1.08743e-07)
(4.35102e-07 -1.96191e-07 2.26644e-07)
(2.7831e-07 -2.57512e-07 2.7831e-07)
(1.49361e-07 -2.80258e-07 3.68117e-07)
(1.66517e-07 1.51507e-08 9.5453e-08)
(2.57565e-07 -9.38499e-08 1.66441e-07)
(1.96122e-07 -1.14248e-07 1.96122e-07)
(1.11283e-07 -1.27445e-07 2.31464e-07)
(-2.18135e-06 1.24511e-06 1.55032e-07)
(-1.88753e-06 -7.68081e-06 7.24855e-07)
(1.81075e-07 -5.87944e-06 4.61378e-07)
(-1.60486e-07 -5.2572e-06 -1.60486e-07)
(-6.64094e-06 2.19657e-06 7.24788e-07)
(-5.32232e-06 -8.96095e-06 4.26639e-06)
(1.66017e-06 -5.8022e-06 3.02103e-06)
(2.02258e-07 -4.13934e-06 2.02258e-07)
(-1.28713e-05 3.85177e-06 1.32587e-06)
(-9.65115e-06 -1.26297e-05 1.20159e-05)
(4.48451e-06 -6.36532e-06 8.54049e-06)
(9.81555e-07 -2.60247e-06 9.81555e-07)
(-2.26828e-05 6.26468e-06 3.62662e-06)
(-1.542e-05 -6.28269e-06 4.15064e-05)
(1.1152e-05 -6.11344e-07 2.95661e-05)
(3.37114e-06 2.16856e-06 3.37114e-06)
(-2.39466e-05 7.5268e-06 3.75543e-06)
(-1.57864e-05 5.32377e-06 3.64808e-05)
(1.14925e-05 6.16631e-06 2.72617e-05)
(2.57983e-06 9.60165e-06 2.57983e-06)
(-1.27341e-05 4.04465e-06 3.40764e-06)
(-8.94878e-06 7.73303e-06 2.44332e-06)
(3.09886e-06 5.19607e-06 4.62996e-06)
(-1.42316e-06 1.52544e-05 -1.42316e-06)
(-1.47297e-06 2.29452e-06 5.55049e-06)
(-2.30343e-06 -2.03491e-06 -3.76382e-06)
(-2.2075e-07 -7.52145e-07 2.7927e-07)
(5.05806e-08 1.7452e-05 5.05806e-08)
(7.40051e-06 4.04322e-06 2.94838e-06)
(4.26175e-06 -7.4576e-06 -7.5543e-06)
(-2.44382e-06 -4.22228e-06 -2.96149e-06)
(4.38343e-07 1.63136e-05 4.38343e-07)
(1.58589e-05 5.39935e-06 3.35021e-06)
(8.68249e-06 -9.41587e-06 -9.27126e-06)
(-6.1908e-06 -5.76836e-06 3.4384e-06)
(1.16376e-06 1.33593e-05 1.16376e-06)
(2.29578e-05 4.64362e-06 -3.77023e-06)
(1.61514e-05 -2.05331e-05 -2.8621e-05)
(-1.12442e-05 -2.16781e-05 -2.20205e-05)
(-3.39747e-06 4.62542e-06 -3.39747e-06)
(1.87504e-05 3.65034e-06 -7.15254e-06)
(1.61038e-05 -1.36368e-05 -2.96199e-05)
(-8.18316e-06 -9.12408e-06 -3.32267e-05)
(-4.38952e-06 8.58178e-07 -4.38952e-06)
(1.11557e-05 2.18429e-06 -2.26943e-06)
(9.69571e-06 -1.05207e-05 -8.51677e-06)
(-1.62239e-06 -8.02054e-06 -9.19936e-06)
(3.41379e-07 -1.36779e-06 3.41379e-07)
(7.44545e-06 1.98287e-06 -2.16674e-06)
(6.90691e-06 -5.30876e-06 -4.74209e-06)
(-1.20116e-07 -3.54916e-06 -5.84523e-06)
(7.42304e-07 -2.16815e-06 7.42304e-07)
(4.18633e-06 1.16686e-06 -5.69728e-07)
(4.21855e-06 -3.92574e-06 -9.10194e-07)
(1.10161e-06 -2.97469e-06 -1.14661e-06)
(1.2112e-06 -2.35735e-06 1.2112e-06)
(2.62777e-06 9.62698e-07 -4.9275e-07)
(2.82892e-06 -1.78137e-06 -4.15432e-07)
(1.02434e-06 -1.43797e-06 -5.21798e-07)
(8.90494e-07 -1.711e-06 8.90494e-07)
(1.50897e-06 4.97033e-07 -7.48692e-08)
(1.76886e-06 -1.28597e-06 1.28532e-07)
(9.2718e-07 -1.18821e-06 1.47204e-07)
(7.04085e-07 -1.41238e-06 7.04085e-07)
(9.12509e-07 3.81092e-07 -4.25867e-08)
(1.13601e-06 -6.09598e-07 1.22887e-07)
(6.87268e-07 -6.37959e-07 1.59965e-07)
(4.74725e-07 -9.11563e-07 4.74725e-07)
(5.37574e-07 1.73004e-07 4.12576e-08)
(7.23535e-07 -4.20265e-07 1.53152e-07)
(5.0323e-07 -4.73964e-07 1.9352e-07)
(3.26169e-07 -6.49739e-07 3.26169e-07)
(3.36025e-07 1.14587e-07 4.39291e-08)
(4.79883e-07 -2.21197e-07 1.16035e-07)
(3.68117e-07 -2.80258e-07 1.49361e-07)
(2.24461e-07 -4.08914e-07 2.24461e-07)
(1.85091e-07 2.33291e-08 5.05873e-08)
(2.79464e-07 -1.04564e-07 9.09652e-08)
(2.31464e-07 -1.27445e-07 1.11283e-07)
(1.38726e-07 -1.83499e-07 1.38726e-07)
)
;

boundaryField
{
    inlet
    {
        type            fixedValue;
        value           uniform (0 0 0);
    }
    outlet
    {
        type            zeroGradient;
    }
    walls
    {
        type            fixedValue;
        value           uniform (0 0 0);
    }
}


// ************************************************************************* //
