/*--------------------------------*- C++ -*----------------------------------*\
| =========                 |                                                 |
| \\      /  F ield         | OpenFOAM: The Open Source CFD Toolbox           |
|  \\    /   O peration     | Version:  5.x                                   |
|   \\  /    A nd           | Web:      www.OpenFOAM.org                      |
|    \\/     M anipulation  |                                                 |
\*---------------------------------------------------------------------------*/
FoamFile
{
    version     2.0;
    format      ascii;
    class       volVectorField;
    location    "0.13";
    object      Us;
}
// * * * * * * * * * * * * * * * * * * * * * * * * * * * * * * * * * * * * * //

dimensions      [0 1 -1 0 0 0 0];

internalField   nonuniform List<vector> 
320
(
(-5.77081e-13 -1.23423e-09 -5.77081e-13)
(-8.44345e-12 -1.80585e-08 -8.44345e-12)
(-8.12381e-12 -1.73748e-08 -8.12381e-12)
(-2.29171e-13 -4.9014e-10 -2.29171e-13)
(-2.49194e-11 -5.32965e-08 -2.49194e-11)
(-4.57383e-10 -9.78231e-07 -4.57383e-10)
(-4.45764e-10 -9.53381e-07 -4.45764e-10)
(-1.24147e-11 -2.6552e-08 -1.24147e-11)
(-9.1508e-10 -1.95713e-06 -9.1508e-10)
(-2.2395e-08 -4.78973e-05 -2.2395e-08)
(-2.2108e-08 -4.72837e-05 -2.2108e-08)
(-6.08325e-10 -1.30106e-06 -6.08325e-10)
(-2.24052e-08 -4.79192e-05 -2.24052e-08)
(-8.22312e-07 -0.00175873 -8.22312e-07)
(-8.22457e-07 -0.00175903 -8.22457e-07)
(-2.24071e-08 -4.79234e-05 -2.24071e-08)
(-6.06186e-10 -1.29648e-06 -6.06186e-10)
(-2.22523e-08 -4.75923e-05 -2.22523e-08)
(-2.22525e-08 -4.75926e-05 -2.22525e-08)
(-6.06273e-10 -1.29667e-06 -6.06273e-10)
(-8.09644e-12 -1.73163e-08 -8.09644e-12)
(-2.9721e-10 -6.3566e-07 -2.9721e-10)
(-3.01102e-10 -6.43984e-07 -3.01102e-10)
(-1.23043e-11 -2.6316e-08 -1.23043e-11)
(-1.08143e-13 -2.31292e-10 -1.08143e-13)
(-3.9698e-12 -8.49044e-09 -3.9698e-12)
(-4.07376e-12 -8.71277e-09 -4.07376e-12)
(-2.21975e-13 -4.7475e-10 -2.21975e-13)
(-1.44452e-15 -3.08947e-12 -1.44452e-15)
(-5.30264e-14 -1.1341e-10 -5.30264e-14)
(-5.51092e-14 -1.17865e-10 -5.51092e-14)
(-3.75423e-15 -8.02938e-12 -3.75423e-15)
(-1.92958e-17 -4.12691e-14 -1.92958e-17)
(-7.08326e-16 -1.51494e-12 -7.08326e-16)
(-7.45422e-16 -1.59427e-12 -7.45422e-16)
(-6.09546e-17 -1.30367e-13 -6.09546e-17)
(-2.57648e-19 -5.51045e-16 -2.57648e-19)
(-9.45964e-18 -2.02319e-14 -9.45964e-18)
(-1.00789e-17 -2.15564e-14 -1.00789e-17)
(-9.61878e-19 -2.05722e-15 -9.61878e-19)
(0 0 0)
(0 0 0)
(0 0 0)
(0 0 0)
(0 0 0)
(0 0 0)
(0 0 0)
(0 0 0)
(0 0 0)
(0 0 0)
(0 0 0)
(0 0 0)
(0 0 0)
(0 0 0)
(0 0 0)
(0 0 0)
(0 0 0)
(0 0 0)
(0 0 0)
(0 0 0)
(0 0 0)
(0 0 0)
(0 0 0)
(0 0 0)
(0 0 0)
(0 0 0)
(0 0 0)
(0 0 0)
(0 0 0)
(0 0 0)
(0 0 0)
(0 0 0)
(0 0 0)
(0 0 0)
(0 0 0)
(0 0 0)
(0 0 0)
(0 0 0)
(0 0 0)
(0 0 0)
(-8.44345e-12 -1.80585e-08 -8.44345e-12)
(-1.54501e-10 -3.3044e-07 -1.54501e-10)
(-1.50544e-10 -3.21978e-07 -1.50544e-10)
(-4.18435e-12 -8.94929e-09 -4.18435e-12)
(-4.57383e-10 -9.78231e-07 -4.57383e-10)
(-1.11964e-08 -2.39465e-05 -1.11964e-08)
(-1.10522e-08 -2.36379e-05 -1.10522e-08)
(-3.03126e-10 -6.48311e-07 -3.03126e-10)
(-2.2395e-08 -4.78973e-05 -2.2395e-08)
(-8.22154e-07 -0.00175839 -8.22154e-07)
(-8.22162e-07 -0.0017584 -8.22162e-07)
(-2.22545e-08 -4.75969e-05 -2.22545e-08)
(-8.22312e-07 -0.00175873 -8.22312e-07)
(-6.03392e-05 -0.129051 -6.03392e-05)
(-6.03392e-05 -0.129051 -6.03392e-05)
(-8.2261e-07 -0.00175936 -8.2261e-07)
(-2.22523e-08 -4.75923e-05 -2.22523e-08)
(-8.22447e-07 -0.00175901 -8.22447e-07)
(-8.22312e-07 -0.00175872 -8.22312e-07)
(-2.21141e-08 -4.72966e-05 -2.21141e-08)
(-2.9721e-10 -6.3566e-07 -2.9721e-10)
(-1.0915e-08 -2.33446e-05 -1.0915e-08)
(-1.10542e-08 -2.36422e-05 -1.10542e-08)
(-4.45896e-10 -9.53663e-07 -4.45896e-10)
(-3.9698e-12 -8.49044e-09 -3.9698e-12)
(-1.44858e-10 -3.09816e-07 -1.44858e-10)
(-1.48575e-10 -3.17765e-07 -1.48575e-10)
(-7.99165e-12 -1.70922e-08 -7.99165e-12)
(-5.30264e-14 -1.1341e-10 -5.30264e-14)
(-1.92248e-12 -4.11173e-09 -1.92248e-12)
(-1.99661e-12 -4.27027e-09 -1.99661e-12)
(-1.34274e-13 -2.8718e-10 -1.34274e-13)
(-7.08326e-16 -1.51494e-12 -7.08326e-16)
(-2.55144e-14 -5.4569e-11 -2.55144e-14)
(-2.68273e-14 -5.7377e-11 -2.68273e-14)
(-2.16572e-15 -4.63194e-12 -2.16572e-15)
(-9.45964e-18 -2.02319e-14 -9.45964e-18)
(-3.38556e-16 -7.24088e-13 -3.38556e-16)
(-3.60343e-16 -7.70685e-13 -3.60343e-16)
(-3.39519e-17 -7.26149e-14 -3.39519e-17)
(0 0 0)
(0 0 0)
(0 0 0)
(0 0 0)
(0 0 0)
(0 0 0)
(0 0 0)
(0 0 0)
(0 0 0)
(0 0 0)
(0 0 0)
(0 0 0)
(0 0 0)
(0 0 0)
(0 0 0)
(0 0 0)
(0 0 0)
(0 0 0)
(0 0 0)
(0 0 0)
(0 0 0)
(0 0 0)
(0 0 0)
(0 0 0)
(0 0 0)
(0 0 0)
(0 0 0)
(0 0 0)
(0 0 0)
(0 0 0)
(0 0 0)
(0 0 0)
(0 0 0)
(0 0 0)
(0 0 0)
(0 0 0)
(0 0 0)
(0 0 0)
(0 0 0)
(0 0 0)
(-8.12381e-12 -1.73748e-08 -8.12381e-12)
(-1.50544e-10 -3.21978e-07 -1.50544e-10)
(-1.46782e-10 -3.13931e-07 -1.46782e-10)
(-4.07745e-12 -8.72068e-09 -4.07745e-12)
(-4.45764e-10 -9.53381e-07 -4.45764e-10)
(-1.10522e-08 -2.36379e-05 -1.10522e-08)
(-1.0915e-08 -2.33446e-05 -1.0915e-08)
(-2.99241e-10 -6.40004e-07 -2.99241e-10)
(-2.2108e-08 -4.72837e-05 -2.2108e-08)
(-8.22162e-07 -0.0017584 -8.22162e-07)
(-8.22443e-07 -0.00175901 -8.22443e-07)
(-2.22565e-08 -4.76011e-05 -2.22565e-08)
(-8.22457e-07 -0.00175903 -8.22457e-07)
(-6.03392e-05 -0.129051 -6.03392e-05)
(-6.03392e-05 -0.129051 -6.03392e-05)
(-8.22614e-07 -0.00175937 -8.22614e-07)
(-2.22525e-08 -4.75926e-05 -2.22525e-08)
(-8.22312e-07 -0.00175872 -8.22312e-07)
(-8.22451e-07 -0.00175902 -8.22451e-07)
(-2.24033e-08 -4.79151e-05 -2.24033e-08)
(-3.01102e-10 -6.43984e-07 -3.01102e-10)
(-1.10542e-08 -2.36422e-05 -1.10542e-08)
(-1.12005e-08 -2.39552e-05 -1.12005e-08)
(-4.57555e-10 -9.78598e-07 -4.57555e-10)
(-4.07376e-12 -8.71277e-09 -4.07376e-12)
(-1.48575e-10 -3.17765e-07 -1.48575e-10)
(-1.52483e-10 -3.26123e-07 -1.52483e-10)
(-8.30501e-12 -1.77624e-08 -8.30501e-12)
(-5.51092e-14 -1.17865e-10 -5.51092e-14)
(-1.99661e-12 -4.27027e-09 -1.99661e-12)
(-2.0752e-12 -4.43834e-09 -2.0752e-12)
(-1.41293e-13 -3.02191e-10 -1.41293e-13)
(-7.45422e-16 -1.59427e-12 -7.45422e-16)
(-2.68273e-14 -5.7377e-11 -2.68273e-14)
(-2.82331e-14 -6.03838e-11 -2.82331e-14)
(-2.30718e-15 -4.9345e-12 -2.30718e-15)
(-1.00789e-17 -2.15564e-14 -1.00789e-17)
(-3.60343e-16 -7.70685e-13 -3.60343e-16)
(-3.83924e-16 -8.21121e-13 -3.83924e-16)
(-3.66127e-17 -7.83055e-14 -3.66127e-17)
(0 0 0)
(0 0 0)
(0 0 0)
(0 0 0)
(0 0 0)
(0 0 0)
(0 0 0)
(0 0 0)
(0 0 0)
(0 0 0)
(0 0 0)
(0 0 0)
(0 0 0)
(0 0 0)
(0 0 0)
(0 0 0)
(0 0 0)
(0 0 0)
(0 0 0)
(0 0 0)
(0 0 0)
(0 0 0)
(0 0 0)
(0 0 0)
(0 0 0)
(0 0 0)
(0 0 0)
(0 0 0)
(0 0 0)
(0 0 0)
(0 0 0)
(0 0 0)
(0 0 0)
(0 0 0)
(0 0 0)
(0 0 0)
(0 0 0)
(0 0 0)
(0 0 0)
(0 0 0)
(-2.29171e-13 -4.9014e-10 -2.29171e-13)
(-4.18435e-12 -8.94929e-09 -4.18435e-12)
(-4.07745e-12 -8.72068e-09 -4.07745e-12)
(-1.1481e-13 -2.45551e-10 -1.1481e-13)
(-1.24147e-11 -2.6552e-08 -1.24147e-11)
(-3.03126e-10 -6.48311e-07 -3.03126e-10)
(-2.99241e-10 -6.40004e-07 -2.99241e-10)
(-8.31423e-12 -1.77821e-08 -8.31423e-12)
(-6.08325e-10 -1.30106e-06 -6.08325e-10)
(-2.22545e-08 -4.75969e-05 -2.22545e-08)
(-2.22565e-08 -4.76011e-05 -2.22565e-08)
(-6.10295e-10 -1.30527e-06 -6.10295e-10)
(-2.24071e-08 -4.79234e-05 -2.24071e-08)
(-8.2261e-07 -0.00175936 -8.2261e-07)
(-8.22614e-07 -0.00175937 -8.22614e-07)
(-2.24136e-08 -4.79371e-05 -2.24136e-08)
(-6.06273e-10 -1.29667e-06 -6.06273e-10)
(-2.21141e-08 -4.72966e-05 -2.21141e-08)
(-2.24033e-08 -4.79151e-05 -2.24033e-08)
(-9.15423e-10 -1.95787e-06 -9.15423e-10)
(-1.23043e-11 -2.6316e-08 -1.23043e-11)
(-4.45896e-10 -9.53663e-07 -4.45896e-10)
(-4.57555e-10 -9.78598e-07 -4.57555e-10)
(-2.49287e-11 -5.33164e-08 -2.49287e-11)
(-2.21975e-13 -4.7475e-10 -2.21975e-13)
(-7.99165e-12 -1.70922e-08 -7.99165e-12)
(-8.30501e-12 -1.77624e-08 -8.30501e-12)
(-5.65686e-13 -1.20986e-09 -5.65686e-13)
(-3.75423e-15 -8.02938e-12 -3.75423e-15)
(-1.34274e-13 -2.8718e-10 -1.34274e-13)
(-1.41293e-13 -3.02191e-10 -1.41293e-13)
(-1.1552e-14 -2.47069e-11 -1.1552e-14)
(-6.09546e-17 -1.30367e-13 -6.09546e-17)
(-2.16572e-15 -4.63194e-12 -2.16572e-15)
(-2.30718e-15 -4.9345e-12 -2.30718e-15)
(-2.20158e-16 -4.70864e-13 -2.20158e-16)
(-9.61878e-19 -2.05722e-15 -9.61878e-19)
(-3.39519e-17 -7.26149e-14 -3.39519e-17)
(-3.66127e-17 -7.83055e-14 -3.66127e-17)
(-3.99463e-18 -8.54353e-15 -3.99463e-18)
(0 0 0)
(0 0 0)
(0 0 0)
(0 0 0)
(0 0 0)
(0 0 0)
(0 0 0)
(0 0 0)
(0 0 0)
(0 0 0)
(0 0 0)
(0 0 0)
(0 0 0)
(0 0 0)
(0 0 0)
(0 0 0)
(0 0 0)
(0 0 0)
(0 0 0)
(0 0 0)
(0 0 0)
(0 0 0)
(0 0 0)
(0 0 0)
(0 0 0)
(0 0 0)
(0 0 0)
(0 0 0)
(0 0 0)
(0 0 0)
(0 0 0)
(0 0 0)
(0 0 0)
(0 0 0)
(0 0 0)
(0 0 0)
(0 0 0)
(0 0 0)
(0 0 0)
(0 0 0)
)
;

boundaryField
{
    inlet
    {
        type            zeroGradient;
    }
    outlet
    {
        type            zeroGradient;
    }
    walls
    {
        type            zeroGradient;
    }
}


// ************************************************************************* //
