/*--------------------------------*- C++ -*----------------------------------*\
| =========                 |                                                 |
| \\      /  F ield         | OpenFOAM: The Open Source CFD Toolbox           |
|  \\    /   O peration     | Version:  5.x                                   |
|   \\  /    A nd           | Web:      www.OpenFOAM.org                      |
|    \\/     M anipulation  |                                                 |
\*---------------------------------------------------------------------------*/
FoamFile
{
    version     2.0;
    format      ascii;
    class       volScalarField;
    location    "0.12";
    object      Ksl;
}
// * * * * * * * * * * * * * * * * * * * * * * * * * * * * * * * * * * * * * //

dimensions      [1 -3 -1 0 0 0 0];

internalField   nonuniform List<scalar> 
320
(
2.03893e-05
0.000297516
0.000187674
1.36918e-05
0.000835251
0.00519808
0.00389549
0.000325368
0.0261953
0.110893
0.0881852
0.0075887
0.584354
1.7044
1.12854
0.159509
2.82257
3.15191
1.52416
1.17664
1.37209
1.97584
1.31033
0.142051
0.0918301
0.0609577
0.0674199
0.00985882
0.000952498
0.00086638
0.000906172
0.000286516
3.2705e-05
1.17213e-05
1.30136e-05
2.40395e-06
0
0
0
0
0
0
0
0
0
0
0
0
0
0
0
0
0
0
0
0
0
0
0
0
0
0
0
0
0
0
0
0
0
0
0
0
0
0
0
0
0
0
0
0
0.000297516
0.00115539
0.000938691
0.000104568
0.00519808
0.0389599
0.0318418
0.00364856
0.110893
1.64918
1.49571
0.111034
1.7044
3.3288
1.5649
1.46992
3.15191
3.19576
1.5095
1.49849
1.97584
4.73178
1.82941
1.1562
0.0609577
0.138564
0.137116
0.178851
0.00086638
0.00181556
0.00169541
0.00311257
1.17213e-05
2.96136e-05
2.69087e-05
3.39323e-05
0
5.89077e-07
4.28743e-07
0
0
0
0
0
0
0
0
0
0
0
0
0
0
0
0
0
0
0
0
0
0
0
0
0
0
0
0
0
0
0
0
0
0
0
0
0
0
0
0
0
0.000187674
0.000938691
0.000863269
9.82458e-05
0.00389549
0.0318418
0.033159
0.00463728
0.0881852
1.49571
1.67729
0.141814
1.12854
1.5649
1.0393
0.980997
1.52416
1.5095
1.00868
1.01073
1.31033
1.82941
1.15175
0.826349
0.0674199
0.137116
0.141517
0.159206
0.000906172
0.00169541
0.00160504
0.00411325
1.30136e-05
2.69087e-05
2.5192e-05
3.53143e-05
0
4.28743e-07
2.97968e-07
0
0
0
0
0
0
0
0
0
0
0
0
0
0
0
0
0
0
0
0
0
0
0
0
0
0
0
0
0
0
0
0
0
0
0
0
0
0
0
0
0
1.36918e-05
0.000104568
9.82458e-05
0
0.000325368
0.00364856
0.00463728
0.000476242
0.0075887
0.111034
0.141814
0.0334834
0.159509
1.46992
0.980997
0.475701
1.17664
1.49849
1.01073
0.872635
0.142051
1.1562
0.826349
0.125236
0.00985882
0.178851
0.159206
0.00314658
0.000286516
0.00311257
0.00411325
7.4761e-05
2.40395e-06
3.39323e-05
3.53143e-05
0
0
0
0
0
0
0
0
0
0
0
0
0
0
0
0
0
0
0
0
0
0
0
0
0
0
0
0
0
0
0
0
0
0
0
0
0
0
0
0
0
0
0
0
0
)
;

boundaryField
{
    inlet
    {
        type            zeroGradient;
    }
    outlet
    {
        type            zeroGradient;
    }
    walls
    {
        type            zeroGradient;
    }
}


// ************************************************************************* //
