/*--------------------------------*- C++ -*----------------------------------*\
| =========                 |                                                 |
| \\      /  F ield         | OpenFOAM: The Open Source CFD Toolbox           |
|  \\    /   O peration     | Version:  5.x                                   |
|   \\  /    A nd           | Web:      www.OpenFOAM.org                      |
|    \\/     M anipulation  |                                                 |
\*---------------------------------------------------------------------------*/
FoamFile
{
    version     2.0;
    format      ascii;
    class       surfaceScalarField;
    location    "0.12";
    object      phi;
}
// * * * * * * * * * * * * * * * * * * * * * * * * * * * * * * * * * * * * * //

dimensions      [0 3 -1 0 0 0 0];

internalField   nonuniform List<scalar> 
784
(
-4.24854e-12
2.56659e-11
-4.24854e-12
-1.18278e-12
1.03958e-11
-1.87086e-11
8.13273e-13
1.22924e-11
-1.40245e-11
1.74043e-11
-1.15896e-11
-1.10069e-11
2.88098e-11
-1.10069e-11
-2.58411e-12
1.01358e-11
-7.22841e-11
2.60756e-12
1.44428e-11
-5.09046e-11
2.37622e-11
-3.55064e-11
-1.99174e-11
3.06509e-11
-1.99174e-11
-4.06831e-12
7.89313e-12
-1.82525e-10
9.26215e-12
1.38547e-11
-1.18943e-10
3.44166e-11
-6.89297e-11
-3.58594e-11
3.59079e-11
-3.58594e-11
-1.51121e-14
2.22862e-11
-4.94539e-10
2.30056e-11
3.12424e-11
-2.98363e-10
5.3831e-11
-1.15838e-10
-2.307e-11
1.83671e-11
-2.307e-11
-5.36618e-13
-6.75719e-11
-6.52744e-10
3.01654e-11
-1.30208e-11
-3.73592e-10
5.80025e-11
-1.44089e-10
1.78111e-11
1.29502e-11
1.78111e-11
-5.53484e-13
-2.60312e-10
-2.41497e-10
2.92165e-12
-1.10137e-10
-1.65513e-10
2.85966e-11
-9.43879e-11
-5.37903e-12
1.1861e-11
-5.37903e-12
2.19363e-11
-2.81734e-10
5.86029e-11
3.66179e-11
-1.33391e-10
-1.25321e-11
2.25059e-11
-2.36349e-11
-1.29019e-11
9.46867e-12
-1.29019e-11
1.44509e-11
-2.76884e-10
1.90789e-10
2.54052e-11
-1.34973e-10
8.63036e-11
2.75136e-11
2.99907e-11
9.16268e-13
2.17826e-11
9.16268e-13
3.60576e-12
-2.05103e-10
3.20766e-10
2.03178e-11
-9.3844e-11
1.32422e-10
3.12469e-11
8.11189e-11
4.46294e-11
3.05187e-11
4.46294e-11
-1.97039e-13
-9.47132e-11
4.75766e-10
-3.18278e-11
-4.17727e-11
3.07983e-10
2.63605e-11
1.34426e-10
5.11604e-11
1.92943e-11
5.11604e-11
4.69554e-12
-3.18487e-11
3.71924e-10
-4.89511e-11
-2.04047e-11
3.08338e-10
1.79082e-11
1.19056e-10
1.92474e-11
1.62005e-11
1.92474e-11
4.57519e-12
-1.02587e-11
1.55196e-10
-1.39724e-11
-9.95435e-12
1.21668e-10
1.38767e-11
7.05057e-11
1.46897e-11
1.00126e-11
1.46897e-11
3.55062e-12
6.84852e-14
8.93722e-11
-1.35006e-11
-1.75693e-12
7.50074e-11
1.00645e-11
4.89757e-11
6.01838e-12
7.35226e-12
6.01838e-12
2.59857e-12
1.65491e-12
3.90252e-11
-3.02967e-12
-4.01312e-13
3.38479e-11
7.16664e-12
2.82683e-11
4.87367e-12
4.7761e-12
4.87367e-12
2.06732e-12
2.48442e-12
2.18998e-11
-2.77509e-12
1.37642e-12
1.97423e-11
4.6662e-12
1.84151e-11
2.45917e-12
3.324e-12
2.45917e-12
1.56115e-12
1.87988e-12
1.08796e-11
-1.29059e-13
1.09019e-12
1.05349e-11
2.92937e-12
1.09243e-11
1.95123e-12
2.18527e-12
1.95123e-12
1.27812e-12
1.46213e-12
6.10251e-12
-2.78306e-15
1.0454e-12
6.15987e-12
1.74054e-12
6.80092e-12
1.22927e-12
1.38902e-12
1.22927e-12
1.00094e-12
9.1035e-13
3.45985e-12
4.9075e-13
6.32612e-13
3.69385e-12
9.51737e-13
4.13467e-12
9.76937e-13
7.57806e-13
9.76937e-13
8.26302e-13
5.06292e-13
2.11928e-12
4.63645e-13
3.50405e-13
2.32766e-12
4.34527e-13
2.64979e-12
6.39381e-13
6.39381e-13
6.27267e-13
1.21259e-12
4.75005e-13
1.36712e-12
1.5239e-12
-1.87086e-11
1.03958e-11
-1.18278e-12
-1.50406e-12
-1.08622e-10
-1.50406e-12
4.82074e-12
-6.44935e-11
-2.60099e-12
-3.22675e-11
-3.48691e-12
-7.22841e-11
1.01358e-11
-2.58411e-12
-1.10882e-12
-2.50972e-10
-1.10882e-12
2.75035e-11
-1.38353e-10
-5.65747e-12
-4.63139e-11
-7.87733e-12
-1.82525e-10
7.89313e-12
-4.06831e-12
1.59337e-11
-6.4789e-10
1.59337e-11
9.29741e-11
-3.30345e-10
-3.9912e-12
-6.11311e-11
-1.07728e-11
-4.94539e-10
2.22862e-11
-1.51121e-14
1.10629e-10
-1.85823e-09
1.10629e-10
3.13584e-10
-8.54964e-10
2.33021e-11
-1.49859e-11
-1.02908e-11
-6.52744e-10
-6.75719e-11
-5.36618e-13
1.50262e-10
-3.46424e-09
1.50262e-10
4.57418e-10
-1.56913e-09
3.34208e-11
5.23683e-11
-7.54756e-12
-2.41497e-10
-2.60312e-10
-5.53484e-13
1.42282e-12
-3.95008e-09
1.42282e-12
2.11797e-10
-1.9374e-09
-7.61857e-12
5.27379e-11
-1.56471e-11
5.86029e-11
-2.81734e-10
2.19363e-11
-5.64192e-11
-3.72003e-09
-5.64192e-11
-4.26878e-11
-1.95167e-09
-1.19998e-11
6.19952e-12
-2.05068e-11
1.90789e-10
-2.76884e-10
1.44509e-11
-3.4309e-11
-3.26984e-09
-3.4309e-11
-1.13085e-10
-1.78046e-09
-6.12758e-12
-2.74705e-11
-2.03363e-12
3.20766e-10
-2.05103e-10
3.60576e-12
-7.67385e-11
-2.47483e-09
-7.67385e-11
-1.8316e-10
-1.49927e-09
-4.23418e-11
-7.29237e-11
1.51073e-12
4.75766e-10
-9.47132e-11
-1.97039e-13
-8.05875e-11
-1.36212e-09
-8.05875e-11
-3.38871e-10
-9.14877e-10
-1.81311e-11
-9.67697e-11
8.19627e-12
3.71924e-10
-3.18487e-11
4.69554e-12
-2.2535e-11
-5.73205e-10
-2.2535e-11
-2.76692e-10
-3.78906e-10
2.65242e-11
-7.66867e-11
1.83993e-11
1.55196e-10
-1.02587e-11
4.57519e-12
5.0033e-12
-2.72819e-10
5.0033e-12
-7.79248e-11
-1.91727e-10
1.74164e-11
-4.96728e-11
1.99762e-11
8.93722e-11
6.84852e-14
3.55062e-12
9.13381e-12
-1.12342e-10
9.13381e-12
-4.30627e-11
-7.94004e-11
1.48774e-11
-2.99854e-11
1.74822e-11
3.90252e-11
1.65491e-12
2.59857e-12
9.1591e-12
-5.26096e-11
9.1591e-12
-8.33381e-12
-3.9155e-11
1.10955e-11
-1.78002e-11
1.39865e-11
2.18998e-11
2.48442e-12
2.06732e-12
6.49632e-12
-2.18027e-11
6.49632e-12
-3.40276e-12
-1.72585e-11
7.74489e-12
-9.86061e-12
1.0216e-11
1.08796e-11
1.87988e-12
1.56115e-12
4.89405e-12
-9.83153e-12
4.89405e-12
8.66433e-13
-8.39495e-12
5.69892e-12
-5.75669e-12
7.19812e-12
6.10251e-12
1.46213e-12
1.27812e-12
3.25071e-12
-4.12794e-12
3.25071e-12
1.0986e-12
-3.8847e-12
3.80175e-12
-3.25592e-12
4.87599e-12
3.45985e-12
9.1035e-13
1.00094e-12
2.30662e-12
-1.8215e-12
2.30662e-12
1.33635e-12
-1.92943e-12
2.70886e-12
-1.86203e-12
3.28926e-12
2.11928e-12
5.06292e-13
8.26302e-13
1.5994e-12
-7.81738e-13
1.5994e-12
1.04846e-12
-9.32609e-13
1.88178e-12
-1.03332e-12
2.27138e-12
1.21259e-12
6.27267e-13
1.05493e-12
1.05493e-12
8.1416e-13
1.22951e-12
1.40639e-12
-1.40245e-11
1.22924e-11
8.13273e-13
-2.60099e-12
-6.44935e-11
4.82074e-12
2.66111e-12
-4.57487e-11
2.66111e-12
-2.19179e-11
-5.70707e-13
-5.09046e-11
1.44428e-11
2.60756e-12
-5.65747e-12
-1.38353e-10
2.75035e-11
1.69841e-11
-9.10317e-11
1.69841e-11
-2.48767e-11
2.41331e-12
-1.18943e-10
1.38547e-11
9.26215e-12
-3.9912e-12
-3.30345e-10
9.29741e-11
5.81778e-11
-2.1537e-10
5.81778e-11
-2.31321e-11
1.06059e-11
-2.98363e-10
3.12424e-11
2.30056e-11
2.33021e-11
-8.54964e-10
3.13584e-10
1.94207e-10
-5.5718e-10
1.94207e-10
1.73743e-11
2.99459e-11
-3.73592e-10
-1.30208e-11
3.01654e-11
3.34208e-11
-1.56913e-09
4.57418e-10
2.75607e-10
-1.04155e-09
2.75607e-10
5.68585e-11
4.19053e-11
-1.65513e-10
-1.10137e-10
2.92165e-12
-7.61857e-12
-1.9374e-09
2.11797e-10
1.24461e-10
-1.30571e-09
1.24461e-10
3.54118e-11
1.8866e-11
-1.25321e-11
-1.33391e-10
3.66179e-11
-1.19998e-11
-1.95167e-09
-4.26878e-11
1.50599e-11
-1.35983e-09
1.50599e-11
3.04841e-12
-9.07361e-13
8.63036e-11
-1.34973e-10
2.54052e-11
-6.12758e-12
-1.78046e-09
-1.13085e-10
-4.22186e-11
-1.28765e-09
-4.22186e-11
-1.81855e-11
-5.57297e-12
1.32422e-10
-9.3844e-11
2.03178e-11
-4.23418e-11
-1.49927e-09
-1.8316e-10
-3.93108e-11
-1.29371e-09
-3.93108e-11
-7.04742e-11
-1.53531e-11
3.07983e-10
-4.17727e-11
-3.18278e-11
-1.81311e-11
-9.14877e-10
-3.38871e-10
-2.15803e-10
-8.98367e-10
-2.15803e-10
-8.70396e-11
-4.59693e-11
3.08338e-10
-2.04047e-11
-4.89511e-11
2.65242e-11
-3.78906e-10
-2.76692e-10
-2.45617e-10
-3.54084e-10
-2.45617e-10
-5.09155e-11
-3.99561e-11
1.21668e-10
-9.95435e-12
-1.39724e-11
1.74164e-11
-1.91727e-10
-7.79248e-11
-6.51565e-11
-1.88938e-10
-6.51565e-11
-3.28491e-11
-3.78026e-12
7.50074e-11
-1.75693e-12
-1.35006e-11
1.48774e-11
-7.94004e-11
-4.30627e-11
-4.16885e-11
-7.58065e-11
-4.16885e-11
-1.97009e-11
1.67658e-12
3.38479e-11
-4.01312e-13
-3.02967e-12
1.10955e-11
-3.9155e-11
-8.33381e-12
-7.18678e-12
-3.92419e-11
-7.18678e-12
-1.27416e-11
7.86983e-12
1.97423e-11
1.37642e-12
-2.77509e-12
7.74489e-12
-1.72585e-11
-3.40276e-12
-3.17349e-12
-1.74052e-11
-3.17349e-12
-8.1204e-12
6.35647e-12
1.05349e-11
1.09019e-12
-1.29059e-13
5.69892e-12
-8.39495e-12
8.66433e-13
1.47142e-12
-8.95016e-12
1.47142e-12
-5.36977e-12
5.40131e-12
6.15987e-12
1.0454e-12
-2.78304e-15
3.80175e-12
-3.8847e-12
1.0986e-12
1.53534e-12
-4.41732e-12
1.53534e-12
-3.47555e-12
3.80206e-12
3.69385e-12
6.32612e-13
4.9075e-13
2.70886e-12
-1.92943e-12
1.33635e-12
1.67851e-12
-2.35661e-12
1.67851e-12
-2.20358e-12
2.69208e-12
2.32766e-12
3.50405e-13
4.63645e-13
1.88178e-12
-9.32609e-13
1.04846e-12
1.30836e-12
-1.20977e-12
1.30836e-12
-1.31299e-12
1.9049e-12
1.36712e-12
4.75005e-13
1.22951e-12
8.1416e-13
9.70212e-13
9.70212e-13
1.20747e-12
-1.15896e-11
1.74043e-11
-3.48691e-12
-3.22675e-11
-5.70707e-13
-2.19179e-11
-1.76419e-11
-3.55064e-11
2.37622e-11
-7.87733e-12
-4.63139e-11
2.41331e-12
-2.48767e-11
-1.31207e-11
-6.89297e-11
3.44166e-11
-1.07728e-11
-6.11311e-11
1.06059e-11
-2.31321e-11
-6.20905e-15
-1.15838e-10
5.3831e-11
-1.02908e-11
-1.49859e-11
2.99459e-11
1.73743e-11
3.28766e-11
-1.44089e-10
5.80025e-11
-7.54756e-12
5.23683e-11
4.19053e-11
5.68585e-11
7.64411e-11
-9.43879e-11
2.85966e-11
-1.56471e-11
5.27379e-11
1.8866e-11
3.54118e-11
1.05966e-10
-2.36349e-11
2.25059e-11
-2.05068e-11
6.19952e-12
-9.07361e-13
3.04841e-12
1.16281e-10
2.99907e-11
2.75136e-11
-2.03363e-12
-2.74705e-11
-5.57297e-12
-1.81855e-11
1.03989e-10
8.11189e-11
3.12469e-11
1.51073e-12
-7.29237e-11
-1.53531e-11
-7.04742e-11
6.59369e-11
1.34426e-10
2.63605e-11
8.19627e-12
-9.67697e-11
-4.59693e-11
-8.70396e-11
2.1526e-11
1.19056e-10
1.79082e-11
1.83993e-11
-7.66867e-11
-3.99561e-11
-5.09155e-11
-2.5094e-13
7.05057e-11
1.38767e-11
1.99762e-11
-4.96728e-11
-3.78026e-12
-3.28491e-11
-1.03144e-11
4.89757e-11
1.00645e-11
1.74822e-11
-2.99854e-11
1.67658e-12
-1.97009e-11
-1.46303e-11
2.82683e-11
7.16664e-12
1.39865e-11
-1.78002e-11
7.86983e-12
-1.27416e-11
-1.2925e-11
1.84151e-11
4.6662e-12
1.0216e-11
-9.86061e-12
6.35647e-12
-8.1204e-12
-1.01685e-11
1.09243e-11
2.92937e-12
7.19812e-12
-5.75669e-12
5.40131e-12
-5.36977e-12
-7.3514e-12
6.80092e-12
1.74054e-12
4.87599e-12
-3.25592e-12
3.80206e-12
-3.47555e-12
-5.02873e-12
4.13467e-12
9.51737e-13
3.28926e-12
-1.86203e-12
2.69208e-12
-2.20358e-12
-3.2796e-12
2.64979e-12
4.34527e-13
2.27138e-12
-1.03332e-12
1.9049e-12
-1.31299e-12
-1.93585e-12
1.5239e-12
1.40639e-12
1.20747e-12
)
;

boundaryField
{
    inlet
    {
        type            calculated;
        value           nonuniform List<scalar> 
16
(
3.13275e-13
1.48647e-13
7.40229e-14
1.40142e-13
1.48647e-13
-4.66412e-13
-5.54229e-13
-5.93591e-13
7.40229e-14
-5.54229e-13
-6.91172e-13
-7.48655e-13
1.40142e-13
-5.93591e-13
-7.48655e-13
-1.06258e-12
)
;
    }
    outlet
    {
        type            calculated;
        value           nonuniform List<scalar> 
16
(
-2.42122e-11
-1.10598e-11
-1.20454e-11
-1.50951e-11
-1.10598e-11
7.42126e-11
4.67451e-11
2.66403e-11
-1.20454e-11
4.67451e-11
3.52245e-11
2.0338e-11
-1.50951e-11
2.66403e-11
2.0338e-11
1.82725e-11
)
;
    }
    walls
    {
        type            calculated;
        value           nonuniform List<scalar> 
320
(
3.52168e-12
9.43492e-12
1.89969e-11
3.32309e-11
3.18404e-11
-1.51027e-11
5.92369e-12
1.4098e-11
-7.07325e-12
-4.89974e-11
-4.55481e-11
-1.77005e-11
-1.15957e-11
-4.68821e-12
-3.58559e-12
-1.73312e-12
-1.38187e-12
-8.31147e-13
-6.61329e-13
-4.17115e-13
1.63068e-11
6.41214e-11
1.68919e-10
4.44302e-10
7.20069e-10
4.52602e-10
-6.44966e-11
-2.22991e-10
-3.95237e-10
-5.41329e-10
-3.88324e-10
-1.62114e-10
-8.85604e-11
-3.71918e-11
-1.99229e-11
-9.37706e-12
-5.01165e-12
-2.67974e-12
-1.56459e-12
-8.42836e-13
1.17815e-11
4.35624e-11
1.062e-10
2.57954e-10
3.87153e-10
2.59154e-10
2.11051e-11
-9.56761e-11
-1.90263e-10
-3.28423e-10
-2.76059e-10
-1.1357e-10
-6.61536e-11
-2.95753e-11
-1.66776e-11
-8.55847e-12
-4.83418e-12
-2.77087e-12
-1.68279e-12
-9.3848e-13
9.50456e-12
2.99226e-11
6.04612e-11
1.04492e-10
1.46049e-10
1.18264e-10
3.69053e-11
-3.01283e-11
-8.97004e-11
-1.39708e-10
-1.14715e-10
-6.68693e-11
-4.49914e-11
-2.48162e-11
-1.55315e-11
-8.79659e-12
-5.27394e-12
-3.06413e-12
-1.89066e-12
-1.03794e-12
5.89085e-13
1.8336e-12
7.07615e-12
1.49374e-11
2.40339e-11
8.45113e-12
2.94383e-11
2.05351e-11
2.51659e-11
-2.16599e-11
-4.48398e-11
-1.35773e-11
-1.36728e-11
-3.58387e-12
-3.1583e-12
-5.19932e-13
-3.40929e-13
2.09005e-13
2.21719e-13
2.83433e-13
2.34528e-12
1.39207e-11
4.96345e-11
1.61891e-10
2.53523e-10
1.32687e-10
7.22555e-13
-4.73905e-11
-5.8099e-11
-1.88795e-10
-1.96118e-10
-5.44093e-11
-3.12566e-11
-6.23721e-12
-3.14323e-12
4.8869e-13
5.22751e-13
7.87881e-13
5.98168e-13
4.91949e-13
1.32482e-12
9.6522e-12
3.50544e-11
1.13464e-10
1.8667e-10
1.11395e-10
2.78238e-11
-1.74454e-11
2.98418e-11
-1.45072e-10
-2.23386e-10
-5.94664e-11
-3.90311e-11
-8.02938e-12
-3.93524e-12
5.17604e-13
7.15062e-13
1.00372e-12
7.84258e-13
6.04796e-13
-8.85999e-13
1.52684e-13
4.04869e-12
1.35044e-11
2.01231e-11
4.10358e-12
-6.06493e-12
5.73262e-13
3.67275e-12
-2.37638e-11
-2.90677e-11
1.25145e-12
3.83456e-12
7.01716e-12
4.97823e-12
3.99275e-12
2.64072e-12
1.81752e-12
1.23303e-12
7.70836e-13
3.52168e-12
9.43492e-12
1.89969e-11
3.32309e-11
3.18404e-11
-1.51027e-11
5.92369e-12
1.4098e-11
-7.07325e-12
-4.89974e-11
-4.55481e-11
-1.77005e-11
-1.15957e-11
-4.68821e-12
-3.58559e-12
-1.73312e-12
-1.38187e-12
-8.31147e-13
-6.61329e-13
-4.17115e-13
1.63068e-11
6.41214e-11
1.68919e-10
4.44302e-10
7.20069e-10
4.52602e-10
-6.44966e-11
-2.22991e-10
-3.95237e-10
-5.41329e-10
-3.88324e-10
-1.62114e-10
-8.85604e-11
-3.71918e-11
-1.99229e-11
-9.37706e-12
-5.01165e-12
-2.67974e-12
-1.56459e-12
-8.42836e-13
1.17815e-11
4.35624e-11
1.062e-10
2.57954e-10
3.87153e-10
2.59154e-10
2.11051e-11
-9.56761e-11
-1.90263e-10
-3.28423e-10
-2.76059e-10
-1.1357e-10
-6.61536e-11
-2.95753e-11
-1.66776e-11
-8.55847e-12
-4.83418e-12
-2.77087e-12
-1.68279e-12
-9.3848e-13
9.50456e-12
2.99226e-11
6.04612e-11
1.04492e-10
1.46049e-10
1.18264e-10
3.69053e-11
-3.01283e-11
-8.97004e-11
-1.39708e-10
-1.14715e-10
-6.68693e-11
-4.49914e-11
-2.48162e-11
-1.55315e-11
-8.79659e-12
-5.27394e-12
-3.06413e-12
-1.89066e-12
-1.03794e-12
5.89085e-13
1.8336e-12
7.07615e-12
1.49374e-11
2.40339e-11
8.45113e-12
2.94383e-11
2.05351e-11
2.51659e-11
-2.16599e-11
-4.48398e-11
-1.35773e-11
-1.36728e-11
-3.58387e-12
-3.1583e-12
-5.19932e-13
-3.40929e-13
2.09005e-13
2.21719e-13
2.83433e-13
2.34528e-12
1.39207e-11
4.96345e-11
1.61891e-10
2.53523e-10
1.32687e-10
7.22555e-13
-4.73905e-11
-5.8099e-11
-1.88795e-10
-1.96118e-10
-5.44093e-11
-3.12566e-11
-6.23721e-12
-3.14323e-12
4.8869e-13
5.22751e-13
7.87881e-13
5.98168e-13
4.91949e-13
1.32482e-12
9.6522e-12
3.50544e-11
1.13464e-10
1.8667e-10
1.11395e-10
2.78238e-11
-1.74454e-11
2.98418e-11
-1.45072e-10
-2.23386e-10
-5.94664e-11
-3.90311e-11
-8.02938e-12
-3.93524e-12
5.17604e-13
7.15062e-13
1.00372e-12
7.84258e-13
6.04796e-13
-8.85999e-13
1.52684e-13
4.04869e-12
1.35044e-11
2.01231e-11
4.10358e-12
-6.06493e-12
5.73262e-13
3.67275e-12
-2.37638e-11
-2.90677e-11
1.25145e-12
3.83456e-12
7.01716e-12
4.97823e-12
3.99275e-12
2.64072e-12
1.81752e-12
1.23303e-12
7.70836e-13
)
;
    }
}


// ************************************************************************* //
