/*--------------------------------*- C++ -*----------------------------------*\
| =========                 |                                                 |
| \\      /  F ield         | OpenFOAM: The Open Source CFD Toolbox           |
|  \\    /   O peration     | Version:  5.x                                   |
|   \\  /    A nd           | Web:      www.OpenFOAM.org                      |
|    \\/     M anipulation  |                                                 |
\*---------------------------------------------------------------------------*/
FoamFile
{
    version     2.0;
    format      ascii;
    class       volVectorField;
    location    "0.12";
    object      U;
}
// * * * * * * * * * * * * * * * * * * * * * * * * * * * * * * * * * * * * * //

dimensions      [0 1 -1 0 0 0 0];

internalField   nonuniform List<vector> 
320
(
(-5.77712e-07 3.8487e-06 -5.77712e-07)
(-5.74641e-07 1.75529e-06 -2.74053e-06)
(1.27005e-07 1.91698e-06 -1.96764e-06)
(9.58695e-08 2.40262e-06 -1.58331e-06)
(-1.54128e-06 4.03806e-06 -1.54128e-06)
(-1.46595e-06 1.55514e-06 -1.07761e-05)
(4.7092e-07 1.86181e-06 -7.26855e-06)
(2.95894e-07 2.9809e-06 -4.9772e-06)
(-3.02833e-06 4.61243e-06 -3.02833e-06)
(-2.79842e-06 7.4712e-07 -2.82086e-05)
(1.54998e-06 2.00973e-06 -1.76244e-05)
(1.12084e-06 4.26398e-06 -1.00196e-05)
(-5.43896e-06 5.30384e-06 -5.43896e-06)
(-4.21379e-06 3.11434e-06 -7.56508e-05)
(4.0718e-06 3.53207e-06 -4.35958e-05)
(2.48174e-06 6.55329e-06 -1.73486e-05)
(-4.88061e-06 5.11763e-06 -4.88061e-06)
(-4.55276e-06 1.38225e-06 -0.000116428)
(4.82091e-06 4.42342e-06 -6.23818e-05)
(3.89502e-06 9.10856e-06 -2.37146e-05)
(2.84748e-06 1.46994e-06 2.84748e-06)
(6.2357e-07 -2.76774e-05 -6.77128e-05)
(-2.36661e-07 -9.74297e-06 -3.93996e-05)
(1.33532e-06 7.31133e-06 -1.85884e-05)
(-1.01167e-06 1.48801e-06 -1.01167e-06)
(-2.07622e-07 -4.9843e-05 1.19341e-05)
(6.1234e-06 -2.25459e-05 -2.35059e-06)
(4.77108e-06 3.17889e-06 -5.53084e-06)
(-2.25957e-06 1.53856e-06 -2.25957e-06)
(-1.07141e-06 -5.15589e-05 3.60355e-05)
(4.79952e-06 -2.64474e-05 1.55717e-05)
(3.23067e-06 2.86246e-06 5.08496e-06)
(1.17099e-06 1.13983e-06 1.17099e-06)
(-9.46792e-07 -4.47312e-05 6.36207e-05)
(1.942e-06 -2.09004e-05 3.06368e-05)
(3.98598e-06 4.85134e-06 1.45823e-05)
(7.86101e-06 4.55e-06 7.86101e-06)
(6.04706e-06 -2.64819e-05 8.69097e-05)
(-6.1094e-06 -1.2595e-05 5.27095e-05)
(-3.51283e-06 4.11903e-06 2.25554e-05)
(7.30415e-06 4.02069e-06 7.30415e-06)
(8.36665e-06 -6.7698e-06 6.22981e-05)
(-7.11152e-06 -2.68216e-06 4.42647e-05)
(-7.22002e-06 3.32685e-06 1.84989e-05)
(2.84065e-06 2.2424e-06 2.84065e-06)
(3.4044e-06 -4.09313e-06 2.6055e-05)
(-2.03183e-06 -3.93795e-06 1.82477e-05)
(-2.18825e-06 2.07424e-06 1.08033e-05)
(1.85851e-06 2.3117e-06 1.85851e-06)
(2.66114e-06 2.90444e-07 1.42364e-05)
(-1.66448e-06 2.40249e-07 1.0631e-05)
(-2.204e-06 1.89685e-06 7.26822e-06)
(7.52315e-07 1.05037e-06 7.52315e-07)
(1.13752e-06 -2.47639e-07 5.99015e-06)
(-3.26581e-07 -6.728e-07 4.76285e-06)
(-5.76591e-07 1.13171e-06 4.01514e-06)
(5.75988e-07 1.04782e-06 5.75988e-07)
(8.83311e-07 6.54574e-07 3.21281e-06)
(-2.70589e-07 4.84679e-07 2.68668e-06)
(-5.09515e-07 9.38407e-07 2.51457e-06)
(2.79071e-07 5.09732e-07 2.79071e-07)
(4.54066e-07 1.82032e-07 1.51451e-06)
(4.7586e-08 2.08067e-08 1.3813e-06)
(-8.34693e-08 4.78513e-07 1.42581e-06)
(2.2276e-07 4.52981e-07 2.2276e-07)
(3.50052e-07 3.46085e-07 8.10608e-07)
(5.45757e-08 2.74718e-07 7.81095e-07)
(-5.4647e-08 3.70255e-07 8.55659e-07)
(1.34469e-07 2.32194e-07 1.34469e-07)
(2.23665e-07 1.34572e-07 4.34009e-07)
(1.09697e-07 8.13918e-08 4.483e-07)
(3.4054e-08 1.65695e-07 4.97727e-07)
(1.07118e-07 1.75857e-07 1.07118e-07)
(1.75519e-07 1.31511e-07 2.53848e-07)
(9.87678e-08 1.0103e-07 2.72759e-07)
(3.62467e-08 1.09935e-07 3.075e-07)
(6.78202e-08 5.06958e-08 6.78202e-08)
(1.14305e-07 2.41341e-08 1.37077e-07)
(8.96906e-08 1.21671e-08 1.52504e-07)
(4.61378e-08 2.27638e-08 1.69255e-07)
(-2.74053e-06 1.75529e-06 -5.74641e-07)
(-1.9815e-06 -1.20116e-05 -1.9815e-06)
(1.18605e-06 -7.54083e-06 -1.68427e-06)
(3.96787e-07 -4.27722e-06 -1.4487e-06)
(-1.07761e-05 1.55514e-06 -1.46595e-06)
(-7.24026e-06 -2.48454e-05 -7.24026e-06)
(6.03405e-06 -1.44739e-05 -5.85638e-06)
(2.33851e-06 -5.81697e-06 -4.23128e-06)
(-2.82086e-05 7.4712e-07 -2.79842e-06)
(-1.74204e-05 -6.60006e-05 -1.74204e-05)
(1.94083e-05 -3.54577e-05 -1.30611e-05)
(8.21617e-06 -8.42812e-06 -7.85646e-06)
(-7.56508e-05 3.11434e-06 -4.21379e-06)
(-4.2352e-05 -0.000100591 -4.2352e-05)
(6.22807e-05 -4.90732e-05 -3.04133e-05)
(2.76867e-05 -7.71988e-06 -1.2558e-05)
(-0.000116428 1.38225e-06 -4.55276e-06)
(-6.18799e-05 -0.000480208 -6.18799e-05)
(9.83121e-05 -0.000230364 -4.32539e-05)
(4.07033e-05 1.87625e-06 -1.56308e-05)
(-6.77128e-05 -2.76774e-05 6.2357e-07)
(-4.09226e-05 -0.000587697 -4.09226e-05)
(4.97706e-05 -0.000294508 -2.93347e-05)
(1.94824e-05 1.01428e-05 -1.21607e-05)
(1.19341e-05 -4.9843e-05 -2.07622e-07)
(-8.19656e-07 -0.00056092 -8.19656e-07)
(-1.08585e-05 -0.000293005 -5.0671e-06)
(-4.74979e-07 5.12039e-06 -4.76316e-06)
(3.60355e-05 -5.15589e-05 -1.07141e-06)
(1.71809e-05 -0.000548205 1.71809e-05)
(-2.58217e-05 -0.000297669 8.11527e-06)
(-7.63618e-06 -3.84898e-06 2.296e-06)
(6.36207e-05 -4.47312e-05 -9.46792e-07)
(2.73754e-05 -0.000450206 2.73754e-05)
(-4.72907e-05 -0.000253867 7.40774e-06)
(-9.30059e-06 -6.78886e-06 7.49428e-06)
(8.69097e-05 -2.64819e-05 6.04706e-06)
(5.04284e-05 -0.000297794 5.04284e-05)
(-7.18483e-05 -0.000207531 3.75015e-05)
(-3.02138e-05 -1.9479e-05 1.54126e-05)
(6.22981e-05 -6.7698e-06 8.36665e-06)
(4.63233e-05 -0.000113955 4.63233e-05)
(-5.19076e-05 -7.32964e-05 4.67948e-05)
(-3.13751e-05 -1.33981e-05 1.55864e-05)
(2.6055e-05 -4.09313e-06 3.4044e-06)
(1.91645e-05 -6.15421e-05 1.91645e-05)
(-1.6981e-05 -4.54784e-05 1.77747e-05)
(-8.69343e-06 -1.03973e-05 9.22618e-06)
(1.42364e-05 2.90444e-07 2.66114e-06)
(1.17441e-05 -2.18021e-05 1.17441e-05)
(-8.25427e-06 -1.48687e-05 1.1456e-05)
(-4.99416e-06 -5.16123e-06 6.64636e-06)
(5.99015e-06 -2.47639e-07 1.13752e-06)
(5.31629e-06 -1.244e-05 5.31629e-06)
(-1.94797e-06 -9.64859e-06 5.16171e-06)
(-9.87327e-07 -3.87298e-06 4.00428e-06)
(3.21281e-06 6.54574e-07 8.83311e-07)
(3.09115e-06 -4.14671e-06 3.09115e-06)
(-7.18866e-07 -3.19155e-06 3.08805e-06)
(-4.95793e-07 -1.70668e-06 2.70151e-06)
(1.51451e-06 1.82032e-07 4.54066e-07)
(1.61771e-06 -2.4199e-06 1.61771e-06)
(1.32098e-07 -2.07719e-06 1.68854e-06)
(8.43508e-08 -1.2414e-06 1.67198e-06)
(8.10608e-07 3.46085e-07 3.50052e-07)
(9.43001e-07 -7.8703e-07 9.43001e-07)
(2.10822e-07 -7.15576e-07 1.00985e-06)
(8.77638e-08 -5.74257e-07 1.07207e-06)
(4.34009e-07 1.34572e-07 2.23665e-07)
(5.61568e-07 -4.50935e-07 5.61568e-07)
(2.47586e-07 -4.61514e-07 6.24346e-07)
(1.29193e-07 -3.97224e-07 6.75904e-07)
(2.53848e-07 1.31511e-07 1.75519e-07)
(3.55794e-07 -1.54365e-07 3.55794e-07)
(2.01097e-07 -1.87004e-07 4.01542e-07)
(9.79707e-08 -2.05217e-07 4.44804e-07)
(1.37077e-07 2.41341e-08 1.14305e-07)
(2.08634e-07 -7.5562e-08 2.08634e-07)
(1.51477e-07 -8.95134e-08 2.3889e-07)
(8.03432e-08 -9.64388e-08 2.59708e-07)
(-1.96764e-06 1.91698e-06 1.27005e-07)
(-1.68427e-06 -7.54083e-06 1.18605e-06)
(5.57827e-07 -5.67478e-06 5.57827e-07)
(2.27145e-07 -3.25672e-06 2.31952e-08)
(-7.26855e-06 1.86181e-06 4.7092e-07)
(-5.85638e-06 -1.44739e-05 6.03405e-06)
(3.222e-06 -9.94839e-06 3.222e-06)
(1.62592e-06 -3.6242e-06 8.79035e-07)
(-1.76244e-05 2.00973e-06 1.54998e-06)
(-1.30611e-05 -3.54577e-05 1.94083e-05)
(1.07701e-05 -2.31836e-05 1.07701e-05)
(5.8088e-06 -4.15401e-06 3.03109e-06)
(-4.35958e-05 3.53207e-06 4.0718e-06)
(-3.04133e-05 -4.90732e-05 6.22807e-05)
(3.35959e-05 -3.1569e-05 3.35959e-05)
(1.93937e-05 -1.41728e-06 7.43259e-06)
(-6.23818e-05 4.42342e-06 4.82091e-06)
(-4.32539e-05 -0.000230364 9.83121e-05)
(5.12615e-05 -0.000152538 5.12615e-05)
(3.00261e-05 5.76127e-06 1.18829e-05)
(-3.93996e-05 -9.74297e-06 -2.36661e-07)
(-2.93347e-05 -0.000294508 4.97706e-05)
(2.93224e-05 -0.000198792 2.93224e-05)
(1.67157e-05 8.1536e-06 7.52361e-06)
(-2.35059e-06 -2.25459e-05 6.1234e-06)
(-5.0671e-06 -0.000293005 -1.08585e-05)
(3.14805e-06 -0.000199771 3.14805e-06)
(3.91783e-06 3.20147e-06 4.2836e-07)
(1.55717e-05 -2.64474e-05 4.79952e-06)
(8.11527e-06 -0.000297669 -2.58217e-05)
(-9.32003e-06 -0.000213265 -9.32003e-06)
(-2.86273e-06 -2.76933e-06 -2.36056e-06)
(3.06368e-05 -2.09004e-05 1.942e-06)
(7.40774e-06 -0.000253867 -4.72907e-05)
(-1.86205e-05 -0.000185798 -1.86205e-05)
(4.75689e-06 -4.05851e-06 -6.53548e-06)
(5.27095e-05 -1.2595e-05 -6.1094e-06)
(3.75015e-05 -0.000207531 -7.18483e-05)
(-4.19676e-05 -0.000210424 -4.19676e-05)
(-2.32193e-05 -2.13472e-05 -1.18531e-05)
(4.42647e-05 -2.68216e-06 -7.11152e-06)
(4.67948e-05 -7.32964e-05 -5.19076e-05)
(-3.74456e-05 -6.32466e-05 -3.74456e-05)
(-3.57473e-05 -8.65662e-06 -8.61115e-06)
(1.82477e-05 -3.93795e-06 -2.03183e-06)
(1.77747e-05 -4.54784e-05 -1.6981e-05)
(-1.13561e-05 -4.59016e-05 -1.13561e-05)
(-9.50576e-06 -7.74088e-06 -1.79357e-06)
(1.0631e-05 2.40249e-07 -1.66448e-06)
(1.1456e-05 -1.48687e-05 -8.25427e-06)
(-6.19878e-06 -1.34218e-05 -6.19878e-06)
(-6.24685e-06 -3.35914e-06 -2.82066e-07)
(4.76285e-06 -6.728e-07 -3.26581e-07)
(5.16171e-06 -9.64859e-06 -1.94797e-06)
(-1.20372e-06 -9.72932e-06 -1.20372e-06)
(-1.27594e-06 -2.87272e-06 1.00273e-06)
(2.68668e-06 4.84679e-07 -2.70589e-07)
(3.08805e-06 -3.19155e-06 -7.18866e-07)
(-3.61518e-07 -3.12667e-06 -3.61518e-07)
(-6.25151e-07 -1.34838e-06 9.37461e-07)
(1.3813e-06 2.08067e-08 4.7586e-08)
(1.68854e-06 -2.07719e-06 1.32098e-07)
(3.1316e-07 -2.17687e-06 3.1316e-07)
(8.85541e-08 -1.146e-06 8.62053e-07)
(7.81095e-07 2.74718e-07 5.45757e-08)
(1.00985e-06 -7.15576e-07 2.10822e-07)
(3.19501e-07 -8.0302e-07 3.19501e-07)
(1.18226e-07 -6.02777e-07 6.36975e-07)
(4.483e-07 8.13918e-08 1.09697e-07)
(6.24346e-07 -4.61514e-07 2.47586e-07)
(3.18093e-07 -5.42261e-07 3.18093e-07)
(1.63891e-07 -4.54399e-07 4.65898e-07)
(2.72759e-07 1.0103e-07 9.87678e-08)
(4.01542e-07 -1.87004e-07 2.01097e-07)
(2.50207e-07 -2.49912e-07 2.50207e-07)
(1.27912e-07 -2.65668e-07 3.38256e-07)
(1.52504e-07 1.21671e-08 8.96906e-08)
(2.3889e-07 -8.95134e-08 1.51477e-07)
(1.7952e-07 -1.11349e-07 1.7952e-07)
(9.8573e-08 -1.21167e-07 2.14777e-07)
(-1.58331e-06 2.40262e-06 9.58695e-08)
(-1.4487e-06 -4.27722e-06 3.96787e-07)
(2.31952e-08 -3.25672e-06 2.27145e-07)
(-1.44677e-07 -2.91118e-06 -1.44677e-07)
(-4.9772e-06 2.9809e-06 2.95894e-07)
(-4.23128e-06 -5.81697e-06 2.33851e-06)
(8.79035e-07 -3.6242e-06 1.62592e-06)
(3.07153e-08 -2.39276e-06 3.07153e-08)
(-1.00196e-05 4.26398e-06 1.12084e-06)
(-7.85646e-06 -8.42812e-06 8.21617e-06)
(3.03109e-06 -4.15401e-06 5.8088e-06)
(6.68185e-07 -1.45274e-06 6.68185e-07)
(-1.73486e-05 6.55329e-06 2.48174e-06)
(-1.2558e-05 -7.71988e-06 2.76867e-05)
(7.43259e-06 -1.41728e-06 1.93937e-05)
(2.27249e-06 1.67576e-06 2.27249e-06)
(-2.37146e-05 9.10856e-06 3.89502e-06)
(-1.56308e-05 1.87625e-06 4.07033e-05)
(1.18829e-05 5.76127e-06 3.00261e-05)
(3.1777e-06 7.93651e-06 3.1777e-06)
(-1.85884e-05 7.31133e-06 1.33532e-06)
(-1.21607e-05 1.01428e-05 1.94824e-05)
(7.52361e-06 8.1536e-06 1.67157e-05)
(3.60586e-07 1.4295e-05 3.60586e-07)
(-5.53084e-06 3.17889e-06 4.77108e-06)
(-4.76316e-06 5.12039e-06 -4.74979e-07)
(4.2836e-07 3.20147e-06 3.91783e-06)
(-9.51213e-07 1.74903e-05 -9.51213e-07)
(5.08496e-06 2.86246e-06 3.23067e-06)
(2.296e-06 -3.84898e-06 -7.63618e-06)
(-2.36056e-06 -2.76933e-06 -2.86273e-06)
(1.14166e-07 1.68275e-05 1.14166e-07)
(1.45823e-05 4.85134e-06 3.98598e-06)
(7.49428e-06 -6.78886e-06 -9.30059e-06)
(-6.53548e-06 -4.05851e-06 4.75689e-06)
(6.44355e-07 1.39188e-05 6.44355e-07)
(2.25554e-05 4.11903e-06 -3.51283e-06)
(1.54126e-05 -1.9479e-05 -3.02138e-05)
(-1.18531e-05 -2.13472e-05 -2.32193e-05)
(-3.77064e-06 5.0937e-06 -3.77064e-06)
(1.84989e-05 3.32685e-06 -7.22002e-06)
(1.55864e-05 -1.33981e-05 -3.13751e-05)
(-8.61115e-06 -8.65662e-06 -3.57473e-05)
(-4.63506e-06 1.06132e-06 -4.63506e-06)
(1.08033e-05 2.07424e-06 -2.18825e-06)
(9.22618e-06 -1.03973e-05 -8.69343e-06)
(-1.79357e-06 -7.74088e-06 -9.50576e-06)
(2.33619e-07 -1.14542e-06 2.33619e-07)
(7.26822e-06 1.89685e-06 -2.204e-06)
(6.64636e-06 -5.16123e-06 -4.99416e-06)
(-2.82066e-07 -3.35914e-06 -6.24685e-06)
(6.38058e-07 -2.03314e-06 6.38058e-07)
(4.01514e-06 1.13171e-06 -5.76591e-07)
(4.00428e-06 -3.87298e-06 -9.87327e-07)
(1.00273e-06 -2.87272e-06 -1.27594e-06)
(1.14287e-06 -2.29265e-06 1.14287e-06)
(2.51457e-06 9.38407e-07 -5.09515e-07)
(2.70151e-06 -1.70668e-06 -4.95793e-07)
(9.37461e-07 -1.34838e-06 -6.25151e-07)
(8.1239e-07 -1.64654e-06 8.1239e-07)
(1.42581e-06 4.78513e-07 -8.34693e-08)
(1.67198e-06 -1.2414e-06 8.43508e-08)
(8.62053e-07 -1.146e-06 8.85541e-08)
(6.50012e-07 -1.36323e-06 6.50012e-07)
(8.55659e-07 3.70255e-07 -5.4647e-08)
(1.07207e-06 -5.74257e-07 8.77638e-08)
(6.36975e-07 -6.02777e-07 1.18226e-07)
(4.30505e-07 -8.69815e-07 4.30505e-07)
(4.97727e-07 1.65695e-07 3.4054e-08)
(6.75904e-07 -3.97224e-07 1.29193e-07)
(4.65898e-07 -4.54399e-07 1.63891e-07)
(2.96077e-07 -6.21055e-07 2.96077e-07)
(3.075e-07 1.09935e-07 3.62467e-08)
(4.44804e-07 -2.05217e-07 9.79707e-08)
(3.38256e-07 -2.65668e-07 1.27912e-07)
(2.0118e-07 -3.87654e-07 2.0118e-07)
(1.69255e-07 2.27638e-08 4.61378e-08)
(2.59708e-07 -9.64388e-08 8.03432e-08)
(2.14777e-07 -1.21167e-07 9.8573e-08)
(1.25847e-07 -1.72768e-07 1.25847e-07)
)
;

boundaryField
{
    inlet
    {
        type            fixedValue;
        value           uniform (0 0 0);
    }
    outlet
    {
        type            zeroGradient;
    }
    walls
    {
        type            fixedValue;
        value           uniform (0 0 0);
    }
}


// ************************************************************************* //
