/*--------------------------------*- C++ -*----------------------------------*\
| =========                 |                                                 |
| \\      /  F ield         | OpenFOAM: The Open Source CFD Toolbox           |
|  \\    /   O peration     | Version:  5.x                                   |
|   \\  /    A nd           | Web:      www.OpenFOAM.org                      |
|    \\/     M anipulation  |                                                 |
\*---------------------------------------------------------------------------*/
FoamFile
{
    version     2.0;
    format      ascii;
    class       volVectorField;
    location    "0.12";
    object      Us;
}
// * * * * * * * * * * * * * * * * * * * * * * * * * * * * * * * * * * * * * //

dimensions      [0 1 -1 0 0 0 0];

internalField   nonuniform List<vector> 
320
(
(-1.1514e-14 -2.51519e-11 -1.1514e-14)
(-1.40443e-13 -3.06793e-10 -1.40443e-13)
(-1.33453e-13 -2.91522e-10 -1.33453e-13)
(-3.81322e-15 -8.32982e-12 -3.81322e-15)
(-5.53241e-13 -1.20853e-09 -5.53241e-13)
(-8.12224e-12 -1.77427e-08 -8.12224e-12)
(-7.81641e-12 -1.70746e-08 -7.81641e-12)
(-2.20452e-13 -4.81568e-10 -2.20452e-13)
(-2.43803e-11 -5.32578e-08 -2.43803e-11)
(-4.47489e-10 -9.77523e-07 -4.47489e-10)
(-4.36122e-10 -9.52691e-07 -4.36122e-10)
(-1.21461e-11 -2.65327e-08 -1.21461e-11)
(-8.95289e-10 -1.95572e-06 -8.95289e-10)
(-2.19106e-08 -4.78628e-05 -2.19106e-08)
(-2.16299e-08 -4.72496e-05 -2.16299e-08)
(-5.95168e-10 -1.30012e-06 -5.95168e-10)
(-2.19206e-08 -4.78847e-05 -2.19206e-08)
(-8.04527e-07 -0.00175746 -8.04527e-07)
(-8.04669e-07 -0.00175777 -8.04669e-07)
(-2.19225e-08 -4.78889e-05 -2.19225e-08)
(-5.93075e-10 -1.29555e-06 -5.93075e-10)
(-2.1771e-08 -4.7558e-05 -2.1771e-08)
(-2.17712e-08 -4.75583e-05 -2.17712e-08)
(-5.93161e-10 -1.29574e-06 -5.93161e-10)
(-7.92133e-12 -1.73038e-08 -7.92133e-12)
(-2.90782e-10 -6.35202e-07 -2.90782e-10)
(-2.9459e-10 -6.4352e-07 -2.9459e-10)
(-1.20382e-11 -2.6297e-08 -1.20382e-11)
(-1.05804e-13 -2.31125e-10 -1.05804e-13)
(-3.88394e-12 -8.48432e-09 -3.88394e-12)
(-3.98565e-12 -8.70649e-09 -3.98565e-12)
(-2.17174e-13 -4.74408e-10 -2.17174e-13)
(-1.41327e-15 -3.08724e-12 -1.41327e-15)
(-5.18795e-14 -1.13329e-10 -5.18795e-14)
(-5.39173e-14 -1.1778e-10 -5.39173e-14)
(-3.67303e-15 -8.02359e-12 -3.67303e-15)
(-1.887e-17 -4.12207e-14 -1.887e-17)
(-6.92818e-16 -1.51343e-12 -6.92818e-16)
(-7.29103e-16 -1.5927e-12 -7.29103e-16)
(-5.96173e-17 -1.30232e-13 -5.96173e-17)
(0 0 0)
(0 0 0)
(0 0 0)
(0 0 0)
(0 0 0)
(0 0 0)
(0 0 0)
(0 0 0)
(0 0 0)
(0 0 0)
(0 0 0)
(0 0 0)
(0 0 0)
(0 0 0)
(0 0 0)
(0 0 0)
(0 0 0)
(0 0 0)
(0 0 0)
(0 0 0)
(0 0 0)
(0 0 0)
(0 0 0)
(0 0 0)
(0 0 0)
(0 0 0)
(0 0 0)
(0 0 0)
(0 0 0)
(0 0 0)
(0 0 0)
(0 0 0)
(0 0 0)
(0 0 0)
(0 0 0)
(0 0 0)
(0 0 0)
(0 0 0)
(0 0 0)
(0 0 0)
(-1.40443e-13 -3.06793e-10 -1.40443e-13)
(-2.05715e-12 -4.49377e-09 -2.05715e-12)
(-1.97933e-12 -4.32376e-09 -1.97933e-12)
(-5.57427e-14 -1.21768e-10 -5.57427e-14)
(-8.12224e-12 -1.77427e-08 -8.12224e-12)
(-1.49129e-10 -3.25766e-07 -1.49129e-10)
(-1.45335e-10 -3.17478e-07 -1.45335e-10)
(-4.03883e-12 -8.82267e-09 -4.03883e-12)
(-4.47489e-10 -9.77523e-07 -4.47489e-10)
(-1.09543e-08 -2.39291e-05 -1.09543e-08)
(-1.08131e-08 -2.36208e-05 -1.08131e-08)
(-2.96569e-10 -6.47843e-07 -2.96569e-10)
(-2.19106e-08 -4.78628e-05 -2.19106e-08)
(-8.04373e-07 -0.00175712 -8.04373e-07)
(-8.0438e-07 -0.00175714 -8.0438e-07)
(-2.17732e-08 -4.75626e-05 -2.17732e-08)
(-8.04527e-07 -0.00175746 -8.04527e-07)
(-5.90342e-05 -0.128958 -5.90342e-05)
(-5.90342e-05 -0.128958 -5.90342e-05)
(-8.04818e-07 -0.00175809 -8.04818e-07)
(-2.1771e-08 -4.7558e-05 -2.1771e-08)
(-8.04659e-07 -0.00175775 -8.04659e-07)
(-8.04527e-07 -0.00175746 -8.04527e-07)
(-2.16358e-08 -4.72626e-05 -2.16358e-08)
(-2.90782e-10 -6.35202e-07 -2.90782e-10)
(-1.0679e-08 -2.33278e-05 -1.0679e-08)
(-1.08151e-08 -2.36251e-05 -1.08151e-08)
(-4.36252e-10 -9.52976e-07 -4.36252e-10)
(-3.88394e-12 -8.48432e-09 -3.88394e-12)
(-1.41725e-10 -3.09593e-07 -1.41725e-10)
(-1.45361e-10 -3.17536e-07 -1.45361e-10)
(-7.81881e-12 -1.70799e-08 -7.81881e-12)
(-5.18795e-14 -1.13329e-10 -5.18795e-14)
(-1.88091e-12 -4.10876e-09 -1.88091e-12)
(-1.95343e-12 -4.26719e-09 -1.95343e-12)
(-1.3137e-13 -2.86973e-10 -1.3137e-13)
(-6.92818e-16 -1.51343e-12 -6.92818e-16)
(-2.4958e-14 -5.45198e-11 -2.4958e-14)
(-2.62423e-14 -5.73253e-11 -2.62423e-14)
(-2.11842e-15 -4.62761e-12 -2.11842e-15)
(0 0 0)
(0 0 0)
(0 0 0)
(0 0 0)
(0 0 0)
(0 0 0)
(0 0 0)
(0 0 0)
(0 0 0)
(0 0 0)
(0 0 0)
(0 0 0)
(0 0 0)
(0 0 0)
(0 0 0)
(0 0 0)
(0 0 0)
(0 0 0)
(0 0 0)
(0 0 0)
(0 0 0)
(0 0 0)
(0 0 0)
(0 0 0)
(0 0 0)
(0 0 0)
(0 0 0)
(0 0 0)
(0 0 0)
(0 0 0)
(0 0 0)
(0 0 0)
(0 0 0)
(0 0 0)
(0 0 0)
(0 0 0)
(0 0 0)
(0 0 0)
(0 0 0)
(0 0 0)
(-1.33453e-13 -2.91522e-10 -1.33453e-13)
(-1.97933e-12 -4.32376e-09 -1.97933e-12)
(-1.90592e-12 -4.1634e-09 -1.90592e-12)
(-5.36367e-14 -1.17167e-10 -5.36367e-14)
(-7.81641e-12 -1.70746e-08 -7.81641e-12)
(-1.45335e-10 -3.17478e-07 -1.45335e-10)
(-1.41726e-10 -3.09596e-07 -1.41726e-10)
(-3.93633e-12 -8.59876e-09 -3.93633e-12)
(-4.36122e-10 -9.52691e-07 -4.36122e-10)
(-1.08131e-08 -2.36208e-05 -1.08131e-08)
(-1.06789e-08 -2.33277e-05 -1.06789e-08)
(-2.92769e-10 -6.39541e-07 -2.92769e-10)
(-2.16299e-08 -4.72496e-05 -2.16299e-08)
(-8.0438e-07 -0.00175714 -8.0438e-07)
(-8.04656e-07 -0.00175774 -8.04656e-07)
(-2.17751e-08 -4.75668e-05 -2.17751e-08)
(-8.04669e-07 -0.00175777 -8.04669e-07)
(-5.90342e-05 -0.128958 -5.90342e-05)
(-5.90342e-05 -0.128958 -5.90342e-05)
(-8.04822e-07 -0.0017581 -8.04822e-07)
(-2.17712e-08 -4.75583e-05 -2.17712e-08)
(-8.04527e-07 -0.00175746 -8.04527e-07)
(-8.04663e-07 -0.00175775 -8.04663e-07)
(-2.19187e-08 -4.78806e-05 -2.19187e-08)
(-2.9459e-10 -6.4352e-07 -2.9459e-10)
(-1.08151e-08 -2.36251e-05 -1.08151e-08)
(-1.09583e-08 -2.39379e-05 -1.09583e-08)
(-4.47659e-10 -9.77893e-07 -4.47659e-10)
(-3.98565e-12 -8.70649e-09 -3.98565e-12)
(-1.45361e-10 -3.17536e-07 -1.45361e-10)
(-1.49185e-10 -3.25888e-07 -1.49185e-10)
(-8.12539e-12 -1.77496e-08 -8.12539e-12)
(-5.39173e-14 -1.1778e-10 -5.39173e-14)
(-1.95343e-12 -4.26719e-09 -1.95343e-12)
(-2.03031e-12 -4.43514e-09 -2.03031e-12)
(-1.38237e-13 -3.01973e-10 -1.38237e-13)
(-7.29103e-16 -1.5927e-12 -7.29103e-16)
(-2.62423e-14 -5.73253e-11 -2.62423e-14)
(-2.76175e-14 -6.03294e-11 -2.76175e-14)
(-2.2568e-15 -4.92989e-12 -2.2568e-15)
(0 0 0)
(0 0 0)
(0 0 0)
(0 0 0)
(0 0 0)
(0 0 0)
(0 0 0)
(0 0 0)
(0 0 0)
(0 0 0)
(0 0 0)
(0 0 0)
(0 0 0)
(0 0 0)
(0 0 0)
(0 0 0)
(0 0 0)
(0 0 0)
(0 0 0)
(0 0 0)
(0 0 0)
(0 0 0)
(0 0 0)
(0 0 0)
(0 0 0)
(0 0 0)
(0 0 0)
(0 0 0)
(0 0 0)
(0 0 0)
(0 0 0)
(0 0 0)
(0 0 0)
(0 0 0)
(0 0 0)
(0 0 0)
(0 0 0)
(0 0 0)
(0 0 0)
(0 0 0)
(-3.81322e-15 -8.32982e-12 -3.81322e-15)
(-5.57427e-14 -1.21768e-10 -5.57427e-14)
(-5.36367e-14 -1.17167e-10 -5.36367e-14)
(-1.53026e-15 -3.34279e-12 -1.53026e-15)
(-2.20452e-13 -4.81568e-10 -2.20452e-13)
(-4.03883e-12 -8.82267e-09 -4.03883e-12)
(-3.93633e-12 -8.59876e-09 -3.93633e-12)
(-1.10817e-13 -2.42075e-10 -1.10817e-13)
(-1.21461e-11 -2.65327e-08 -1.21461e-11)
(-2.96569e-10 -6.47843e-07 -2.96569e-10)
(-2.92769e-10 -6.39541e-07 -2.92769e-10)
(-8.13439e-12 -1.77692e-08 -8.13439e-12)
(-5.95168e-10 -1.30012e-06 -5.95168e-10)
(-2.17732e-08 -4.75626e-05 -2.17732e-08)
(-2.17751e-08 -4.75668e-05 -2.17751e-08)
(-5.97096e-10 -1.30433e-06 -5.97096e-10)
(-2.19225e-08 -4.78889e-05 -2.19225e-08)
(-8.04818e-07 -0.00175809 -8.04818e-07)
(-8.04822e-07 -0.0017581 -8.04822e-07)
(-2.19288e-08 -4.79026e-05 -2.19288e-08)
(-5.93161e-10 -1.29574e-06 -5.93161e-10)
(-2.16358e-08 -4.72626e-05 -2.16358e-08)
(-2.19187e-08 -4.78806e-05 -2.19187e-08)
(-8.95624e-10 -1.95645e-06 -8.95624e-10)
(-1.20382e-11 -2.6297e-08 -1.20382e-11)
(-4.36252e-10 -9.52976e-07 -4.36252e-10)
(-4.47659e-10 -9.77893e-07 -4.47659e-10)
(-2.43896e-11 -5.3278e-08 -2.43896e-11)
(-2.17174e-13 -4.74408e-10 -2.17174e-13)
(-7.81881e-12 -1.70799e-08 -7.81881e-12)
(-8.12539e-12 -1.77496e-08 -8.12539e-12)
(-5.53451e-13 -1.20899e-09 -5.53451e-13)
(-3.67303e-15 -8.02359e-12 -3.67303e-15)
(-1.3137e-13 -2.86973e-10 -1.3137e-13)
(-1.38237e-13 -3.01973e-10 -1.38237e-13)
(-1.13021e-14 -2.46891e-11 -1.13021e-14)
(-5.96173e-17 -1.30232e-13 -5.96173e-17)
(-2.11842e-15 -4.62761e-12 -2.11842e-15)
(-2.2568e-15 -4.92989e-12 -2.2568e-15)
(-2.15343e-16 -4.70408e-13 -2.15343e-16)
(0 0 0)
(0 0 0)
(0 0 0)
(0 0 0)
(0 0 0)
(0 0 0)
(0 0 0)
(0 0 0)
(0 0 0)
(0 0 0)
(0 0 0)
(0 0 0)
(0 0 0)
(0 0 0)
(0 0 0)
(0 0 0)
(0 0 0)
(0 0 0)
(0 0 0)
(0 0 0)
(0 0 0)
(0 0 0)
(0 0 0)
(0 0 0)
(0 0 0)
(0 0 0)
(0 0 0)
(0 0 0)
(0 0 0)
(0 0 0)
(0 0 0)
(0 0 0)
(0 0 0)
(0 0 0)
(0 0 0)
(0 0 0)
(0 0 0)
(0 0 0)
(0 0 0)
(0 0 0)
)
;

boundaryField
{
    inlet
    {
        type            zeroGradient;
    }
    outlet
    {
        type            zeroGradient;
    }
    walls
    {
        type            zeroGradient;
    }
}


// ************************************************************************* //
