/*--------------------------------*- C++ -*----------------------------------*\
| =========                 |                                                 |
| \\      /  F ield         | OpenFOAM: The Open Source CFD Toolbox           |
|  \\    /   O peration     | Version:  5.x                                   |
|   \\  /    A nd           | Web:      www.OpenFOAM.org                      |
|    \\/     M anipulation  |                                                 |
\*---------------------------------------------------------------------------*/
FoamFile
{
    version     2.0;
    format      ascii;
    class       volScalarField;
    location    "0.04";
    object      Ksl;
}
// * * * * * * * * * * * * * * * * * * * * * * * * * * * * * * * * * * * * * //

dimensions      [1 -3 -1 0 0 0 0];

internalField   nonuniform List<scalar> 
320
(
0
0
0
0
0
0
0
0
0
0
0
0
0
0
0
0
8.12158e-05
0.000507384
0.000317472
3.36467e-05
0.0026458
0.0123548
0.00806625
0.0010739
0.0419482
0.220427
0.155625
0.0170006
0.849313
2.48849
1.42867
0.390511
2.82169
3.14386
1.51901
1.33532
0.677987
2.78771
1.31379
0.369601
0.0190972
0.0490242
0.0344881
0.00719756
0.00202912
0.00530012
0.00350279
0.000690044
2.81586e-05
0.000113195
7.68635e-05
1.08671e-05
0
0
0
0
0
0
0
0
0
0
0
0
0
0
0
0
0
0
0
0
0
0
0
0
0
0
0
0
0
0
0
0
0
0
0
0
0
0
0
0
0
8.64034e-05
5.31463e-05
0
0.000507384
0.00313735
0.00200372
0.000314659
0.0123548
0.0730204
0.0478768
0.00776976
0.220427
4.59794
2.16935
0.160935
2.48849
3.22265
1.54909
1.39252
3.14386
3.18285
1.50433
1.48784
2.78771
3.85626
1.75024
1.26933
0.0490242
1.11828
0.451269
0.0339046
0.00530012
0.0168195
0.0112381
0.00332871
0.000113195
0.00115625
0.00061009
7.48634e-05
0
2.10707e-05
1.30861e-05
0
0
0
0
0
0
0
0
0
0
0
0
0
0
0
0
0
0
0
0
0
0
0
0
0
0
0
0
0
0
0
0
0
0
0
0
0
0
5.31463e-05
3.69646e-05
0
0.000317472
0.00200372
0.001458
0.000218289
0.00806625
0.0478768
0.0331079
0.00560996
0.155625
2.16935
1.46762
0.10016
1.42867
1.54909
1.04573
0.943273
1.51901
1.50433
1.00547
1.00666
1.31379
1.75024
1.24091
1.04338
0.0344881
0.451269
0.380283
0.0180103
0.00350279
0.0112381
0.0063558
0.00214495
7.68635e-05
0.00061009
0.000443177
4.19525e-05
0
1.30861e-05
8.0442e-06
0
0
0
0
0
0
0
0
0
0
0
0
0
0
0
0
0
0
0
0
0
0
0
0
0
0
0
0
0
0
0
0
0
0
0
0
0
0
0
0
0
3.36467e-05
0.000314659
0.000218289
0
0.0010739
0.00776976
0.00560996
0.00131616
0.0170006
0.160935
0.10016
0.0160455
0.390511
1.39252
0.943273
0.315161
1.33532
1.48784
1.00666
0.891121
0.369601
1.26933
1.04338
0.237328
0.00719756
0.0339046
0.0180103
0.00698684
0.000690044
0.00332871
0.00214495
0.000925803
1.08671e-05
7.48634e-05
4.19525e-05
0
0
0
0
0
0
0
0
0
0
0
0
0
0
0
0
0
0
0
0
0
0
0
0
0
0
0
0
0
)
;

boundaryField
{
    inlet
    {
        type            zeroGradient;
    }
    outlet
    {
        type            zeroGradient;
    }
    walls
    {
        type            zeroGradient;
    }
}


// ************************************************************************* //
