/*--------------------------------*- C++ -*----------------------------------*\
| =========                 |                                                 |
| \\      /  F ield         | OpenFOAM: The Open Source CFD Toolbox           |
|  \\    /   O peration     | Version:  5.x                                   |
|   \\  /    A nd           | Web:      www.OpenFOAM.org                      |
|    \\/     M anipulation  |                                                 |
\*---------------------------------------------------------------------------*/
FoamFile
{
    version     2.0;
    format      ascii;
    class       volVectorField;
    location    "0.04";
    object      Us;
}
// * * * * * * * * * * * * * * * * * * * * * * * * * * * * * * * * * * * * * //

dimensions      [0 1 -1 0 0 0 0];

internalField   nonuniform List<vector> 
320
(
(-3.9982e-22 -2.52628e-18 -3.9982e-22)
(-2.94654e-21 -1.86178e-17 -2.94654e-21)
(-2.94361e-21 -1.85993e-17 -2.94361e-21)
(-3.8363e-22 -2.42398e-18 -3.8363e-22)
(-2.30716e-20 -1.45779e-16 -2.30716e-20)
(-1.88995e-19 -1.19417e-15 -1.88995e-19)
(-1.88866e-19 -1.19336e-15 -1.88866e-19)
(-2.22991e-20 -1.40898e-16 -2.22991e-20)
(-1.3161e-18 -8.3158e-15 -1.3161e-18)
(-1.21168e-17 -7.65602e-14 -1.21168e-17)
(-1.21114e-17 -7.65262e-14 -1.21114e-17)
(-1.28089e-18 -8.09333e-15 -1.28089e-18)
(-7.24034e-17 -4.57484e-13 -7.24034e-17)
(-7.61154e-16 -4.80938e-12 -7.61154e-16)
(-7.6095e-16 -4.80809e-12 -7.6095e-16)
(-7.09355e-17 -4.48209e-13 -7.09355e-17)
(-3.79401e-15 -2.39726e-11 -3.79401e-15)
(-4.64975e-14 -2.93796e-10 -4.64975e-14)
(-4.64908e-14 -2.93754e-10 -4.64908e-14)
(-3.7404e-15 -2.36338e-11 -3.7404e-15)
(-1.85582e-13 -1.1726e-09 -1.85582e-13)
(-2.7275e-12 -1.72338e-08 -2.7275e-12)
(-2.72732e-12 -1.72327e-08 -2.72732e-12)
(-1.84011e-13 -1.16268e-09 -1.84011e-13)
(-8.17115e-12 -5.16297e-08 -8.17115e-12)
(-1.50031e-10 -9.47979e-07 -1.50031e-10)
(-1.50028e-10 -9.47959e-07 -1.50028e-10)
(-8.14208e-12 -5.1446e-08 -8.14208e-12)
(-2.99877e-10 -1.89479e-06 -2.99877e-10)
(-7.33782e-09 -4.63643e-05 -7.33782e-09)
(-7.33779e-09 -4.63641e-05 -7.33779e-09)
(-2.99856e-10 -1.89465e-06 -2.99856e-10)
(-7.34054e-09 -4.63815e-05 -7.34054e-09)
(-2.69261e-07 -0.00170134 -2.69261e-07)
(-2.69261e-07 -0.00170134 -2.69261e-07)
(-7.34052e-09 -4.63814e-05 -7.34052e-09)
(-2.99672e-10 -1.89349e-06 -2.99672e-10)
(-7.33508e-09 -4.6347e-05 -7.33508e-09)
(-7.3351e-09 -4.63471e-05 -7.3351e-09)
(-2.997e-10 -1.89366e-06 -2.997e-10)
(-6.76543e-12 -4.27476e-08 -6.76543e-12)
(-1.49215e-10 -9.42823e-07 -1.49215e-10)
(-1.48565e-10 -9.38711e-07 -1.48565e-10)
(-6.06891e-12 -3.83466e-08 -6.06891e-12)
(-9.12165e-14 -5.76355e-10 -9.12165e-14)
(-1.99802e-12 -1.26246e-08 -1.99802e-12)
(-2.01493e-12 -1.27314e-08 -2.01493e-12)
(-1.09746e-13 -6.93432e-10 -1.09746e-13)
(-1.22978e-15 -7.7704e-12 -1.22978e-15)
(-2.67532e-14 -1.69041e-10 -2.67532e-14)
(-2.73225e-14 -1.72638e-10 -2.73225e-14)
(-1.86038e-15 -1.17549e-11 -1.86038e-15)
(-1.65814e-17 -1.0477e-13 -1.65814e-17)
(-3.58236e-16 -2.26353e-12 -3.58236e-16)
(-3.70449e-16 -2.3407e-12 -3.70449e-16)
(-3.02746e-17 -1.91291e-13 -3.02746e-17)
(-2.23591e-19 -1.41277e-15 -2.23591e-19)
(-4.79711e-18 -3.03108e-14 -4.79711e-18)
(-5.02208e-18 -3.17322e-14 -5.02208e-18)
(-4.78977e-19 -3.02644e-15 -4.78977e-19)
(-3.01529e-21 -1.90522e-17 -3.01529e-21)
(-6.42405e-20 -4.05906e-16 -6.42405e-20)
(-6.80751e-20 -4.30135e-16 -6.80751e-20)
(-7.42318e-21 -4.69037e-17 -7.42318e-21)
(-4.0667e-23 -2.56956e-19 -4.0667e-23)
(-8.6031e-22 -5.4359e-18 -8.6031e-22)
(-9.22665e-22 -5.8299e-18 -9.22665e-22)
(-1.13245e-22 -7.15544e-19 -1.13245e-22)
(-5.48525e-25 -3.46588e-21 -5.48525e-25)
(-1.15218e-23 -7.28007e-20 -1.15218e-23)
(-1.25041e-23 -7.90076e-20 -1.25041e-23)
(-1.70627e-24 -1.07811e-20 -1.70627e-24)
(-7.39934e-27 -4.6753e-23 -7.39934e-27)
(-1.54313e-25 -9.75031e-22 -1.54313e-25)
(-1.6944e-25 -1.07061e-21 -1.6944e-25)
(-2.54512e-26 -1.60814e-22 -2.54512e-26)
(-1.02206e-28 -6.4579e-25 -1.02206e-28)
(-2.10392e-27 -1.32937e-23 -2.10392e-27)
(-2.33675e-27 -1.47649e-23 -2.33675e-27)
(-3.8365e-28 -2.42411e-24 -3.8365e-28)
(-2.94654e-21 -1.86178e-17 -2.94654e-21)
(-2.40721e-20 -1.52101e-16 -2.40721e-20)
(-2.40403e-20 -1.51899e-16 -2.40403e-20)
(-2.83005e-21 -1.78818e-17 -2.83005e-21)
(-1.88995e-19 -1.19417e-15 -1.88995e-19)
(-1.73815e-18 -1.09825e-14 -1.73815e-18)
(-1.73663e-18 -1.0973e-14 -1.73663e-18)
(-1.83086e-19 -1.15683e-15 -1.83086e-19)
(-1.21168e-17 -7.65602e-14 -1.21168e-17)
(-1.27262e-16 -8.04112e-13 -1.27262e-16)
(-1.27194e-16 -8.0368e-13 -1.27194e-16)
(-1.18317e-17 -7.47588e-14 -1.18317e-17)
(-7.61154e-16 -4.80938e-12 -7.61154e-16)
(-9.32107e-15 -5.88955e-11 -9.32107e-15)
(-9.31829e-15 -5.8878e-11 -9.31829e-15)
(-7.48734e-16 -4.73091e-12 -7.48734e-16)
(-4.64975e-14 -2.93796e-10 -4.64975e-14)
(-6.82945e-13 -4.31522e-09 -6.82945e-13)
(-6.82849e-13 -4.31461e-09 -6.82849e-13)
(-4.60425e-14 -2.90921e-10 -4.60425e-14)
(-2.7275e-12 -1.72338e-08 -2.7275e-12)
(-5.00568e-11 -3.16286e-07 -5.00568e-11)
(-5.00542e-11 -3.1627e-07 -5.00542e-11)
(-2.71597e-12 -1.7161e-08 -2.71597e-12)
(-1.50031e-10 -9.47979e-07 -1.50031e-10)
(-3.67027e-09 -2.31907e-05 -3.67027e-09)
(-3.67023e-09 -2.31905e-05 -3.67023e-09)
(-1.49985e-10 -9.47686e-07 -1.49985e-10)
(-7.33782e-09 -4.63643e-05 -7.33782e-09)
(-2.69211e-07 -0.00170102 -2.69211e-07)
(-2.69211e-07 -0.00170102 -2.69211e-07)
(-7.33782e-09 -4.63643e-05 -7.33782e-09)
(-2.69261e-07 -0.00170134 -2.69261e-07)
(-1.97528e-05 -0.124809 -1.97528e-05)
(-1.97528e-05 -0.124809 -1.97528e-05)
(-2.69261e-07 -0.00170134 -2.69261e-07)
(-7.33508e-09 -4.6347e-05 -7.33508e-09)
(-2.69161e-07 -0.00170071 -2.69161e-07)
(-2.69161e-07 -0.00170071 -2.69161e-07)
(-7.33511e-09 -4.63472e-05 -7.33511e-09)
(-1.49215e-10 -9.42823e-07 -1.49215e-10)
(-3.67003e-09 -2.31892e-05 -3.67003e-09)
(-3.66885e-09 -2.31818e-05 -3.66885e-09)
(-1.47974e-10 -9.34978e-07 -1.47974e-10)
(-1.99802e-12 -1.26246e-08 -1.99802e-12)
(-4.87243e-11 -3.07867e-07 -4.87243e-11)
(-4.9329e-11 -3.11687e-07 -4.9329e-11)
(-2.65289e-12 -1.67624e-08 -2.65289e-12)
(-2.67532e-14 -1.69041e-10 -2.67532e-14)
(-6.46881e-13 -4.08734e-09 -6.46881e-13)
(-6.6314e-13 -4.19008e-09 -6.6314e-13)
(-4.45863e-14 -2.8172e-10 -4.45863e-14)
(-3.58236e-16 -2.26353e-12 -3.58236e-16)
(-8.58829e-15 -5.42655e-11 -8.58829e-15)
(-8.91335e-15 -5.63194e-11 -8.91335e-15)
(-7.19339e-16 -4.54517e-12 -7.19339e-16)
(-4.79711e-18 -3.03108e-14 -4.79711e-18)
(-1.14023e-16 -7.20461e-13 -1.14023e-16)
(-1.19788e-16 -7.56883e-13 -1.19788e-16)
(-1.12826e-17 -7.12898e-14 -1.12826e-17)
(-6.42405e-20 -4.05906e-16 -6.42405e-20)
(-1.51386e-18 -9.56536e-15 -1.51386e-18)
(-1.60961e-18 -1.01704e-14 -1.60961e-18)
(-1.73346e-19 -1.09529e-15 -1.73346e-19)
(-8.6031e-22 -5.4359e-18 -8.6031e-22)
(-2.00992e-20 -1.26998e-16 -2.00992e-20)
(-2.16255e-20 -1.36642e-16 -2.16255e-20)
(-2.62153e-21 -1.65643e-17 -2.62153e-21)
(-1.15218e-23 -7.28007e-20 -1.15218e-23)
(-2.66857e-22 -1.68615e-18 -2.66857e-22)
(-2.90505e-22 -1.83557e-18 -2.90505e-22)
(-3.91547e-23 -2.474e-19 -3.91547e-23)
(-1.54313e-25 -9.75031e-22 -1.54313e-25)
(-3.54311e-24 -2.23873e-20 -3.54311e-24)
(-3.90196e-24 -2.46547e-20 -3.90196e-24)
(-5.78934e-25 -3.65802e-21 -5.78934e-25)
(-2.10392e-27 -1.32937e-23 -2.10392e-27)
(-4.76865e-26 -3.01309e-22 -4.76865e-26)
(-5.31187e-26 -3.35632e-22 -5.31187e-26)
(-8.6144e-27 -5.44304e-23 -8.6144e-27)
(-2.94361e-21 -1.85993e-17 -2.94361e-21)
(-2.40403e-20 -1.51899e-16 -2.40403e-20)
(-2.38736e-20 -1.50846e-16 -2.38736e-20)
(-2.67767e-21 -1.69189e-17 -2.67767e-21)
(-1.88866e-19 -1.19336e-15 -1.88866e-19)
(-1.73663e-18 -1.0973e-14 -1.73663e-18)
(-1.72796e-18 -1.09182e-14 -1.72796e-18)
(-1.75091e-19 -1.10632e-15 -1.75091e-19)
(-1.21114e-17 -7.65262e-14 -1.21114e-17)
(-1.27194e-16 -8.0368e-13 -1.27194e-16)
(-1.26766e-16 -8.00978e-13 -1.26766e-16)
(-1.14338e-17 -7.22451e-14 -1.14338e-17)
(-7.6095e-16 -4.80809e-12 -7.6095e-16)
(-9.31829e-15 -5.8878e-11 -9.31829e-15)
(-9.29931e-15 -5.87581e-11 -9.29931e-15)
(-7.30947e-16 -4.61852e-12 -7.30947e-16)
(-4.64908e-14 -2.93754e-10 -4.64908e-14)
(-6.82849e-13 -4.31461e-09 -6.82849e-13)
(-6.82147e-13 -4.31017e-09 -6.82147e-13)
(-4.53827e-14 -2.86752e-10 -4.53827e-14)
(-2.72732e-12 -1.72327e-08 -2.72732e-12)
(-5.00542e-11 -3.1627e-07 -5.00542e-11)
(-5.00369e-11 -3.16161e-07 -5.00369e-11)
(-2.69995e-12 -1.70597e-08 -2.69995e-12)
(-1.50028e-10 -9.47959e-07 -1.50028e-10)
(-3.67023e-09 -2.31905e-05 -3.67023e-09)
(-3.67024e-09 -2.31905e-05 -3.67024e-09)
(-1.50018e-10 -9.47895e-07 -1.50018e-10)
(-7.33779e-09 -4.63641e-05 -7.33779e-09)
(-2.69211e-07 -0.00170102 -2.69211e-07)
(-2.69211e-07 -0.00170102 -2.69211e-07)
(-7.33782e-09 -4.63643e-05 -7.33782e-09)
(-2.69261e-07 -0.00170134 -2.69261e-07)
(-1.97528e-05 -0.124809 -1.97528e-05)
(-1.97528e-05 -0.124809 -1.97528e-05)
(-2.69261e-07 -0.00170134 -2.69261e-07)
(-7.3351e-09 -4.63471e-05 -7.3351e-09)
(-2.69161e-07 -0.00170071 -2.69161e-07)
(-2.69161e-07 -0.00170071 -2.69161e-07)
(-7.33509e-09 -4.63471e-05 -7.33509e-09)
(-1.48565e-10 -9.38711e-07 -1.48565e-10)
(-3.66885e-09 -2.31818e-05 -3.66885e-09)
(-3.67006e-09 -2.31894e-05 -3.67006e-09)
(-1.49891e-10 -9.47093e-07 -1.49891e-10)
(-2.01493e-12 -1.27314e-08 -2.01493e-12)
(-4.9329e-11 -3.11687e-07 -4.9329e-11)
(-4.99809e-11 -3.15806e-07 -4.99809e-11)
(-2.72151e-12 -1.71959e-08 -2.72151e-12)
(-2.73225e-14 -1.72638e-10 -2.73225e-14)
(-6.6314e-13 -4.19008e-09 -6.6314e-13)
(-6.80441e-13 -4.29939e-09 -6.80441e-13)
(-4.63142e-14 -2.92638e-10 -4.63142e-14)
(-3.70449e-16 -2.3407e-12 -3.70449e-16)
(-8.91335e-15 -5.63194e-11 -8.91335e-15)
(-9.26053e-15 -5.85131e-11 -9.26053e-15)
(-7.56477e-16 -4.77983e-12 -7.56477e-16)
(-5.02208e-18 -3.17322e-14 -5.02208e-18)
(-1.19788e-16 -7.56883e-13 -1.19788e-16)
(-1.25993e-16 -7.96089e-13 -1.25993e-16)
(-1.20102e-17 -7.58871e-14 -1.20102e-17)
(-6.80751e-20 -4.30135e-16 -6.80751e-20)
(-1.60961e-18 -1.01704e-14 -1.60961e-18)
(-1.71364e-18 -1.08277e-14 -1.71364e-18)
(-1.86751e-19 -1.17999e-15 -1.86751e-19)
(-9.22665e-22 -5.8299e-18 -9.22665e-22)
(-2.16255e-20 -1.36642e-16 -2.16255e-20)
(-2.33005e-20 -1.47225e-16 -2.33005e-20)
(-2.85791e-21 -1.80578e-17 -2.85791e-21)
(-1.25041e-23 -7.90076e-20 -1.25041e-23)
(-2.90505e-22 -1.83557e-18 -2.90505e-22)
(-3.16727e-22 -2.00125e-18 -3.16727e-22)
(-4.31872e-23 -2.7288e-19 -4.31872e-23)
(-1.6944e-25 -1.07061e-21 -1.6944e-25)
(-3.90196e-24 -2.46547e-20 -3.90196e-24)
(-4.30409e-24 -2.71956e-20 -4.30409e-24)
(-6.45975e-25 -4.08162e-21 -6.45975e-25)
(-2.33675e-27 -1.47649e-23 -2.33675e-27)
(-5.31187e-26 -3.35632e-22 -5.31187e-26)
(-5.92711e-26 -3.74507e-22 -5.92711e-26)
(-9.72213e-27 -6.14297e-23 -9.72213e-27)
(-3.8363e-22 -2.42398e-18 -3.8363e-22)
(-2.83005e-21 -1.78818e-17 -2.83005e-21)
(-2.67767e-21 -1.69189e-17 -2.67767e-21)
(-2.02201e-22 -1.27761e-18 -2.02201e-22)
(-2.22991e-20 -1.40898e-16 -2.22991e-20)
(-1.83086e-19 -1.15683e-15 -1.83086e-19)
(-1.75091e-19 -1.10632e-15 -1.75091e-19)
(-1.28901e-20 -8.14468e-17 -1.28901e-20)
(-1.28089e-18 -8.09333e-15 -1.28089e-18)
(-1.18317e-17 -7.47588e-14 -1.18317e-17)
(-1.14338e-17 -7.22451e-14 -1.14338e-17)
(-8.17611e-19 -5.16611e-15 -8.17611e-19)
(-7.09355e-17 -4.48209e-13 -7.09355e-17)
(-7.48734e-16 -4.73091e-12 -7.48734e-16)
(-7.30947e-16 -4.61852e-12 -7.30947e-16)
(-5.0416e-17 -3.18555e-13 -5.0416e-17)
(-3.7404e-15 -2.36338e-11 -3.7404e-15)
(-4.60425e-14 -2.90921e-10 -4.60425e-14)
(-4.53827e-14 -2.86752e-10 -4.53827e-14)
(-2.98393e-15 -1.88541e-11 -2.98393e-15)
(-1.84011e-13 -1.16268e-09 -1.84011e-13)
(-2.71597e-12 -1.7161e-08 -2.71597e-12)
(-2.69995e-12 -1.70597e-08 -2.69995e-12)
(-1.65507e-13 -1.04576e-09 -1.65507e-13)
(-8.14208e-12 -5.1446e-08 -8.14208e-12)
(-1.49985e-10 -9.47686e-07 -1.49985e-10)
(-1.50018e-10 -9.47895e-07 -1.50018e-10)
(-8.15187e-12 -5.15079e-08 -8.15187e-12)
(-2.99856e-10 -1.89465e-06 -2.99856e-10)
(-7.33782e-09 -4.63643e-05 -7.33782e-09)
(-7.33782e-09 -4.63643e-05 -7.33782e-09)
(-2.99894e-10 -1.89489e-06 -2.99894e-10)
(-7.34052e-09 -4.63814e-05 -7.34052e-09)
(-2.69261e-07 -0.00170134 -2.69261e-07)
(-2.69261e-07 -0.00170134 -2.69261e-07)
(-7.34054e-09 -4.63815e-05 -7.34054e-09)
(-2.997e-10 -1.89366e-06 -2.997e-10)
(-7.33511e-09 -4.63472e-05 -7.33511e-09)
(-7.33509e-09 -4.63471e-05 -7.33509e-09)
(-2.99692e-10 -1.89362e-06 -2.99692e-10)
(-6.06891e-12 -3.83466e-08 -6.06891e-12)
(-1.47974e-10 -9.34978e-07 -1.47974e-10)
(-1.49891e-10 -9.47093e-07 -1.49891e-10)
(-8.16225e-12 -5.15735e-08 -8.16225e-12)
(-1.09746e-13 -6.93432e-10 -1.09746e-13)
(-2.65289e-12 -1.67624e-08 -2.65289e-12)
(-2.72151e-12 -1.71959e-08 -2.72151e-12)
(-1.8528e-13 -1.1707e-09 -1.8528e-13)
(-1.86038e-15 -1.17549e-11 -1.86038e-15)
(-4.45863e-14 -2.8172e-10 -4.45863e-14)
(-4.63142e-14 -2.92638e-10 -4.63142e-14)
(-3.78464e-15 -2.39134e-11 -3.78464e-15)
(-3.02746e-17 -1.91291e-13 -3.02746e-17)
(-7.19339e-16 -4.54517e-12 -7.19339e-16)
(-7.56477e-16 -4.77983e-12 -7.56477e-16)
(-7.2144e-17 -4.55845e-13 -7.2144e-17)
(-4.78977e-19 -3.02644e-15 -4.78977e-19)
(-1.12826e-17 -7.12898e-14 -1.12826e-17)
(-1.20102e-17 -7.58871e-14 -1.20102e-17)
(-1.30959e-18 -8.27472e-15 -1.30959e-18)
(-7.42318e-21 -4.69037e-17 -7.42318e-21)
(-1.73346e-19 -1.09529e-15 -1.73346e-19)
(-1.86751e-19 -1.17999e-15 -1.86751e-19)
(-2.29209e-20 -1.44826e-16 -2.29209e-20)
(-1.13245e-22 -7.15544e-19 -1.13245e-22)
(-2.62153e-21 -1.65643e-17 -2.62153e-21)
(-2.85791e-21 -1.80578e-17 -2.85791e-21)
(-3.89982e-22 -2.46412e-18 -3.89982e-22)
(-1.70627e-24 -1.07811e-20 -1.70627e-24)
(-3.91547e-23 -2.474e-19 -3.91547e-23)
(-4.31872e-23 -2.7288e-19 -4.31872e-23)
(-6.48715e-24 -4.09893e-20 -6.48715e-24)
(-2.54512e-26 -1.60814e-22 -2.54512e-26)
(-5.78934e-25 -3.65802e-21 -5.78934e-25)
(-6.45975e-25 -4.08162e-21 -6.45975e-25)
(-1.05938e-25 -6.69374e-22 -1.05938e-25)
(-3.8365e-28 -2.42411e-24 -3.8365e-28)
(-8.6144e-27 -5.44304e-23 -8.6144e-27)
(-9.72213e-27 -6.14297e-23 -9.72213e-27)
(-1.73074e-27 -1.09357e-23 -1.73074e-27)
)
;

boundaryField
{
    inlet
    {
        type            zeroGradient;
    }
    outlet
    {
        type            zeroGradient;
    }
    walls
    {
        type            zeroGradient;
    }
}


// ************************************************************************* //
