/*--------------------------------*- C++ -*----------------------------------*\
| =========                 |                                                 |
| \\      /  F ield         | OpenFOAM: The Open Source CFD Toolbox           |
|  \\    /   O peration     | Version:  5.x                                   |
|   \\  /    A nd           | Web:      www.OpenFOAM.org                      |
|    \\/     M anipulation  |                                                 |
\*---------------------------------------------------------------------------*/
FoamFile
{
    version     2.0;
    format      ascii;
    class       volScalarField;
    location    "0.051";
    object      interFace;
}
// * * * * * * * * * * * * * * * * * * * * * * * * * * * * * * * * * * * * * //

dimensions      [0 0 0 0 0 0 0];

internalField   nonuniform List<scalar> 
1553
(
0
0
0
0
0
0
0
0
0
0
0
0
0
0
0
0
0
0
0
0
0
0
0
0
0
0
0
0
0
0
0
0
0
0
0
0
0
0
0
0
0
0
0
0
0
0
0
0
0
0
0
0
0
0
0
0
0
0
0
0
0
0
0
0
0
0
0
0
0
0
0
0
0
0
0
0
0
0
0
0
0
0
0
0
0
0
0
0
0
0
0
0
0
0
0
0
0
0
0
0
0
0
0
0
0
0
0
0
0
0
0
0
0
0
0
0
0
0
0
0
0
0
0
0
0
0
0
0
0
0
0
0
0
0
0
0
0
0
0
0
0
0
0
0
0
0
0
0
0
0
0
0
0
0
0
0
0
0
0
0
0
0
0
0
0
0
0
0
0
0
0
0
0
0
0
0
0
0
0
0
0
0
0
0
0
0
0
0
0
0
0
0
0
0
0
0
0
0
0
0
0
0
0
0
0
0
0
0
0
0
0
0
0
0
0
0
0
0
0
0
0
0
0
0
0
0
0
0
0
0
0
0
0
0
0
0
0
0
0
0
0
0
0
0
0
0
0
0
0
0
0
0
0
0
0
0
0
0
0
0
0
0
0
0
0
0
0
0
0
0
0
0
0
0
0
0
0
0
0
0
0
0
0
0
0
0
0
0
0
0
0
0
0
0
0
0
0
0
0
0
0
0
0
0
0
0
0
0
0
0
0
0
0
0
0
0
0
0
0
0
0
0
0
0
0
0
0
0
0
0
0
0
0
0
0
0
0
0
0
0
0
0
0
0
0
0
0
0
0
0
0
0
0
0
0
0
0
0
0
0
0
0
0
0
0
0
0
0
0
0
0
0
0
0
0
0
0
0
0
0
0
0
0
0
0
0
0
0
0
0
0
0
0
0
0
0
0
0
0
0
0
0
0
0
0
0
0
0
0
0
0
0
0
0
0
0
0
0
0
0
0
0
0
0
0
0
0
0
0
0
0
0
0
0
0
0
0
0
0
0
0
0
0
0
0
0
0
0
0
0
0
0
0
0
0
0
0
0
0
0
0
0
0
0
0
0
0
0
0
0
0
0
0
0
0
0
0
0
0
0
0
0
0
0
0
0
0
0
0
0
0
0
0
0
0
0
0
0
0
0
0
0
0
0
0
0
0
0
0
0
0
0
0
0
0
0
0
0
0
0
0
0
0
0
0
0
0
0
0
0
0
0
0
0
0
0
0
0
0
0
0
0
0
0
0
0
0
0
0
0
0
0
0
0
0
0
0
0
0
0
0
0
0
0
0
0
0
0
0
0
0
0
0
0
0
0
0
0
0
0
0
0
0
0
0
0
0
0
0
0
0
0
0
0
0
0
0
0
0
0
0
0
0
0
0
0
0
0
0
0
0
0
0
0
0
0
0
0
0
0
0
0
0
0
0
0
0
0
0
0
0
0
0
0
0
0
0
0
0
0
0
0
0
0
0
0
0
0
0
0
0
0
0
0
0
0
0
0
0
0
0
0
0
0
0
0
0
0
0
0
0
0
0
0
0
0
0
0
0
0
0
0
0
0
0
0
0
0
0
0
0
0
0
0
0
0
0
0
0
0
0.561691
0
0
0
0
0
0
0
0
0
0
0
0
0
0
0
0
0
0
0
0
0
0
0
0
0.0317151
0.480014
0
0
0
0.480019
0
0
0
0
0
0
0
0
0
0
0
0
0
0
0
0
0
0
0
0.218867
0.864264
0
0
0
0.864269
0
0
0
0
0
0
0
0
0
0
0
0
0
0
0
0
0
0
0
0.858876
0
0
0
0
0
0
0
0
0
0
0
0
0
0
0
0
0
0
0
0
0
0
0
0
0.154318
0.602611
0
0
0
0.602613
0
0
0
0
0
0
0
0
0
0
0
0
0
0
0
0
0
0
0
0.0598601
0.508153
0
0
0
0.508155
0
0
0
0
0
0
0
0
0
0
0
0
0
0
0
0
0
0
0
0.844425
0
0
0
0
0
0
0
0
0
0
0
0
0
0
0
0
0
0
0
0
0
0
0
0
0
0
0
0
0
0
0
0
0
0
0
0
0
0
0
0
0
0
0
0
0
0
0
0
0
0
0
0
0
0
0
0
0
0
0
0
0
0
0
0
0
0
0
0
0
0
0
0
0
0
0
0
0
0
0
0
0
0
0
0
0
0
0
0
0
0
0
0
0
0
0
0
0
0
0
0
0
0
0
0
0
0
0
0
0
0
0
0
0
0
0
0
0
0
0
0
0
0
0
0
0
0
0
0
0
0
0
0
0
0
0
0
0
0
0
0
0
0
0
0
0
0
0
0
0
0.487861
0.487865
0.756858
0.733644
0.912973
0.912975
0
0
0
0
0
0
0
0
0
0
0
0
0
0
0
0
0
0
0.289984
0.558973
0.558974
0.827963
0.423307
0.423308
0.692297
0.0162438
0.285233
0.285234
0.554223
0.328849
0.32885
0.597839
0.459632
0.728621
0.728622
0.997611
0
0.849374
0
0.936562
0
0
0
0.849375
0
0
0.936564
0
0
0
0
0
0
0
0
0
0
0.371239
0.281554
0.504475
0.504475
0.549317
0.326397
0.326397
0.460902
0.550543
0.594138
0.773464
0.595386
0.63898
0.41606
0.460903
0.550544
0.594138
0.773465
0.595387
0.638981
0.41606
0.300708
0.300712
0.569706
0.104848
0.373842
0.373846
0.642839
0.467396
0.263711
0.263713
0.377707
0.308556
0.422551
0.422552
0.55706
0.353376
0.532706
0.6467
0.398221
0.691545
0.512215
0.557062
0.353378
0.532708
0.646704
0.398222
0.691548
0.512218
0.550566
0.819533
0.863127
0.863128
0.685049
0.68505
0.728644
0.646726
0.622372
0.622373
0.915697
0.487887
0.781211
0.781212
0.237982
0.104703
0.104703
0.148297
0.149545
0.193139
0.19314
0.327645
0.194365
0.373692
0.417286
0.239208
0.462129
0.282802
0.327645
0.194366
0.373693
0.417287
0.239209
0.462129
0.282803
0.149692
0.149694
0.194538
0.125339
0.0356501
0.080494
0.0804953
0
0.749011
0
0.553147
0
0.822144
0
0.749012
0
0
0.553153
0.822146
0
0
0.239357
0.418687
0.284202
0.215004
0.304643
0.349489
0.170158
0.239359
0.41869
0.284203
0.215005
0.304647
0.349491
0.170161
0.417308
0.463355
0.463355
0.686276
0.328872
0.551792
0.551792
0.508353
0.508354
0.373868
0.304669
0.573641
0.439154
0.439156
0.107133
0.0174481
0.0610862
0.0610866
0.105929
0.0622905
0.0622909
0
0.854191
0
0.464537
0
0.733527
0
0.854192
0
0
0.464538
0.733527
0
0
0.865557
0.732278
0.552996
0.59659
0.77712
0.641433
0.820714
0.865559
0.552997
0.73228
0.596591
0.777122
0.641434
0.820716
0.196796
0.286437
0.150749
0.330075
0.33128
0.195592
0.151953
0.196797
0.286438
0.15075
0.330076
0.331281
0.195592
0.151954
0.830685
0.830689
0.848526
0.0969783
0.365972
0.365976
0.634969
0.100961
0.0765589
0.0765603
0.0112723
0.121404
0.0561162
0.0561175
0.190626
0.166223
0.345553
0.280266
0.211069
0.325111
0.145781
0.190627
0.166226
0.345556
0.28027
0.21107
0.325113
0.145783
0.777273
0.597992
0.822118
0.483949
0.528794
0.75292
0.708075
0.597996
0.77728
0.822124
0.483954
0.528798
0.752925
0.708082
0.28646
0.555427
0.419739
0.419739
0.420943
0.420943
0.285255
0.280292
0.435219
0.435221
0.549263
0.300734
0.414777
0.414778
0.153158
0.199161
0.199161
0.0634729
0.244003
0.108315
0.108316
0
0
0
0
0
0
0
0.687658
0
0.911784
0.752946
0.61846
0.842586
0.977072
0.687661
0
0.911788
0.752947
0.618462
0.84259
0.977075
0.465741
0.688661
0.509379
0.510584
0.733504
0.734708
0.689865
0.465743
0.509381
0.688663
0.510585
0.733506
0.73471
0.689868
0.242821
0.288824
0.46815
0.332462
0.333666
0.377305
0.197978
0.242821
0.288824
0.468151
0.332463
0.333667
0.377305
0.197979
0.141822
0.141824
0.186667
0.296751
0.207062
0.251906
0.251907
0
0
0
0.545277
0
0.897328
0
0
0
0
0.545282
0.897331
0
0
0.524859
0.459571
0.504416
0.728542
0.70414
0.748985
0.683697
0.524863
0.459576
0.50442
0.728548
0.704146
0.74899
0.683704
0.332484
0.557813
0.557814
0.601452
0.42333
0.466968
0.466968
0.231487
0.410817
0.276332
0.386416
0.476055
0.520901
0.34157
0.231489
0.410819
0.276333
0.386417
0.476059
0.520903
0.341573
0.500482
0.500484
0.365998
0.476081
0.745053
0.610566
0.610568
0
0
0
0
0
0
0
0.734731
0.599043
0.957651
0.600247
0.823167
0.824372
0.958856
0.734731
0.599044
0.957652
0.600248
0.823169
0.824373
0.958856
0.560156
0.470471
0.334827
0.334827
0.379669
0.515313
0.515313
0.614525
0.728568
0.594082
0.818208
0.973137
0.838651
0.952694
0.614527
0.72857
0.594085
0.818212
0.97314
0.838655
0.952697
0
0
0
0.946196
0
0
0
0
0
0
0.946198
0
0
0
0.826736
0.647454
0.511766
0.871578
0.556609
0.780733
0.73589
0.647455
0.826738
0.511767
0.87158
0.55661
0.780735
0.735892
0.649819
0.739459
0.424489
0.603816
0.784302
0.469332
0.604976
0.649819
0.739461
0.42449
0.603817
0.784303
0.469333
0.604977
0
0
0
0.978957
0
0
0
0.451656
0.606535
0.606537
0.361966
0.65138
0.40681
0.406812
0.54132
0.6962
0.87553
0.63096
0.741045
0.675805
0.496475
0.541321
0.696202
0.875532
0.630964
0.741046
0.675808
0.496477
0.590122
0.769403
0.814248
0.655361
0.700206
0.924332
0.879487
0.590126
0.76941
0.814254
0.655366
0.70021
0.924337
0.879494
0.739482
0
0.693479
0.693479
0.873966
0.873966
0.558996
)
;

boundaryField
{
    inlet
    {
        type            calculated;
        value           uniform 0;
    }
    wall
    {
        type            calculated;
        value           uniform 0;
    }
    outlet
    {
        type            calculated;
        value           uniform 0;
    }
    procBoundary3to1
    {
        type            processor;
        value           uniform 0;
    }
    procBoundary3to2
    {
        type            processor;
        value           uniform 0;
    }
}


// ************************************************************************* //
