/*--------------------------------*- C++ -*----------------------------------*\
| =========                 |                                                 |
| \\      /  F ield         | OpenFOAM: The Open Source CFD Toolbox           |
|  \\    /   O peration     | Version:  5.x                                   |
|   \\  /    A nd           | Web:      www.OpenFOAM.org                      |
|    \\/     M anipulation  |                                                 |
\*---------------------------------------------------------------------------*/
FoamFile
{
    version     2.0;
    format      ascii;
    class       volScalarField;
    location    "0.048";
    object      interFace;
}
// * * * * * * * * * * * * * * * * * * * * * * * * * * * * * * * * * * * * * //

dimensions      [0 0 0 0 0 0 0];

internalField   nonuniform List<scalar> 
1609
(
0
0
0
0
0
0
0
0
0
0
0
0
0
0
0
0
0
0
0
0
0
0
0
0
0
0
0
0
0
0
0
0
0
0
0
0
0
0
0
0
0
0
0
0
0
0
0
0
0
0
0
0
0
0
0
0
0
0
0
0
0
0
0
0
0
0
0
0
0
0
0
0
0
0
0
0
0
0
0
0
0
0
0
0
0
0
0
0
0
0
0
0
0
0
0
0
0
0
0
0
0
0
0
0
0
0
0
0
0
0
0
0
0
0
0
0
0
0
0
0
0
0
0
0
0
0
0
0
0
0
0
0
0
0
0
0
0
0
0
0
0
0
0
0
0
0
0
0
0
0
0
0
0
0
0
0
0
0
0
0
0
0
0
0
0
0
0
0
0
0
0
0
0
0
0
0
0
0
0
0
0
0
0
0
0
0
0
0
0
0
0
0
0
0
0
0
0
0
0
0
0
0
0
0
0
0
0
0
0
0
0
0
0
0
0
0
0
0
0
0
0
0
0
0
0
0
0
0
0
0
0
0
0
0
0
0
0
0
0
0
0
0
0
0
0
0
0
0
0
0
0
0
0
0
0
0
0
0
0
0
0
0
0
0
0
0
0
0
0
0
0
0
0
0
0
0
0
0
0
0
0
0
0
0
0
0
0
0
0
0
0
0
0
0
0
0
0
0
0
0
0
0
0
0
0
0
0
0
0
0
0
0
0
0
0
0
0
0
0
0
0
0
0
0
0
0
0
0
0
0
0
0
0
0
0
0
0
0
0
0
0
0
0
0
0
0
0
0
0
0
0
0
0
0
0
0
0
0
0
0
0
0
0
0
0
0
0
0
0
0
0
0
0
0
0
0
0
0
0
0
0
0
0
0
0
0
0
0
0
0
0
0
0
0
0
0
0
0
0
0
0
0
0
0
0
0
0
0
0
0
0
0
0
0
0
0
0
0
0
0
0
0
0
0
0
0
0
0
0
0
0
0
0
0
0
0
0
0
0
0
0
0
0
0
0
0
0
0
0
0
0
0
0
0
0
0
0
0
0
0
0
0
0
0
0
0
0
0
0
0
0
0
0
0
0
0
0
0
0
0
0
0
0
0
0
0
0
0
0
0
0
0
0
0
0
0
0
0
0
0
0
0
0
0
0
0
0
0
0
0
0
0
0
0
0
0
0
0
0
0
0
0
0
0
0
0
0
0
0
0
0
0
0
0
0
0
0
0
0
0
0
0
0
0
0
0
0
0
0
0
0
0
0
0
0
0
0
0
0
0
0
0
0
0
0
0
0
0
0
0
0
0
0
0
0
0
0
0
0
0
0
0
0
0
0
0
0
0
0
0
0
0
0
0
0
0
0
0
0
0
0
0
0
0
0
0
0
0
0
0
0
0
0
0
0
0
0
0
0
0
0
0
0
0
0
0
0
0
0
0
0
0
0
0
0
0
0
0
0
0
0
0
0
0
0
0
0
0
0
0
0
0
0
0
0
0
0
0
0
0
0
0
0
0
0
0
0
0
0
0
0
0
0
0
0
0
0
0
0
0
0
0
0
0
0
0
0
0
0
0
0
0
0
0
0
0
0
0
0
0
0
0
0
0
0
0
0
0
0
0
0
0
0
0
0
0
0
0
0
0
0
0
0
0
0
0
0
0
0
0
0
0
0
0
0
0
0
0
0
0
0
0
0
0
0
0
0
0
0
0.621879
0
0
0
0
0
0
0
0
0
0
0
0
0
0
0
0
0
0
0
0
0
0
0
0
0.656968
0
0
0
0
0
0
0
0
0
0
0
0
0
0
0
0
0
0
0
0
0
0
0
0
0
0
0
0
0
0
0
0
0
0
0
0
0
0
0
0
0
0
0
0
0
0
0
0
0
0.802356
0
0
0
0
0
0
0
0
0
0
0
0
0
0
0
0
0
0
0
0
0
0
0
0
0.558032
0
0
0
0
0
0
0
0
0
0
0
0
0
0
0
0
0
0
0
0
0
0
0
0
0.99471
0
0
0
0
0
0
0
0
0
0
0
0
0
0
0
0
0
0
0
0
0
0
0
0
0
0
0
0
0
0
0
0
0
0
0
0
0
0
0
0
0
0
0
0
0
0
0
0
0
0
0
0
0
0
0
0
0
0
0
0
0
0
0
0
0
0
0
0
0
0
0
0
0
0
0
0
0
0
0
0
0
0
0
0
0
0
0
0
0
0
0
0
0
0
0
0
0
0
0
0
0
0
0
0
0
0
0
0
0
0
0
0
0
0
0
0
0
0
0
0
0
0
0
0
0
0
0.924656
0.567361
0
0
0
0
0.924658
0
0.567365
0
0
0
0
0.388098
0.388101
0.119231
0.897417
0.885031
0.885034
0.616164
0
0
0
0.933213
0.706616
0.706617
0.437745
0.533484
0.533485
0.264612
0.551882
0.283009
0.28301
0.0141377
0
0.737297
0.468424
0
0
0.982376
0.755796
0.737297
0
0.468425
0
0.982377
0
0.755798
0.289159
0.28916
0.0202874
0.845404
0.576531
0.576532
0.30766
0
0
0
0
0
0
0
0
0
0
0
0
0
0
0.761963
0.761964
0.493091
0
0
0
0
0.584926
0.674566
0.929833
0.750588
0.719369
0.795391
0.540123
0.584927
0.674569
0.929835
0.75059
0.719371
0.795392
0.540125
0.495304
0.405699
0.660966
0.660967
0.705768
0.450501
0.450502
0.346279
0.43592
0.621335
0.442087
0.480724
0.486891
0.301476
0.34628
0.435921
0.621336
0.442087
0.480724
0.486891
0.301476
0.256655
0.167048
0.352463
0.352463
0.397267
0.211852
0.211852
0.902575
0.806767
0.627519
0.992215
0.672322
0
0.857771
0.902575
0.806767
0.627519
0.992216
0.672323
0
0.857772
0.812951
0.537895
0.537895
0.723344
0.582698
0.768147
0.768147
0.353009
0.353012
0.0841417
0.580965
0.312095
0.312098
0.043228
0.329659
0.164033
0.164034
0.240055
0.208836
0.284857
0.284858
0.419282
0.432901
0.253655
0.508922
0.298458
0.553724
0.374479
0.419283
0.432903
0.253657
0.508925
0.298459
0.553726
0.374481
0.435903
0.704793
0.710959
0.710959
0.570348
0.570348
0.576515
0.508905
0.522524
0.522525
0.777792
0.388081
0.643348
0.643349
0.160865
0.0650908
0.0650911
0.0712576
0.109894
0.116061
0.116061
0.884074
0.615185
0.979882
0.8006
0.659989
0
0.83927
0.884075
0.615186
0.800601
0.979883
0.65999
0
0.839272
0.250489
0.333963
0.154715
0.340129
0.199518
0.384933
0.205685
0.250489
0.333963
0.154715
0.34013
0.199519
0.384934
0.205685
0.0880297
0.0880307
0.132832
0.10165
0.0120453
0.0568471
0.0568481
0
0.801142
0.532272
0
0
0.760228
0.491358
0.801143
0
0.532276
0
0.760229
0
0.491362
0.957072
0.791445
0.612164
0.688185
0.836248
0.732988
0.912269
0.957076
0.612167
0.79145
0.688189
0.836252
0.732991
0.912274
0.356898
0.177652
0.222455
0.191272
0.280912
0.325715
0.146469
0.3569
0.177654
0.222456
0.191273
0.280915
0.325717
0.146471
0.340113
0.423587
0.423587
0.609002
0.289143
0.474557
0.474558
0.446521
0.446522
0.312078
0.280895
0.549782
0.415338
0.415339
0
0
0
0
0
0
0
0.142416
0.0528086
0.0589411
0.0589414
0.103745
0.097612
0.0976123
0
0.945478
0.712749
0
0
0.731147
0.462274
0.945479
0
0.71275
0
0.731147
0
0.462276
0.23204
0.32168
0.327813
0.148565
0.366484
0.193369
0.187236
0.23204
0.321681
0.327814
0.148566
0.366485
0.193369
0.187237
0.788283
0.69251
0.513228
0.519394
0.737313
0.564198
0.74348
0.788285
0.513229
0.692511
0.519396
0.737315
0.564199
0.743481
0.85455
0.854552
0.675305
0.725158
0.456288
0.456291
0.187421
0.115288
0.128944
0.128945
0.0256833
0.173746
0.070485
0.070486
0.20491
0.397811
0.218566
0.29455
0.263369
0.339353
0.160107
0.204911
0.397813
0.218568
0.294553
0.26337
0.339355
0.160109
0.715442
0.536161
0.760245
0.460176
0.504978
0.729062
0.68426
0.536164
0.715447
0.760249
0.46018
0.504981
0.729066
0.684265
0.321664
0.590553
0.417437
0.417438
0.456108
0.456109
0.282993
0.294533
0.487435
0.487436
0.56342
0.352992
0.428976
0.428977
0.877908
0.961382
0.602852
0.788267
0.826937
0
0.653822
0.877909
0.961383
0.602853
0.788267
0.826938
0
0.653823
0.225907
0.309415
0.309416
0.1363
0.354219
0.181103
0.181104
0
0
0
0
0
0
0
0.984312
0.625784
0.849868
0.729046
0.594602
0.818686
0.953129
0.984314
0.625786
0.849871
0.729047
0.594604
0.818689
0.953131
0.500945
0.68636
0.507078
0.545749
0.731164
0.769834
0.725031
0.500947
0.507079
0.686362
0.54575
0.731165
0.769836
0.725032
0.315531
0.578287
0.399039
0.405172
0.443843
0.449975
0.270727
0.315531
0.578288
0.39904
0.405173
0.443843
0.449976
0.270728
0.232223
0.232224
0.277025
0.425125
0.33552
0.380322
0.380323
0
0
0
0
0
0
0.827236
0
0
0
0
0
0
0.82724
0.577075
0.473814
0.518616
0.7427
0.756356
0.801159
0.697898
0.577078
0.473818
0.518619
0.742704
0.756361
0.801163
0.697902
0.405155
0.667912
0.667912
0.674044
0.533467
0.5396
0.5396
0.50109
0.321845
0.366648
0.514747
0.604387
0.64919
0.469944
0.501092
0.321847
0.366649
0.514748
0.60439
0.649192
0.469946
0.590714
0.590715
0.456271
0.60437
0.873257
0.738813
0.738814
0
0
0
0
0
0
0
0.769818
0.955233
0.596702
0.635373
0.820788
0.859459
0.993903
0.769818
0.955233
0.596703
0.635374
0.820789
0.85946
0.993904
0.745305
0.655698
0.482548
0.482548
0.527352
0.700501
0.700501
0.666698
0.742684
0.60824
0.832324
0
0.890782
0.966767
0.6667
0.742684
0.608242
0.832327
0
0.890785
0.966769
0
0
0
0
0
0
0
0
0
0
0
0
0
0
0.834929
0.924569
0.75142
0.572172
0.969373
0.616975
0.790125
0.834929
0.92457
0.751421
0.572172
0.969374
0.616976
0.790125
0.936834
0.757552
0.584437
0.981638
0.62924
0.853326
0.808522
0.757553
0.936836
0.584438
0.981639
0.629241
0.853327
0.808524
)
;

boundaryField
{
    inlet
    {
        type            calculated;
        value           uniform 0;
    }
    wall
    {
        type            calculated;
        value           uniform 0;
    }
    outlet
    {
        type            calculated;
        value           uniform 0;
    }
    procBoundary0to1
    {
        type            processor;
        value           uniform 0;
    }
    procBoundary0to2
    {
        type            processor;
        value           uniform 0;
    }
}


// ************************************************************************* //
