/*--------------------------------*- C++ -*----------------------------------*\
| =========                 |                                                 |
| \\      /  F ield         | OpenFOAM: The Open Source CFD Toolbox           |
|  \\    /   O peration     | Version:  5.x                                   |
|   \\  /    A nd           | Web:      www.OpenFOAM.org                      |
|    \\/     M anipulation  |                                                 |
\*---------------------------------------------------------------------------*/
FoamFile
{
    version     2.0;
    format      ascii;
    class       surfaceScalarField;
    location    "0.048";
    object      phi;
}
// * * * * * * * * * * * * * * * * * * * * * * * * * * * * * * * * * * * * * //

dimensions      [0 3 -1 0 0 0 0];

internalField   nonuniform List<scalar> 
4465
(
-9.13379e-08
-9.15751e-08
-1.19654e-08
-6.30884e-08
-9.04108e-08
-1.5188e-08
-5.36437e-08
-8.84075e-08
-2.23311e-11
-2.66959e-08
-9.18764e-08
-1.80042e-08
-9.2304e-08
-1.48354e-08
-9.01738e-08
-6.333e-08
-1.52302e-08
-6.93508e-08
-6.95944e-08
-4.16334e-08
-5.74407e-08
-6.96108e-08
-3.07004e-08
-2.93915e-08
-7.21714e-08
-4.7747e-08
-7.26353e-08
-4.44891e-08
-8.81722e-08
-5.39121e-08
-4.25194e-11
-6.93684e-08
-5.77084e-08
-3.06833e-08
-5.78892e-08
-5.81559e-08
-2.29275e-08
-2.99767e-08
-5.97111e-08
-4.03648e-08
-6.00949e-08
-3.73808e-08
-9.16403e-08
-2.69656e-08
-1.80501e-08
-7.19281e-08
-2.96606e-08
-4.77526e-08
-5.94449e-08
-3.02441e-08
-4.0387e-08
-3.09414e-08
-3.12081e-08
-5.6994e-08
-3.15759e-08
-5.38541e-08
-9.20661e-08
-1.48643e-08
-7.23906e-08
-4.44754e-08
-5.98275e-08
-3.73869e-08
-3.13101e-08
-5.3838e-08
-5.07517e-08
-7.37525e-08
-7.38676e-08
2.4467e-08
-6.99364e-08
-5.65899e-08
-5.28643e-09
-5.2537e-08
-5.27363e-08
-5.95319e-09
-3.43147e-08
-4.75986e-08
-2.60024e-08
-4.64908e-08
-2.71676e-08
-5.64761e-08
-7.0104e-08
-5.31623e-09
-5.80768e-08
-5.82418e-08
-3.83726e-08
-4.67216e-08
-5.4586e-08
-4.01971e-08
-3.06713e-08
-5.03179e-08
-6.10673e-08
-4.90167e-08
-6.24254e-08
-5.26195e-08
-5.27298e-08
-5.98865e-09
-5.44188e-08
-4.69141e-08
-4.02029e-08
-4.44836e-08
-4.46775e-08
-4.2761e-08
-2.91985e-08
-4.19321e-08
-6.40204e-08
-4.08946e-08
-6.55518e-08
-4.7483e-08
-3.45281e-08
-2.60672e-08
-5.01526e-08
-3.08839e-08
-6.11026e-08
-4.17395e-08
-2.94127e-08
-6.40496e-08
-2.73033e-08
-2.75168e-08
-8.58152e-08
-2.66395e-08
-8.74922e-08
-4.6376e-08
-2.72405e-08
-4.88506e-08
-6.24688e-08
-4.07006e-08
-6.55896e-08
-2.64233e-08
-8.7501e-08
-8.92729e-08
-9.09523e-08
-9.11722e-08
4.4028e-08
-7.72389e-08
-9.6029e-08
-9.2136e-09
-6.32829e-08
-9.63644e-08
-1.04857e-08
-3.36825e-08
-9.89092e-08
-4.60754e-08
-9.93578e-08
-4.74949e-08
-9.5809e-08
-7.74824e-08
-9.2634e-09
-8.12098e-08
-8.14536e-08
-6.75408e-08
-6.62018e-08
-8.17962e-08
-6.97672e-08
-3.56353e-08
-8.38418e-08
-1.06695e-07
-8.42473e-08
-1.08318e-07
-9.61447e-08
-6.3551e-08
-1.05401e-08
-8.15524e-08
-6.64699e-08
-6.97728e-08
-6.65488e-08
-6.68169e-08
-7.27383e-08
-3.59627e-08
-6.83768e-08
-1.10065e-07
-6.87319e-08
-1.11911e-07
-9.86897e-08
-3.39582e-08
-4.61759e-08
-8.35983e-08
-3.59113e-08
-1.06746e-07
-6.8109e-08
-3.6239e-08
-1.1011e-07
-3.70013e-08
-3.72774e-08
-1.48009e-07
-3.75753e-08
-1.49984e-07
-9.91381e-08
-4.76049e-08
-8.40035e-08
-1.08379e-07
-6.84638e-08
-1.11966e-07
-3.7299e-08
-1.49994e-07
-1.52088e-07
-1.1134e-07
-1.11519e-07
7.0585e-08
-9.88965e-08
-1.07549e-07
-8.93995e-09
-8.00826e-08
-1.06791e-07
-1.69323e-08
-4.73279e-08
-1.04844e-07
-6.68179e-08
-1.0438e-07
-7.13161e-08
-1.0737e-07
-9.91125e-08
-8.9937e-09
-9.57117e-08
-9.5927e-08
-9.08161e-08
-7.79373e-08
-9.5086e-08
-9.92408e-08
-4.55655e-08
-9.33444e-08
-1.50561e-07
-9.27967e-08
-1.55278e-07
-1.06611e-07
-8.03236e-08
-1.70027e-08
-9.48701e-08
-7.81781e-08
-9.92575e-08
-7.72813e-08
-7.75227e-08
-1.07885e-07
-4.50291e-08
-7.61474e-08
-1.59509e-07
-7.56536e-08
-1.64331e-07
-1.04665e-07
-4.75856e-08
-6.69424e-08
-9.31291e-08
-4.58229e-08
-1.50632e-07
-7.59066e-08
-4.52871e-08
-1.59563e-07
-4.38272e-08
-4.40846e-08
-2.12142e-07
-4.36283e-08
-2.17148e-07
-1.04201e-07
-7.14645e-08
-9.2581e-08
-1.55373e-07
-7.54122e-08
-1.64409e-07
-4.33699e-08
-2.17172e-07
-2.22258e-07
-1.49975e-07
-1.50227e-07
9.94157e-08
-1.28649e-07
-1.54345e-07
-1.53395e-08
-1.03773e-07
-1.54941e-07
-2.68665e-08
-5.58056e-08
-1.57498e-07
-9.9526e-08
-1.57978e-07
-1.0596e-07
-1.54094e-07
-1.28933e-07
-1.5411e-08
-1.32208e-07
-1.32492e-07
-1.34552e-07
-1.06639e-07
-1.33027e-07
-1.4672e-07
-5.75689e-08
-1.35244e-07
-2.21882e-07
-1.3569e-07
-2.28653e-07
-1.54689e-07
-1.04086e-07
-2.6959e-08
-1.32743e-07
-1.06951e-07
-1.46741e-07
-1.07105e-07
-1.07418e-07
-1.59128e-07
-5.79097e-08
-1.09238e-07
-2.34708e-07
-1.09644e-07
-2.41603e-07
-1.57247e-07
-5.61299e-08
-9.9689e-08
-1.3496e-07
-5.78935e-08
-2.21974e-07
-1.08925e-07
-5.82346e-08
-2.34778e-07
-5.90422e-08
-5.93671e-08
-3.11889e-07
-5.9686e-08
-3.19027e-07
-1.57727e-07
-1.06153e-07
-1.35406e-07
-2.28775e-07
-1.09331e-07
-2.41704e-07
-5.93609e-08
-3.19057e-07
-3.26292e-07
-2.04843e-07
-2.05098e-07
1.41232e-07
-1.7749e-07
-2.06969e-07
-2.15637e-08
-1.43375e-07
-2.07196e-07
-3.9874e-08
-7.9469e-08
-2.08302e-07
-1.42195e-07
-2.08356e-07
-1.5231e-07
-2.06713e-07
-1.77785e-07
-2.1648e-08
-1.79094e-07
-1.79389e-07
-1.89751e-07
-1.44561e-07
-1.7955e-07
-2.089e-07
-7.97015e-08
-1.80449e-07
-3.14594e-07
-1.80459e-07
-3.25207e-07
-2.0694e-07
-1.43701e-07
-3.99886e-08
-1.79254e-07
-1.44886e-07
-2.0893e-07
-1.44676e-07
-1.45002e-07
-2.28253e-07
-7.9688e-08
-1.45622e-07
-3.34522e-07
-1.45611e-07
-3.45247e-07
-2.08047e-07
-7.98107e-08
-1.42394e-07
-1.80154e-07
-8.00432e-08
-3.14709e-07
-1.45297e-07
-8.00301e-08
-3.34607e-07
-7.97075e-08
-8.00493e-08
-4.4305e-07
-7.99702e-08
-4.54141e-07
-2.081e-07
-1.52552e-07
-1.80163e-07
-3.25365e-07
-1.45285e-07
-3.45375e-07
-7.96279e-08
-4.54184e-07
-4.65372e-07
-2.79289e-07
-2.79614e-07
1.94562e-07
-2.39775e-07
-2.8675e-07
-3.35433e-08
-1.92205e-07
-2.87768e-07
-5.98507e-08
-1.02761e-07
-2.92382e-07
-2.03462e-07
-2.93087e-07
-2.17926e-07
-2.86425e-07
-2.40144e-07
-3.3649e-08
-2.46066e-07
-2.46434e-07
-2.70429e-07
-1.97277e-07
-2.47348e-07
-2.98112e-07
-1.05604e-07
-2.51413e-07
-4.47239e-07
-2.5206e-07
-4.62508e-07
-2.87443e-07
-1.92609e-07
-5.99951e-08
-2.46979e-07
-1.97682e-07
-2.9815e-07
-1.98046e-07
-1.98451e-07
-3.26087e-07
-1.06108e-07
-2.01758e-07
-4.76119e-07
-2.0233e-07
-4.91542e-07
-2.92058e-07
-1.03181e-07
-2.03711e-07
-2.51045e-07
-1.06024e-07
-4.47383e-07
-2.01353e-07
-1.06528e-07
-4.76225e-07
-1.07993e-07
-1.08414e-07
-6.29758e-07
-1.08845e-07
-6.45692e-07
-2.92763e-07
-2.1823e-07
-2.51691e-07
-4.62705e-07
-2.01925e-07
-4.91702e-07
-1.08424e-07
-6.45747e-07
-6.61801e-07
-3.94047e-07
-3.94408e-07
2.7421e-07
-3.39828e-07
-4.03877e-07
-4.67846e-08
-2.72876e-07
-4.05382e-07
-8.56466e-08
-1.46782e-07
-4.11276e-07
-2.87588e-07
-4.12137e-07
-3.08931e-07
-4.03516e-07
-3.4024e-07
-4.69114e-08
-3.48136e-07
-3.48548e-07
-3.81146e-07
-2.79289e-07
-3.49885e-07
-4.22463e-07
-1.50017e-07
-3.55017e-07
-6.32778e-07
-3.55799e-07
-6.55554e-07
-4.05021e-07
-2.73327e-07
-8.58237e-08
-3.49473e-07
-2.79741e-07
-4.22512e-07
-2.80402e-07
-2.80855e-07
-4.64195e-07
-1.50609e-07
-2.84889e-07
-6.7605e-07
-2.85576e-07
-6.99042e-07
-4.10916e-07
-1.47252e-07
-2.8789e-07
-3.54606e-07
-1.50488e-07
-6.32953e-07
-2.84437e-07
-1.5108e-07
-6.76176e-07
-1.52628e-07
-1.53099e-07
-8.93367e-07
-1.53498e-07
-9.17342e-07
-4.11776e-07
-3.09304e-07
-3.55387e-07
-6.558e-07
-2.85124e-07
-6.99239e-07
-1.53026e-07
-9.17412e-07
-9.41585e-07
-5.36764e-07
-5.37212e-07
3.78596e-07
-4.62e-07
-5.54099e-07
-6.73449e-08
-3.69239e-07
-5.56565e-07
-1.23973e-07
-1.96142e-07
-5.67597e-07
-4.04813e-07
-5.69155e-07
-4.35923e-07
-5.53652e-07
-4.62508e-07
-6.75015e-08
-4.77033e-07
-4.77541e-07
-5.34331e-07
-3.81268e-07
-4.79812e-07
-5.94991e-07
-2.02692e-07
-4.89674e-07
-8.89286e-07
-4.91068e-07
-9.22791e-07
-5.56117e-07
-3.69794e-07
-1.24195e-07
-4.79302e-07
-3.81823e-07
-5.95054e-07
-3.83176e-07
-3.83733e-07
-6.56409e-07
-2.03833e-07
-3.91656e-07
-9.53421e-07
-3.92819e-07
-9.87296e-07
-5.6715e-07
-1.96716e-07
-4.05187e-07
-4.89166e-07
-2.03267e-07
-8.89502e-07
-3.91101e-07
-2.04409e-07
-9.53576e-07
-2.08145e-07
-2.08721e-07
-1.25928e-06
-2.09507e-07
-1.29448e-06
-5.68708e-07
-4.36387e-07
-4.9056e-07
-9.23097e-07
-3.92262e-07
-9.8754e-07
-2.0893e-07
-1.29457e-06
-1.32997e-06
-7.69599e-07
-7.70112e-07
5.39012e-07
-6.65341e-07
-7.96643e-07
-8.78647e-08
-5.329e-07
-8.01607e-07
-1.72024e-07
-2.83133e-07
-8.18423e-07
-5.67585e-07
-8.2142e-07
-6.14117e-07
-7.96131e-07
-6.65926e-07
-8.80535e-08
-6.89099e-07
-6.89683e-07
-7.48332e-07
-5.51472e-07
-6.93967e-07
-8.40267e-07
-2.93137e-07
-7.08869e-07
-1.25719e-06
-7.11669e-07
-1.30819e-06
-8.01093e-07
-5.33539e-07
-1.72296e-07
-6.93382e-07
-5.5211e-07
-8.40347e-07
-5.55038e-07
-5.55678e-07
-9.33053e-07
-2.95153e-07
-5.67898e-07
-1.35429e-06
-5.70559e-07
-1.40588e-06
-8.17911e-07
-2.83796e-07
-5.68038e-07
-7.08286e-07
-2.93801e-07
-1.25745e-06
-5.67259e-07
-2.95818e-07
-1.35447e-06
-3.02009e-07
-3.02673e-07
-1.78977e-06
-3.04309e-07
-1.84496e-06
-8.20906e-07
-6.14686e-07
-7.11084e-07
-1.30857e-06
-5.69919e-07
-1.40617e-06
-3.03643e-07
-1.84507e-06
-1.90104e-06
-1.04012e-06
-1.04076e-06
7.49103e-07
-9.0057e-07
-1.08319e-06
-1.16666e-07
-7.18365e-07
-1.09082e-06
-2.41995e-07
-3.8056e-07
-1.11928e-06
-7.8865e-07
-1.12395e-06
-8.58115e-07
-1.08255e-06
-9.013e-07
-1.169e-07
-9.39037e-07
-9.39765e-07
-1.03528e-06
-7.49099e-07
-9.47508e-07
-1.17353e-06
-3.97401e-07
-9.74181e-07
-1.75399e-06
-9.78416e-07
-1.83148e-06
-1.09018e-06
-7.19158e-07
-2.42339e-07
-9.46776e-07
-7.49891e-07
-1.17363e-06
-7.55961e-07
-7.56757e-07
-1.31463e-06
-4.01107e-07
-7.77472e-07
-1.90586e-06
-7.80084e-07
-1.98523e-06
-1.11864e-06
-3.81375e-07
-7.89213e-07
-9.73454e-07
-3.98217e-07
-1.75432e-06
-7.7668e-07
-4.01926e-07
-1.90609e-06
-4.11699e-07
-4.12515e-07
-2.51972e-06
-4.1403e-07
-2.60182e-06
-1.12331e-06
-8.58829e-07
-9.77684e-07
-1.83195e-06
-7.79286e-07
-1.9856e-06
-4.13209e-07
-2.60196e-06
-2.68438e-06
-1.51615e-06
-1.51689e-06
1.08877e-06
-1.32088e-06
-1.58665e-06
-1.3157e-07
-1.05477e-06
-1.60229e-06
-3.25434e-07
-5.58522e-07
-1.64747e-06
-1.09361e-06
-1.65763e-06
-1.19909e-06
-1.58591e-06
-1.32172e-06
-1.31854e-07
-1.38515e-06
-1.386e-06
-1.43668e-06
-1.10706e-06
-1.39961e-06
-1.6543e-06
-5.87031e-07
-1.44077e-06
-2.48073e-06
-1.45125e-06
-2.60055e-06
-1.60155e-06
-1.05569e-06
-3.25864e-07
-1.39876e-06
-1.10798e-06
-1.65443e-06
-1.11745e-06
-1.11837e-06
-1.87719e-06
-5.93239e-07
-1.15479e-06
-2.71605e-06
-1.1654e-06
-2.83955e-06
-1.64673e-06
-5.59473e-07
-1.0943e-06
-1.43992e-06
-5.8798e-07
-2.48112e-06
-1.15387e-06
-5.94193e-07
-2.71632e-06
-6.15314e-07
-6.16273e-07
-3.5968e-06
-6.22622e-07
-3.7345e-06
-1.65688e-06
-1.19998e-06
-1.4504e-06
-2.60113e-06
-1.16448e-06
-2.84e-06
-6.21658e-07
-3.73469e-06
-3.87553e-06
-2.04095e-06
-2.04191e-06
1.56948e-06
-1.80263e-06
-2.15037e-06
-1.12835e-07
-1.45677e-06
-2.17743e-06
-4.05948e-07
-7.77306e-07
-2.27093e-06
-1.47346e-06
-2.29449e-06
-1.63721e-06
-2.14941e-06
-1.80373e-06
-1.13197e-07
-1.90417e-06
-1.90527e-06
-1.92701e-06
-1.53175e-06
-1.94095e-06
-2.26319e-06
-8.19842e-07
-2.04741e-06
-3.41614e-06
-2.07734e-06
-3.60801e-06
-2.17647e-06
-1.45796e-06
-4.0651e-07
-1.93984e-06
-1.53294e-06
-2.26338e-06
-1.57862e-06
-1.57984e-06
-2.59951e-06
-8.50438e-07
-1.68991e-06
-3.80174e-06
-1.72967e-06
-4.0068e-06
-2.26997e-06
-7.78526e-07
-1.47435e-06
-2.04631e-06
-8.2107e-07
-3.41666e-06
-1.68869e-06
-8.51693e-07
-3.80208e-06
-9.14716e-07
-9.15995e-07
-5.14466e-06
-9.41229e-07
-5.40466e-06
-2.29353e-06
-1.63836e-06
-2.07623e-06
-3.60878e-06
-1.72843e-06
-4.0074e-06
-9.39928e-07
-5.40492e-06
-5.68608e-06
-3.07343e-06
-3.07456e-06
2.45378e-06
-2.78715e-06
-3.26019e-06
7.90844e-08
-2.3189e-06
-3.31951e-06
-3.76163e-07
-1.25637e-06
-3.52436e-06
-1.92982e-06
-3.5899e-06
-2.20804e-06
-3.25907e-06
-2.78848e-06
7.86417e-08
-2.9755e-06
-2.97681e-06
-2.49393e-06
-2.46935e-06
-3.07447e-06
-3.01436e-06
-1.34453e-06
-3.34534e-06
-4.71996e-06
-3.45124e-06
-5.05365e-06
-3.31837e-06
-2.32037e-06
-3.76877e-07
-3.07312e-06
-2.47082e-06
-3.01461e-06
-2.59011e-06
-2.59162e-06
-3.56535e-06
-1.41827e-06
-2.97053e-06
-5.34835e-06
-3.12728e-06
-5.70892e-06
-3.52324e-06
-1.25788e-06
-1.93093e-06
-3.34399e-06
-1.34606e-06
-4.72064e-06
-2.96899e-06
-1.41987e-06
-5.3488e-06
-1.62281e-06
-1.62452e-06
-7.83682e-06
-1.69693e-06
-8.41264e-06
-3.5888e-06
-2.20948e-06
-3.44991e-06
-5.05468e-06
-3.12579e-06
-5.70972e-06
-1.6952e-06
-8.41314e-06
-8.98138e-06
-4.11182e-06
-4.11334e-06
3.77641e-06
-3.85936e-06
-4.42115e-06
5.62008e-07
-3.25998e-06
-4.61148e-06
-1.15511e-07
-1.78861e-06
-5.14365e-06
-2.14454e-06
-5.36543e-06
-2.51844e-06
-4.41967e-06
-3.86118e-06
5.61468e-07
-4.19479e-06
-4.19655e-06
-2.94338e-06
-3.62974e-06
-4.45317e-06
-3.7377e-06
-1.99685e-06
-4.96132e-06
-6.53514e-06
-5.08647e-06
-7.28045e-06
-4.61005e-06
-3.26196e-06
-1.1638e-07
-4.45128e-06
-3.6319e-06
-3.73801e-06
-3.93763e-06
-3.93985e-06
-4.59228e-06
-2.12381e-06
-4.08277e-06
-8.04068e-06
-4.07782e-06
-8.78972e-06
-5.14233e-06
-1.79063e-06
-2.14587e-06
-4.95941e-06
-1.99901e-06
-6.53641e-06
-4.08057e-06
-2.12604e-06
-8.04142e-06
-2.17428e-06
-2.17641e-06
-1.16494e-05
-2.18715e-06
-1.2425e-05
-5.36419e-06
-2.5202e-06
-5.08453e-06
-7.28234e-06
-4.07551e-06
-8.79105e-06
-2.18498e-06
-1.24255e-05
-1.32423e-05
-6.04224e-06
-6.0439e-06
5.61504e-06
-5.7167e-06
-6.66185e-06
1.40096e-06
-4.85718e-06
-7.03222e-06
4.57675e-07
-2.62621e-06
-7.78167e-06
-2.43418e-06
-7.9306e-06
-3.07323e-06
-6.66024e-06
-5.71863e-06
1.40029e-06
-6.42168e-06
-6.42354e-06
-3.42022e-06
-5.37785e-06
-6.77127e-06
-5.04244e-06
-2.85527e-06
-6.93654e-06
-9.90282e-06
-7.03418e-06
-1.09838e-05
-7.0307e-06
-4.85916e-06
4.56571e-07
-6.76926e-06
-5.37988e-06
-5.04308e-06
-5.4303e-06
-5.43242e-06
-7.27005e-06
-2.91671e-06
-5.46198e-06
-1.20288e-05
-5.49969e-06
-1.31911e-05
-7.7799e-06
-2.62818e-06
-2.43605e-06
-6.93461e-06
-2.85731e-06
-9.90422e-06
-5.45999e-06
-2.91881e-06
-1.20296e-05
-2.98546e-06
-2.98747e-06
-1.65984e-05
-3.01759e-06
-1.78415e-05
-7.92875e-06
-3.07564e-06
-7.03221e-06
-1.09859e-05
-5.49767e-06
-1.31926e-05
-3.01558e-06
-1.78421e-05
-1.91682e-05
-7.2887e-06
-7.29088e-06
7.1101e-06
-6.87868e-06
-8.51936e-06
2.38573e-06
-5.69089e-06
-8.97019e-06
8.98364e-07
-3.27733e-06
-9.27344e-06
-3.23304e-06
-9.27609e-06
-4.80524e-06
-8.51728e-06
-6.88123e-06
2.38499e-06
-7.71776e-06
-7.72002e-06
-5.01904e-06
-5.99157e-06
-7.88524e-06
-7.85354e-06
-3.28965e-06
-8.24695e-06
-1.36312e-05
-8.35941e-06
-1.51371e-05
-8.96801e-06
-5.69385e-06
8.97188e-07
-7.88284e-06
-5.99407e-06
-7.85416e-06
-6.13081e-06
-6.13328e-06
-1.0774e-05
-3.35369e-06
-6.43243e-06
-1.66204e-05
-6.54399e-06
-1.83052e-05
-9.27059e-06
-3.27998e-06
-3.23634e-06
-8.2444e-06
-3.29204e-06
-1.36324e-05
-6.42998e-06
-3.35608e-06
-1.66212e-05
-3.52279e-06
-3.52514e-06
-2.24129e-05
-3.59678e-06
-2.42514e-05
-9.27294e-06
-4.80947e-06
-8.35661e-06
-1.51391e-05
-6.54138e-06
-1.83068e-05
-3.59434e-06
-2.4252e-05
-2.62311e-05
-1.12795e-05
-1.12817e-05
9.77062e-06
-1.03667e-05
-1.24505e-05
3.25891e-06
-8.78495e-06
-1.2935e-05
1.21621e-06
-4.68821e-06
-1.31347e-05
-5.61894e-06
-1.34065e-05
-7.7032e-06
-1.24484e-05
-1.03694e-05
3.25826e-06
-1.13055e-05
-1.1308e-05
-7.30447e-06
-9.00674e-06
-1.17967e-05
-1.12905e-05
-4.99247e-06
-1.22797e-05
-1.85005e-05
-1.2598e-05
-2.08782e-05
-1.29327e-05
-8.78726e-06
1.21427e-06
-1.17941e-05
-9.00934e-06
-1.12913e-05
-9.3284e-06
-9.33109e-06
-1.57053e-05
-5.21359e-06
-9.74365e-06
-2.32712e-05
-1.00251e-05
-2.60293e-05
-1.31326e-05
-4.69051e-06
-5.62259e-06
-1.22771e-05
-4.99506e-06
-1.85021e-05
-9.741e-06
-5.21626e-06
-2.32721e-05
-5.48058e-06
-5.48321e-06
-3.09337e-05
-5.67737e-06
-3.40135e-05
-1.34042e-05
-7.70794e-06
-1.25953e-05
-2.08807e-05
-1.00224e-05
-2.60312e-05
-5.67466e-06
-3.40143e-05
-3.74427e-05
-1.42278e-05
-1.42309e-05
1.3167e-05
-1.29661e-05
-1.5714e-05
4.05858e-06
-1.06012e-05
-1.65742e-05
1.12319e-06
-5.81553e-06
-1.73538e-05
-8.07064e-06
-1.78526e-05
-1.10508e-05
-1.5711e-05
-1.29695e-05
4.05759e-06
-1.45671e-05
-1.45704e-05
-9.59191e-06
-1.16302e-05
-1.53875e-05
-1.54141e-05
-6.51309e-06
-1.63095e-05
-2.46619e-05
-1.68626e-05
-2.8309e-05
-1.65711e-05
-1.06047e-05
1.1209e-06
-1.5384e-05
-1.16336e-05
-1.54151e-05
-1.22395e-05
-1.2243e-05
-2.19942e-05
-6.89983e-06
-1.29977e-05
-3.19227e-05
-1.34888e-05
-3.62279e-05
-1.73507e-05
-5.81893e-06
-8.07496e-06
-1.63062e-05
-6.5164e-06
-2.46638e-05
-1.29942e-05
-6.90325e-06
-3.19238e-05
-7.39781e-06
-7.40114e-06
-4.21266e-05
-7.73427e-06
-4.70822e-05
-1.78492e-05
-1.10568e-05
-1.68589e-05
-2.83122e-05
-1.34851e-05
-3.62302e-05
-7.73079e-06
-4.70832e-05
-5.27296e-05
-2.2187e-05
-2.21908e-05
1.93666e-05
-2.06259e-05
-2.40465e-05
5.99995e-06
-1.65844e-05
-2.56603e-05
9.69086e-07
-9.33875e-06
-2.70251e-05
-1.10836e-05
-2.82321e-05
-1.57731e-05
-2.40428e-05
-2.06298e-05
5.99826e-06
-2.29993e-05
-2.30033e-05
-1.16785e-05
-1.84875e-05
-2.48763e-05
-2.07098e-05
-1.06439e-05
-2.65439e-05
-3.29866e-05
-2.80049e-05
-3.90937e-05
-2.56566e-05
-1.65887e-05
9.66478e-07
-2.48722e-05
-1.84916e-05
-2.07111e-05
-2.0109e-05
-2.01133e-05
-3.15204e-05
-1.17483e-05
-2.15889e-05
-4.52385e-05
-2.30241e-05
-5.28687e-05
-2.70214e-05
-9.34285e-06
-1.10889e-05
-2.65399e-05
-1.06479e-05
-3.29891e-05
-2.15847e-05
-1.17525e-05
-4.52398e-05
-1.28076e-05
-1.28117e-05
-5.96809e-05
-1.39317e-05
-6.88865e-05
-2.82281e-05
-1.57806e-05
-2.80006e-05
-3.90976e-05
-2.30197e-05
-5.28715e-05
-1.39275e-05
-6.88878e-05
-8.03839e-05
-2.71451e-05
-2.71504e-05
2.71631e-05
-2.58757e-05
-3.07557e-05
9.62887e-06
-2.11395e-05
-3.3565e-05
1.88545e-06
-1.2156e-05
-3.60952e-05
-1.37102e-05
-3.81479e-05
-2.09361e-05
-3.07507e-05
-2.58815e-05
9.6266e-06
-3.01623e-05
-3.01677e-05
-1.2855e-05
-2.4579e-05
-3.32989e-05
-2.65592e-05
-1.44671e-05
-3.64103e-05
-4.27834e-05
-3.90572e-05
-5.25467e-05
-3.35595e-05
-2.11453e-05
1.88171e-06
-3.32931e-05
-2.45844e-05
-2.65608e-05
-2.74246e-05
-2.74304e-05
-4.32573e-05
-1.64304e-05
-3.03506e-05
-6.22923e-05
-3.31309e-05
-7.51172e-05
-3.60899e-05
-1.21613e-05
-1.3717e-05
-3.64048e-05
-1.44722e-05
-4.27863e-05
-3.03452e-05
-1.64359e-05
-6.22939e-05
-1.8687e-05
-1.86921e-05
-8.29976e-05
-2.0742e-05
-9.98374e-05
-3.8142e-05
-2.0946e-05
-3.90513e-05
-5.25515e-05
-3.31251e-05
-7.5121e-05
-2.07365e-05
-9.9839e-05
-0.000121596
-4.2947e-05
-4.29536e-05
4.19539e-05
-4.23584e-05
-4.79483e-05
1.80209e-05
-3.44829e-05
-5.35396e-05
4.67269e-06
-2.03941e-05
-5.79939e-05
-1.52832e-05
-6.31981e-05
-2.67377e-05
-4.7942e-05
-4.23659e-05
1.8018e-05
-4.89414e-05
-4.89483e-05
-1.08555e-05
-4.07014e-05
-5.66031e-05
-3.17357e-05
-2.50283e-05
-6.29028e-05
-5.35476e-05
-7.02197e-05
-7.04257e-05
-5.35325e-05
-3.449e-05
4.66675e-06
-5.65956e-05
-4.07084e-05
-3.17376e-05
-4.84301e-05
-4.84378e-05
-5.9588e-05
-3.08791e-05
-5.43533e-05
-8.83927e-05
-6.18366e-05
-0.000114248
-5.79876e-05
-2.04009e-05
-1.52915e-05
-6.28961e-05
-2.50349e-05
-5.35511e-05
-5.43463e-05
-3.08863e-05
-8.83951e-05
-3.5502e-05
-3.55086e-05
-0.000120687
-4.15542e-05
-0.000155474
-6.31911e-05
-2.67502e-05
-7.02126e-05
-7.0432e-05
-6.18289e-05
-0.000114254
-4.15471e-05
-0.000155476
-0.000204387
-5.15575e-05
-5.15665e-05
6.14455e-05
-5.23049e-05
-6.04848e-05
3.17683e-05
-4.3807e-05
-7.01477e-05
1.23709e-05
-2.65876e-05
-7.77947e-05
-1.3058e-05
-8.67014e-05
-3.05548e-05
-6.04763e-05
-5.23148e-05
3.17642e-05
-6.40186e-05
-6.40275e-05
-3.77053e-06
-5.43016e-05
-7.63711e-05
-3.52292e-05
-3.45953e-05
-8.71001e-05
-6.39484e-05
-9.9925e-05
-9.1644e-05
-7.01379e-05
-4.38166e-05
1.23626e-05
-7.63611e-05
-5.43103e-05
-3.52314e-05
-6.68573e-05
-6.68671e-05
-7.85957e-05
-4.41472e-05
-7.75377e-05
-0.000120665
-9.14849e-05
-0.000166678
-7.77858e-05
-2.6596e-05
-1.30692e-05
-8.70913e-05
-3.46032e-05
-6.39527e-05
-7.75289e-05
-4.4156e-05
-0.000120669
-5.34711e-05
-5.3479e-05
-0.000168803
-6.46573e-05
-0.000235593
-8.66909e-05
-3.05717e-05
-9.99149e-05
-9.16517e-05
-9.14749e-05
-0.000166686
-6.46484e-05
-0.000235595
-0.000333315
-8.08052e-05
-8.08174e-05
9.66654e-05
-8.54505e-05
-9.54865e-05
6.10391e-05
-7.31388e-05
-0.000115353
3.22152e-05
-4.53819e-05
-0.000128159
-2.1474e-06
-0.000149005
-2.786e-05
-9.54755e-05
-8.54642e-05
6.10339e-05
-0.000104863
-0.000104874
1.50042e-05
-9.12622e-05
-0.000132629
-3.1553e-05
-6.09821e-05
-0.000153025
-6.93629e-05
-0.000183836
-0.000117606
-0.000115339
-7.31515e-05
3.22031e-05
-0.000132616
-9.12739e-05
-3.15551e-05
-0.000120651
-0.000120665
-0.000102525
-8.47879e-05
-0.000142561
-0.000166992
-0.000179895
-0.000255216
-0.000128148
-4.53945e-05
-2.16059e-06
-0.000153013
-6.09925e-05
-6.93683e-05
-0.00014255
-8.48003e-05
-0.000166997
-0.000104491
-0.000104502
-0.000244921
-0.000138954
-0.000380789
-0.000148991
-2.78839e-05
-0.000183823
-0.000117614
-0.00017988
-0.000255229
-0.000138942
-0.00038079
-0.000610722
-9.32142e-05
-9.32296e-05
0.000140793
-0.000102088
-0.000114289
0.000102305
-9.02764e-05
-0.000147027
6.60888e-05
-5.98623e-05
-0.000168496
2.55447e-05
-0.00020508
-1.42862e-05
-0.000114275
-0.000102105
0.000102298
-0.000133525
-0.000133539
5.35046e-05
-0.00012009
-0.000178465
-1.35501e-05
-8.61707e-05
-0.000213421
-5.83575e-05
-0.000273044
-0.000135593
-0.00014701
-9.02928e-05
6.60732e-05
-0.000178448
-0.000120104
-1.35519e-05
-0.0001709
-0.000170916
-0.000117623
-0.000128331
-0.00021243
-0.000210552
-0.000288939
-0.000367432
-0.000168481
-5.98753e-05
2.55253e-05
-0.000213407
-8.61823e-05
-5.83637e-05
-0.000212416
-0.000128346
-0.000210558
-0.000172634
-0.000172646
-0.000324487
-0.000241405
-0.000600721
-0.00020506
-1.43182e-05
-0.000273027
-0.000135601
-0.000288922
-0.000367451
-0.000241391
-0.000600722
-0.00109308
-0.000138501
-0.000138524
0.000212675
-0.000156185
-0.000171204
0.000174171
-0.00014277
-0.000232362
0.000133552
-9.82532e-05
-0.000273369
8.74051e-05
-0.000350604
3.22691e-05
-0.000171185
-0.00015621
0.000174163
-0.000208393
-0.000208411
0.000127919
-0.000197696
-0.000298897
4.2288e-05
-0.000145491
-0.000368025
-1.59058e-05
-0.000501691
-0.000129692
-0.000232334
-0.000142795
0.000133533
-0.000298872
-0.000197714
4.22886e-05
-0.000305597
-0.000305624
-0.000104171
-0.000244096
-0.000399527
-0.000240551
-0.000603316
-0.000509584
-0.000273346
-9.828e-05
8.73851e-05
-0.000368006
-0.000145506
-1.59113e-05
-0.000399509
-0.000244119
-0.00024056
-0.000342752
-0.000342766
-0.000438005
-0.000562565
-0.000983738
-0.000350568
3.2216e-05
-0.000501667
-0.000129691
-0.000603288
-0.000509621
-0.000562547
-0.000983729
-0.00221722
-0.000149642
-0.000149668
0.000296518
-0.00017692
-0.000190603
0.00026911
-0.000168514
-0.000282445
0.000234735
-0.000123084
-0.000341327
0.000195705
-0.000486483
0.000135693
-0.000190582
-0.000176947
0.0002691
-0.0002453
-0.000245319
0.000237353
-0.000248713
-0.000397894
0.000161151
-0.000210885
-0.000507552
0.000112491
-0.000784779
-4.19631e-05
-0.000282414
-0.00016854
0.000234711
-0.000397868
-0.00024873
0.000161153
-0.000441185
-0.000441213
-1.7534e-05
-0.000389517
-0.000623056
-0.000176714
-0.00107389
-0.000609675
-0.000341303
-0.000123108
0.000195681
-0.000507533
-0.000210898
0.000112486
-0.000623036
-0.000389544
-0.000176726
-0.000633231
-0.000633247
-0.000417619
-0.00110031
-0.00159036
-0.000486446
0.000135629
-0.000784755
-4.19496e-05
-0.00107386
-0.000609729
-0.00110028
-0.00159034
-0.00441778
-0.000194791
-0.000194832
0.00040768
-0.000234858
-0.000256407
0.000404737
-0.000233359
-0.00039866
0.000393429
-0.000174496
-0.000505209
0.00037308
-0.000758461
0.000334812
-0.000256378
-0.000234901
0.000404727
-0.000342366
-0.000342391
0.000409325
-0.000365227
-0.000580584
0.000365935
-0.000311695
-0.000811587
0.000365337
-0.00135887
0.000247262
-0.000398606
-0.000233403
0.000393405
-0.000580544
-0.000365244
0.000365944
-0.000718953
-0.000719004
0.000259295
-0.000667488
-0.00114924
0.000109473
-0.00237563
-0.000259854
-0.000505172
-0.00017454
0.000373058
-0.000811561
-0.000311707
0.000365337
-0.00114923
-0.000667526
0.000109461
-0.00125651
-0.00125647
-0.000203108
-0.00295171
-0.000381302
-0.000381439
-0.000650171
-0.000856769
-0.000758392
0.000334744
-0.00135883
0.000247316
-0.00237555
-0.000259986
-0.00295173
-0.000381319
-0.000650193
-0.000381267
-0.000856729
-0.0016549
-0.00236821
-0.00236742
-0.00392852
-0.000180231
-0.000180272
0.00052114
-0.000229654
-0.000236558
0.000554688
-0.000243631
-0.000418211
0.000601963
-0.000202632
-0.00054151
0.000635011
-0.000967906
0.000696793
-0.000236527
-0.000229697
0.000554676
-0.000332125
-0.000332149
0.000600514
-0.000385292
-0.000668353
0.000669245
-0.000380604
-0.000908326
0.000727465
-0.0019395
0.000838818
-0.000418155
-0.000243676
0.000601939
-0.000668312
-0.000385303
0.000669255
-0.000953347
-0.000953407
0.000829383
-0.0010134
-0.00169487
0.000956074
-0.000986825
0.00130301
-0.00107286
-0.00110541
-0.00134969
-0.00054147
-0.000202681
0.000634993
-0.000908295
-0.000380601
0.00072746
-0.00169482
-0.00101346
0.000956044
-0.000562118
-0.000562121
0.000276604
0.000408347
0.000408353
0.000458703
-0.000670427
-0.0004296
-0.000910416
-0.00067044
-0.000429458
-0.00091023
-0.000435327
-0.00131485
-0.000180069
-0.000967829
0.000696718
-0.00193938
0.000838868
-0.000986777
0.00130285
-0.00107283
-0.0011054
-0.00134969
-0.00131484
-0.000435353
-0.000180028
-0.00142423
-0.00142419
0.00155913
0.00155916
-0.000654739
-0.000377179
-0.000446602
-0.000446257
-0.000174773
-0.000174839
0.000610769
-0.000216289
-0.000235234
0.00069323
-0.000232642
-0.00041182
0.000786142
-0.00017491
-0.000554586
0.000887503
-0.000911777
0.00102422
-0.000235199
-0.000216355
0.000693222
-0.000328075
-0.000328097
0.000786252
-0.000368104
-0.0006569
0.000954354
-0.000351184
-0.000920566
0.00107652
-0.00174108
0.00131732
-0.000411725
-0.000232723
0.000786136
-0.000656845
-0.00036808
0.000954358
-0.000910705
-0.000910872
0.00133722
-0.000870119
-0.000456973
0.00173903
-0.000657311
-0.00027477
-0.000355054
-0.00112085
0.00258302
-0.00145348
-0.000561002
-0.000754772
-0.000554529
-0.000175
0.0008875
-0.000920517
-0.000351146
0.00107651
-0.000456948
-0.000870314
0.00173897
-0.000657293
-0.00027474
-0.000355019
-0.000568901
-0.000568458
0.000500042
-0.000554136
0.000913429
0.000659084
-0.00023733
-0.000459266
-0.000484188
-0.000488676
-0.000469768
-0.000911681
0.00102425
-0.00174082
0.00131731
-0.00112081
0.00258301
-0.00145374
-0.000560912
-0.000754748
-0.000554437
0.000912908
0.000658443
-0.000237378
-0.000458886
-0.00048378
-0.000488346
-0.000469331
0.000692672
0.000692412
5.78377e-05
-0.000838748
-0.000838924
0.00023475
-7.49289e-05
-7.49768e-05
0.00063437
-7.62968e-05
-8.4957e-05
0.000711082
-5.88212e-05
-0.000110303
0.000791707
-3.20353e-05
-0.000107179
0.000860278
-8.79641e-05
0.00094607
-8.49232e-05
-7.63584e-05
0.000711091
-9.64323e-05
-9.64433e-05
0.000809248
-0.000102359
-7.62253e-05
0.000926203
-7.86426e-05
-8.99902e-05
0.00103562
8.50892e-07
0.00115066
-0.000110224
-5.88993e-05
0.000791704
-7.61507e-05
-0.00010237
0.000926211
1.56566e-05
1.55609e-05
0.00115362
4.14956e-05
0.000269014
0.00135419
5.50557e-05
0.00169927
-1.09623e-05
0.000379788
0.000504275
-0.000107147
-3.21097e-05
0.000860289
-8.99862e-05
-7.86268e-05
0.00103561
0.000268938
4.13908e-05
0.00135421
-1.37825e-06
-1.3429e-06
0.00149219
0.000338495
6.8031e-05
0.000669751
0.000338559
6.80389e-05
0.000669755
-0.000597178
-0.000678096
-0.000678081
-0.00115079
-2.25637e-05
0.000507149
0.000596316
-0.00102722
-8.78362e-05
0.000946075
1.06936e-06
0.00115062
5.50964e-05
0.00169932
-1.10109e-05
0.000379867
0.000504271
0.000507156
-2.26588e-05
0.000596068
-0.00102681
-0.000189123
-0.000189193
-0.000278012
0.000293605
0.000293521
6.9202e-05
-2.07006e-05
-2.0759e-05
0.000603292
-1.00962e-06
-2.15054e-05
0.000685146
1.90007e-05
-8.28615e-06
0.000724661
4.53452e-05
9.35692e-06
0.000776427
5.97702e-05
0.000792681
-2.14686e-05
-1.06229e-06
0.000685148
-1.45656e-05
-1.45985e-05
0.000795438
-2.58593e-05
7.43997e-05
0.000854811
-5.27168e-05
9.3983e-05
0.000977851
8.99354e-05
0.00106915
-8.21197e-06
1.89426e-05
0.000724672
7.44841e-05
-2.58805e-05
0.000854797
0.00019404
0.000193922
0.000914544
0.000302684
0.000356032
0.000983493
0.000278623
0.000851325
0.000242777
0.000386479
0.000328644
9.43318e-06
4.52867e-05
0.00077642
9.40181e-05
-5.27175e-05
0.000977862
0.000356065
0.000302564
0.000983525
0.000133215
0.000133219
0.000215691
0.000240282
0.00024029
0.000147218
0.000175455
0.000212136
0.000159605
0.000175448
0.000212125
0.0001596
0.000240059
0.000128947
0.000680631
-0.0006378
5.99135e-05
0.000792669
9.01044e-05
0.00106914
0.000278661
0.000851331
0.000242799
0.000386501
0.000328663
0.000240188
0.000680606
0.0001289
-0.000637814
0.00377237
0.00128935
0.00128938
-0.00373878
-0.00130618
-0.00130614
1.72983e-05
1.72332e-05
0.000569104
2.73951e-05
4.78399e-05
0.000655935
1.38564e-05
3.31742e-05
0.000725318
4.17607e-06
3.31667e-05
0.000812072
-5.84997e-05
0.000886363
4.78785e-05
2.73296e-05
0.000655934
5.33539e-05
5.33233e-05
0.000784479
4.0952e-05
-8.93252e-06
0.000909319
-6.75201e-06
-6.88022e-06
0.0010656
-0.000264375
0.0012695
3.3265e-05
1.3771e-05
0.000725325
-8.88311e-06
4.09516e-05
0.000909317
-0.000114041
-0.000114163
0.00112493
-0.000164146
-9.2683e-05
0.00148336
-0.000218371
-2.07231e-06
-0.000143518
-0.000253052
0.00187721
-0.000597002
-0.000219983
-0.000384655
3.324e-05
4.07951e-06
0.000812063
-6.78459e-06
-6.76037e-06
0.0010656
-9.26445e-05
-0.000164308
0.00148336
-0.000218337
-2.01347e-06
-0.000143475
-0.000140709
-0.000140675
0.000311749
-0.00020793
-0.000754702
4.87998e-05
0.000136902
0.000523879
-5.84417e-05
0.000886373
-0.000264263
0.00126948
-0.000253164
0.00187728
-0.000596978
-0.000219977
-0.000384693
-0.000754585
-0.000207961
4.87168e-05
0.000136785
0.00052388
0.000545356
0.000264542
0.000264541
-0.000323164
-0.000323072
-0.000428203
9.48895e-05
9.48406e-05
0.000492407
0.000124846
0.000168884
0.000569728
0.000120944
0.000239986
0.000629144
0.000100534
0.000357302
0.000705526
0.000488857
0.000784309
0.00016892
0.000124793
0.000569732