/*--------------------------------*- C++ -*----------------------------------*\
| =========                 |                                                 |
| \\      /  F ield         | OpenFOAM: The Open Source CFD Toolbox           |
|  \\    /   O peration     | Version:  5.x                                   |
|   \\  /    A nd           | Web:      www.OpenFOAM.org                      |
|    \\/     M anipulation  |                                                 |
\*---------------------------------------------------------------------------*/
FoamFile
{
    version     2.0;
    format      ascii;
    class       volVectorField;
    location    "0.048";
    object      U;
}
// * * * * * * * * * * * * * * * * * * * * * * * * * * * * * * * * * * * * * //

dimensions      [0 1 -1 0 0 0 0];

internalField   nonuniform List<vector> 
1609
(
(-8.64954e-06 -8.67293e-06 0.00270375)
(-8.39455e-06 -9.54772e-06 0.00270222)
(-5.42439e-06 -9.5922e-06 0.00270581)
(-5.53081e-06 -9.98394e-06 0.00270255)
(-2.32586e-07 -1.00265e-05 0.0027036)
(-9.52433e-06 -8.42176e-06 0.00270221)
(-9.26365e-06 -9.29113e-06 0.00269676)
(-5.84219e-06 -9.38068e-06 0.00269969)
(-5.9518e-06 -9.79713e-06 0.00269654)
(-3.81398e-07 -9.85945e-06 0.00269763)
(-9.56908e-06 -5.45048e-06 0.00270581)
(-9.35347e-06 -5.86846e-06 0.0026997)
(-5.93126e-06 -5.95746e-06 0.00270199)
(-6.01001e-06 -6.14324e-06 0.00269877)
(-4.47398e-07 -6.18852e-06 0.0026998)
(-9.96073e-06 -5.55964e-06 0.00270254)
(-9.76977e-06 -5.98037e-06 0.00269654)
(-6.11697e-06 -6.03852e-06 0.00269877)
(-6.18287e-06 -6.2114e-06 0.00269571)
(-5.04053e-07 -6.25213e-06 0.00269677)
(-1.00032e-05 -2.61244e-07 0.0027036)
(-9.83192e-06 -4.10434e-07 0.00269764)
(-6.16229e-06 -4.76269e-07 0.0026998)
(-6.22362e-06 -5.32862e-07 0.00269678)
(-5.4933e-07 -5.77804e-07 0.00269782)
(-6.78153e-06 -6.79045e-06 -0.000766839)
(-8.8523e-06 -5.17629e-06 -0.000767733)
(-6.08789e-06 -4.93084e-06 -0.000768573)
(-5.15636e-06 -4.44109e-06 -0.000769142)
(-2.17698e-06 -4.35745e-06 -0.000769592)
(-5.16738e-06 -8.86948e-06 -0.000767731)
(-7.06218e-06 -7.07904e-06 -0.000768333)
(-5.38007e-06 -6.67399e-06 -0.000769185)
(-4.60391e-06 -6.10083e-06 -0.00076964)
(-1.91515e-06 -5.95122e-06 -0.000770092)
(-4.9216e-06 -6.10712e-06 -0.000768573)
(-6.65681e-06 -5.39903e-06 -0.000769187)
(-5.11071e-06 -5.12987e-06 -0.000769996)
(-4.4343e-06 -4.82375e-06 -0.000770448)
(-1.77717e-06 -4.70574e-06 -0.000770886)
(-4.43191e-06 -5.17888e-06 -0.000769141)
(-6.08391e-06 -4.6266e-06 -0.000769641)
(-4.80479e-06 -4.45708e-06 -0.000770447)
(-4.17978e-06 -4.20242e-06 -0.000770893)
(-1.6315e-06 -4.10999e-06 -0.000771337)
(-4.34839e-06 -2.1997e-06 -0.000769594)
(-5.9343e-06 -1.93747e-06 -0.000770096)
(-4.68653e-06 -1.79985e-06 -0.000770888)
(-4.08722e-06 -1.65411e-06 -0.000771339)
(-1.54853e-06 -1.5717e-06 -0.000771776)
(-9.82933e-06 -9.85093e-06 0.00180224)
(-1.03976e-05 -1.03605e-05 0.00179745)
(-7.00112e-06 -1.04059e-05 0.00179797)
(-6.68334e-06 -1.06764e-05 0.0017945)
(-7.67529e-07 -1.07203e-05 0.00179469)
(-1.03389e-05 -1.04253e-05 0.00179744)
(-1.09364e-05 -1.09642e-05 0.0017915)
(-7.30823e-06 -1.10114e-05 0.00179185)
(-6.99011e-06 -1.13076e-05 0.00178809)
(-8.83668e-07 -1.13577e-05 0.00178824)
(-1.03843e-05 -7.0289e-06 0.00179796)
(-1.09836e-05 -7.33603e-06 0.00179185)
(-7.34481e-06 -7.37263e-06 0.00179207)
(-7.02993e-06 -7.54888e-06 0.00178825)
(-9.09437e-07 -7.58541e-06 0.00178836)
(-1.06548e-05 -6.71416e-06 0.00179449)
(-1.12799e-05 -7.0209e-06 0.00178809)
(-7.52107e-06 -7.06073e-06 0.00178825)
(-7.20289e-06 -7.23367e-06 0.00178434)
(-9.76483e-07 -7.27239e-06 0.00178442)
(-1.06987e-05 -7.98278e-07 0.00179468)
(-1.133e-05 -9.1448e-07 0.00178824)
(-7.55758e-06 -9.40253e-07 0.00178835)
(-7.24159e-06 -1.00729e-06 0.00178442)
(-1.00533e-06 -1.03612e-06 0.00178449)
(-1.16922e-05 -1.17089e-05 2.49683e-05)
(-1.31221e-05 -1.12935e-05 1.88664e-05)
(-9.03549e-06 -1.12292e-05 1.80322e-05)
(-8.43279e-06 -1.10343e-05 1.42283e-05)
(-1.99419e-06 -1.0995e-05 1.37419e-05)
(-1.12768e-05 -1.31462e-05 1.88635e-05)
(-1.26613e-05 -1.26853e-05 1.28436e-05)
(-8.78666e-06 -1.25798e-05 1.1995e-05)
(-8.20803e-06 -1.23549e-05 8.199e-06)
(-1.82824e-06 -1.22919e-05 7.7099e-06)
(-1.12123e-05 -9.0605e-06 1.80275e-05)
(-1.25557e-05 -8.81159e-06 1.19932e-05)
(-8.70543e-06 -8.73044e-06 1.11451e-05)
(-8.14515e-06 -8.58107e-06 7.34312e-06)
(-1.77288e-06 -8.52628e-06 6.85535e-06)
(-1.10175e-05 -8.46133e-06 1.42204e-05)
(-1.23309e-05 -8.23656e-06 8.19401e-06)
(-8.55614e-06 -8.17374e-06 7.33987e-06)
(-8.00387e-06 -8.0324e-06 3.52199e-06)
(-1.65571e-06 -7.98237e-06 3.03141e-06)
(-1.09782e-05 -2.02291e-06 1.37315e-05)
(-1.22678e-05 -1.85687e-06 7.70234e-06)
(-8.50127e-06 -1.80161e-06 6.84954e-06)
(-7.95378e-06 -1.68437e-06 3.02886e-06)
(-1.6118e-06 -1.64062e-06 2.54001e-06)
(-1.61328e-05 -1.61573e-05 0.00124108)
(-1.73353e-05 -1.65813e-05 0.0012312)
(-1.16394e-05 -1.66403e-05 0.0012304)
(-1.09737e-05 -1.69025e-05 0.00122412)
(-1.39888e-06 -1.69488e-05 0.00122369)
(-1.65567e-05 -1.73677e-05 0.0012312)
(-1.7807e-05 -1.78394e-05 0.00122073)
(-1.1953e-05 -1.79006e-05 0.00121984)
(-1.12753e-05 -1.8195e-05 0.00121326)
(-1.48725e-06 -1.82467e-05 0.00121278)
(-1.66158e-05 -1.16722e-05 0.00123039)
(-1.78682e-05 -1.19858e-05 0.00121984)
(-1.1995e-05 -1.20279e-05 0.00121891)
(-1.13198e-05 -1.2226e-05 0.00121227)
(-1.50665e-06 -1.2264e-05 0.00121177)
(-1.6878e-05 -1.10103e-05 0.0012241)
(-1.81627e-05 -1.13119e-05 0.00121325)
(-1.21932e-05 -1.13564e-05 0.00121226)
(-1.15115e-05 -1.1548e-05 0.00120545)
(-1.56618e-06 -1.15878e-05 0.00120492)
(-1.69242e-05 -1.4353e-06 0.00122367)
(-1.82143e-05 -1.52373e-06 0.00121276)
(-1.22312e-05 -1.54317e-06 0.00121176)
(-1.15512e-05 -1.6027e-06 0.00120492)
(-1.59214e-06 -1.6287e-06 0.00120437)
(-2.18609e-05 -2.18856e-05 0.000430256)
(-2.37985e-05 -2.20842e-05 0.000416858)
(-1.61193e-05 -2.21129e-05 0.000415337)
(-1.51489e-05 -2.22297e-05 0.000406924)
(-2.44907e-06 -2.22378e-05 0.000406067)
(-2.20595e-05 -2.3832e-05 0.000416851)
(-2.40213e-05 -2.40548e-05 0.00040314)
(-1.62621e-05 -2.40802e-05 0.000401569)
(-1.5272e-05 -2.42112e-05 0.000392946)
(-2.38181e-06 -2.42155e-05 0.000392065)
(-2.20881e-05 -1.61534e-05 0.000415327)
(-2.40467e-05 -1.62962e-05 0.000401566)
(-1.62757e-05 -1.63099e-05 0.000399987)
(-1.52843e-05 -1.63855e-05 0.000391333)
(-2.36585e-06 -1.63843e-05 0.000390448)
(-2.2205e-05 -1.51873e-05 0.000406907)
(-2.41777e-05 -1.53103e-05 0.000392937)
(-1.63514e-05 -1.53227e-05 0.000391326)
(-1.53464e-05 -1.53848e-05 0.000382533)
(-2.31111e-06 -1.53818e-05 0.000381632)
(-2.2213e-05 -2.48738e-06 0.000406047)
(-2.4182e-05 -2.42013e-06 0.000392052)
(-1.63502e-05 -2.40422e-06 0.000390437)
(-1.53434e-05 -2.34946e-06 0.000381628)
(-2.29801e-06 -2.33645e-06 0.000380725)
(-2.99649e-05 -2.99965e-05 0.00097556)
(-3.22601e-05 -3.07415e-05 0.000955957)
(-2.15736e-05 -3.08514e-05 0.000953732)
(-2.02428e-05 -3.13291e-05 0.000941419)
(-2.46227e-06 -3.14008e-05 0.000940222)
(-3.07099e-05 -3.23022e-05 0.000955947)
(-3.30943e-05 -3.31364e-05 0.000935573)
(-2.21464e-05 -3.32547e-05 0.000933218)
(-2.07788e-05 -3.37909e-05 0.000920429)
(-2.56084e-06 -3.38714e-05 0.000919153)
(-3.08197e-05 -2.16162e-05 0.000953718)
(-3.32126e-05 -2.21889e-05 0.000933215)
(-2.22281e-05 -2.22707e-05 0.00093083)
(-2.08593e-05 -2.26392e-05 0.000917954)
(-2.58486e-06 -2.26972e-05 0.000916658)
(-3.12974e-05 -2.02903e-05 0.000941396)
(-3.37489e-05 -2.08263e-05 0.000920416)
(-2.25967e-05 -2.09069e-05 0.000917944)
(-2.12053e-05 -2.12528e-05 0.000904767)
(-2.65564e-06 -2.13106e-05 0.000903413)
(-3.13691e-05 -2.50922e-06 0.000940194)
(-3.38294e-05 -2.60791e-06 0.000919135)
(-2.26546e-05 -2.63201e-06 0.000916644)
(-2.1263e-05 -2.70284e-06 0.000903408)
(-2.6888e-06 -2.73609e-06 0.000902038)
(-4.20815e-05 -4.21166e-05 0.000614485)
(-4.56345e-05 -4.31072e-05 0.000587902)
(-3.06571e-05 -4.32702e-05 0.000584811)
(-2.86584e-05 -4.38779e-05 0.000568132)
(-3.75349e-06 -4.39681e-05 0.000566439)
(-4.30721e-05 -4.56815e-05 0.000587891)
(-4.67571e-05 -4.68041e-05 0.000560316)
(-3.14065e-05 -4.69896e-05 0.00055707)
(-2.93376e-05 -4.76838e-05 0.000539747)
(-3.80504e-06 -4.7787e-05 0.000537967)
(-4.3235e-05 -3.07045e-05 0.000584795)
(-4.69426e-05 -3.14539e-05 0.000557065)
(-3.15366e-05 -3.15841e-05 0.000553786)
(-2.94556e-05 -3.20476e-05 0.000536356)
(-3.81992e-06 -3.21242e-05 0.000534557)
(-4.38428e-05 -2.87115e-05 0.000568105)
(-4.76369e-05 -2.93908e-05 0.000539732)
(-3.20001e-05 -2.95088e-05 0.000536344)
(-2.98778e-05 -2.99309e-05 0.000518496)
(-3.85358e-06 -3.00022e-05 0.000516646)
(-4.39329e-05 -3.80611e-06 0.000566406)
(-4.77401e-05 -3.85771e-06 0.000537945)
(-3.20767e-05 -3.87269e-06 0.000534539)
(-2.99489e-05 -3.90635e-06 0.000516639)
(-3.87131e-06 -3.92421e-06 0.000514779)
(-5.74221e-05 -5.74655e-05 0.000878833)
(-6.19447e-05 -5.92309e-05 0.000840258)
(-4.13437e-05 -5.95012e-05 0.000835442)
(-3.86142e-05 -6.06395e-05 0.000811247)
(-4.43063e-06 -6.08011e-05 0.000808648)
(-5.91875e-05 -6.20029e-05 0.000840244)
(-6.39265e-05 -6.39846e-05 0.000799977)
(-4.27147e-05 -6.42903e-05 0.000794817)
(-3.98808e-05 -6.55785e-05 0.000769563)
(-4.61914e-06 -6.5765e-05 0.000766757)
(-5.94576e-05 -4.14021e-05 0.000835422)
(-6.42321e-05 -4.27731e-05 0.000794811)
(-4.29373e-05 -4.29958e-05 0.00078962)
(-4.00886e-05 -4.38909e-05 0.000764168)
(-4.66642e-06 -4.4019e-05 0.000761335)
(-6.05961e-05 -3.86794e-05 0.000811213)
(-6.55206e-05 -3.9946e-05 0.000769544)
(-4.38325e-05 -4.01539e-05 0.000764154)
(-4.09041e-05 -4.09693e-05 0.000738031)
(-4.79649e-06 -4.10881e-05 0.00073504)
(-6.07576e-05 -4.49434e-06 0.000808606)
(-6.57069e-05 -4.6831e-06 0.000766729)
(-4.39605e-05 -4.73056e-06 0.000761314)
(-4.10228e-05 -4.86071e-06 0.000735032)
(-4.84694e-06 -4.91137e-06 0.000732006)
(-8.18938e-05 -8.19435e-05 0.000687993)
(-8.90408e-05 -8.46752e-05 0.000636421)
(-5.96684e-05 -8.51941e-05 0.000629931)
(-5.54528e-05 -8.68909e-05 0.000597618)
(-6.59016e-06 -8.71947e-05 0.000594088)
(-8.46256e-05 -8.91075e-05 0.000636403)
(-9.22001e-05 -9.22667e-05 0.000582275)
(-6.18208e-05 -9.28275e-05 0.000575298)
(-5.73976e-05 -9.47784e-05 0.000541315)
(-6.87932e-06 -9.51153e-05 0.000537499)
(-8.51442e-05 -5.97354e-05 0.000629906)
(-9.27607e-05 -6.18877e-05 0.000575291)
(-6.21794e-05 -6.22464e-05 0.000568177)
(-5.774e-05 -6.35796e-05 0.000533797)
(-6.93138e-06 -6.38409e-05 0.000529909)
(-8.68412e-05 -5.55278e-05 0.000597576)
(-9.47119e-05 -5.74724e-05 0.000541291)
(-6.35127e-05 -5.7815e-05 0.00053378)
(-5.89921e-05 -5.90669e-05 0.0004983)
(-7.15056e-06 -5.93314e-05 0.000494297)
(-8.71448e-05 -6.6636e-06 0.000594035)
(-9.50486e-05 -6.95287e-06 0.000537464)
(-6.37739e-05 -7.00518e-06 0.000529882)
(-5.92564e-05 -7.22442e-06 0.000494287)
(-7.21427e-06 -7.28843e-06 0.000490272)
(-0.000110731 -0.000110792 0.000877039)
(-0.000120028 -0.000115184 0.000801373)
(-8.01464e-05 -0.000115958 0.000790979)
(-7.44574e-05 -0.000118813 0.000743574)
(-8.33644e-06 -0.00011927 0.000737949)
(-0.000115123 -0.000120112 0.000801353)
(-0.000125054 -0.000125137 0.00072154)
(-8.36749e-05 -0.000126067 0.000710156)
(-7.76812e-05 -0.000129423 0.000660117)
(-8.83432e-06 -0.000129968 0.0006539)
(-0.000115896 -8.02293e-05 0.00079095)
(-0.000125984 -8.37578e-05 0.000710147)
(-8.44316e-05 -8.45148e-05 0.000698827)
(-7.8357e-05 -8.69063e-05 0.000648377)
(-8.96226e-06 -8.72209e-05 0.000642141)
(-0.000118751 -7.45499e-05 0.000743524)
(-0.000129341 -7.77738e-05 0.000660088)
(-8.68235e-05 -7.845e-05 0.000648358)
(-8.03873e-05 -8.04797e-05 0.000595995)
(-9.23269e-06 -8.07262e-05 0.000589089)
(-0.000119208 -8.42551e-06 0.000737887)
(-0.000129885 -8.9239e-06 0.00065386)
(-8.71375e-05 -9.0522e-06 0.000642109)
(-8.06332e-05 -9.3226e-06 0.000589077)
(-9.30309e-06 -9.39351e-06 0.000582025)
(-0.000160019 -0.000160089 0.000715571)
(-0.000175131 -0.000167096 0.000616599)
(-0.000117467 -0.000168637 0.000602662)
(-0.000108482 -0.000173045 0.00054054)
(-1.26179e-05 -0.000173959 0.000532737)
(-0.000167025 -0.000175228 0.000616572)
(-0.000183428 -0.000183524 0.000511156)
(-0.000123243 -0.000185011 0.000495642)
(-0.000113653 -0.000190007 0.000429403)
(-1.35306e-05 -0.000190956 0.000420632)
(-0.000168565 -0.000117563 0.000602622)
(-0.000184915 -0.000123339 0.00049563)
(-0.000123948 -0.000124044 0.000479773)
(-0.000114425 -0.000127701 0.000412053)
(-1.3618e-05 -0.000128651 0.000403106)
(-0.000172973 -0.000108589 0.000540475)
(-0.000189911 -0.000113759 0.000429365)
(-0.000127606 -0.000114533 0.000412027)
(-0.00011826 -0.000118367 0.000342765)
(-1.45425e-05 -0.000119447 0.000334237)
(-0.000173888 -1.27214e-05 0.000532654)
(-0.00019086 -1.36342e-05 0.000420576)
(-0.000128556 -1.37223e-05 0.000403063)
(-0.00011934 -1.46474e-05 0.000334221)
(-1.4765e-05 -1.48706e-05 0.000325884)
(-0.000213123 -0.000213212 0.000937046)
(-0.000232981 -0.000224234 0.000789161)
(-0.000156206 -0.00022663 0.000765519)
(-0.000144384 -0.00023372 0.000673533)
(-1.66665e-05 -0.000235172 0.000660924)
(-0.000224145 -0.000233105 0.000789131)
(-0.000246032 -0.000246155 0.000630923)
(-0.000165428 -0.000249005 0.00060459)
(-0.000152693 -0.000257961 0.000505863)
(-1.81824e-05 -0.000259649 0.000491737)
(-0.00022654 -0.000156327 0.000765473)
(-0.000248881 -0.00016555 0.000604576)
(-0.000168009 -0.000168131 0.000578183)
(-0.000155025 -0.000173546 0.000479234)
(-1.85048e-05 -0.000173617 0.000465153)
(-0.000233631 -0.000144519 0.00067346)
(-0.000257839 -0.000152828 0.000505823)
(-0.000173424 -0.000155162 0.000479208)
(-0.000158179 -0.000158313 0.000372063)
(-1.83914e-05 -0.00015795 0.000355034)
(-0.000235082 -1.67937e-05 0.000660831)
(-0.000259527 -1.83107e-05 0.000491678)
(-0.000173494 -1.86337e-05 0.000465107)
(-0.000157814 -1.85189e-05 0.000355014)
(-1.82955e-05 -1.84243e-05 0.00033759)
(-0.000312772 -0.000312874 0.000743403)
(-0.000346721 -0.000330525 0.000553661)
(-0.000233092 -0.000334852 0.000523313)
(-0.000213074 -0.000346219 0.000402856)
(-2.58289e-05 -0.000348714 0.000384736)
(-0.000330423 -0.000346863 0.000553619)
(-0.000368031 -0.000368171 0.000348105)
(-0.0002483 -0.00037241 0.000312245)
(-0.000226503 -0.000384371 0.000181157)
(-2.83008e-05 -0.000386794 0.000159348)
(-0.000334749 -0.00023323 0.000523247)
(-0.000372268 -0.000248435 0.000312225)
(-0.000249286 -0.000249422 0.000276379)
(-0.000227452 -0.000261496 0.000137949)
(-2.83686e-05 -0.00026535 0.000114793)
(-0.000346115 -0.000213229 0.000402751)
(-0.00038423 -0.000226655 0.000181094)
(-0.000261361 -0.000227606 0.000137907)
(-0.000242431 -0.000242585 -4.14019e-06)
(-3.2314e-05 -0.000247008 -2.8543e-05)
(-0.000348608 -2.59749e-05 0.0003846)
(-0.00038665 -2.8447e-05 0.000159256)
(-0.000265216 -2.8516e-05 0.000114721)
(-0.000246854 -3.24646e-05 -2.85691e-05)
(-3.29648e-05 -3.31167e-05 -5.42777e-05)
(-0.000409514 -0.000409646 0.00105492)
(-0.000453157 -0.000436927 0.000767011)
(-0.000307014 -0.000444974 0.000709774)
(-0.000282966 -0.000462979 0.000524847)
(-3.55667e-05 -0.000468217 0.00049239)
(-0.000436794 -0.000453347 0.000766966)
(-0.000487509 -0.000487695 0.000456221)
(-0.000332379 -0.000496045 0.000391146)
(-0.000305596 -0.000522979 0.000193204)
(-4.08864e-05 -0.000529705 0.00015606)
(-0.000444838 -0.000307197 0.000709703)
(-0.000495855 -0.000332563 0.000391119)
(-0.000342288 -0.000342473 0.000320197)
(-0.000316618 -0.000358845 0.000117964)
(-4.26073e-05 -0.00036151 7.6539e-05)
(-0.000462846 -0.00028317 0.000524739)
(-0.000522794 -0.000305803 0.000193141)
(-0.000358661 -0.000316826 0.000117923)
(-0.000324633 -0.000324836 -8.74093e-05)
(-4.38609e-05 -0.000327026 -0.000131507)
(-0.000468082 -3.57531e-05 0.000492246)
(-0.000529519 -4.10742e-05 0.000155961)
(-0.000361321 -4.27976e-05 7.64615e-05)
(-0.000326817 -4.40488e-05 -0.00013154)
(-4.51443e-05 -4.53358e-05 -0.000178337)
(-0.000610153 -0.000610301 0.000832399)
(-0.000691996 -0.000651663 0.000483427)
(-0.000475245 -0.000664168 0.000407318)
(-0.000430451 -0.000689116 0.000179876)
(-5.91863e-05 -0.00069649 0.000133618)
(-0.000651516 -0.000692209 0.00048336)
(-0.000743976 -0.000744189 9.0401e-05)
(-0.000511301 -0.000762115 -4.45178e-07)
(-0.000461581 -0.000791391 -0.000246506)
(-6.64245e-05 -0.000802784 -0.000300189)
(-0.000664019 -0.000475446 0.000407211)
(-0.000761901 -0.0005115 -4.7955e-07)
(-0.000522427 -0.000522632 -9.9795e-05)
(-0.000471104 -0.000542101 -0.000355192)
(-7.08462e-05 -0.000552911 -0.000414482)
(-0.000688966 -0.000430678 0.000179701)
(-0.000791182 -0.000461806 -0.000246596)
(-0.000541903 -0.000471335 -0.00035525)
(-0.000491861 -0.000492089 -0.000628842)
(-7.74415e-05 -0.000501885 -0.000697343)
(-0.000696338 -5.93961e-05 0.000133391)
(-0.000802574 -6.66378e-05 -0.000300328)
(-0.000552709 -7.10638e-05 -0.000414589)
(-0.000501654 -7.7658e-05 -0.00069739)
(-8.0859e-05 -8.10788e-05 -0.000769976)
(-0.000771444 -0.000771646 0.00128851)
(-0.00087841 -0.000843985 0.000738057)
(-0.000610563 -0.000867268 0.000607395)
(-0.00055668 -0.000904521 0.000241072)
(-8.28149e-05 -0.000917457 0.000162289)
(-0.000843784 -0.000878707 0.000737986)
(-0.000971531 -0.000971819 0.000148235)
(-0.000669288 -0.00100339 -1.26756e-05)
(-0.000605352 -0.00105828 -0.000396706)
(-9.57159e-05 -0.00107805 -0.000498672)
(-0.000867058 -0.000610855 0.000607274)
(-0.00100309 -0.000669561 -1.27196e-05)
(-0.000697001 -0.000697278 -0.000194882)
(-0.000631316 -0.000741175 -0.000605463)
(-0.000103123 -0.000758658 -0.000723194)
(-0.000904301 -0.000557005 0.000240898)
(-0.00105798 -0.000605663 -0.000396814)
(-0.000740902 -0.000631631 -0.000605529)
(-0.000666735 -0.000667041 -0.00103275)
(-0.000113806 -0.000682527 -0.00116633)
(-0.000917232 -8.30813e-05 0.000162037)
(-0.00107774 -9.59855e-05 -0.000498848)
(-0.000758376 -0.000103398 -0.000723327)
(-0.000682212 -0.000114079 -0.0011664)
(-0.000119269 -0.00011955 -0.00131269)
(-0.00117908 -0.0011793 0.00114872)
(-0.00137338 -0.00126195 0.000461668)
(-0.000972196 -0.00130575 0.000283857)
(-0.000875539 -0.00134945 -0.000164257)
(-0.000139152 -0.00138064 -0.00027325)
(-0.00126173 -0.00137371 0.000461568)
(-0.0014949 -0.00149522 -0.000281242)
(-0.00105621 -0.00156466 -0.000513387)
(-0.000947568 -0.00163822 -0.00100737)
(-0.000169779 -0.00168858 -0.00115399)
(-0.00130552 -0.000972501 0.000283694)
(-0.00156433 -0.00105651 -0.000513446)
(-0.00111514 -0.00111546 -0.00078048)
(-0.000999414 -0.00117812 -0.00131091)
(-0.000189992 -0.00122055 -0.00148313)
(-0.00134923 -0.000875897 -0.000164484)
(-0.00163791 -0.000947924 -0.00100751)
(-0.00117781 -0.000999778 -0.00131099)
(-0.00105267 -0.00105303 -0.00187503)
(-0.000212646 -0.0010914 -0.00207734)
(-0.00138041 -0.000139467 -0.000273582)
(-0.00168825 -0.000170094 -0.0011542)
(-0.00122023 -0.000190315 -0.0014833)
(-0.00109103 -0.000212967 -0.00207742)
(-0.000228831 -0.000229161 -0.00230087)
(-0.00148349 -0.00148379 0.00180479)
(-0.00174362 -0.00161443 0.000755402)
(-0.00123648 -0.00169358 0.000424538)
(-0.00111383 -0.00177873 -0.000253158)
(-0.000193151 -0.00183035 -0.00046652)
(-0.00161413 -0.00174408 0.000755271)
(-0.00194694 -0.00194739 -0.000372814)
(-0.00139539 -0.00206822 -0.000802444)
(-0.00124597 -0.00220544 -0.00155383)
(-0.000244265 -0.00228845 -0.00184115)
(-0.00169327 -0.0012369 0.000424311)
(-0.00206776 -0.0013958 -0.000802531)
(-0.00149444 -0.00149486 -0.00131604)
(-0.00133399 -0.00160881 -0.00215027)
(-0.000277362 -0.00168199 -0.00250798)
(-0.00177842 -0.00111432 -0.000253486)
(-0.002205 -0.00124644 -0.00155402)
(-0.0016084 -0.00133447 -0.00215038)
(-0.00143311 -0.00143357 -0.00304025)
(-0.000318562 -0.00150029 -0.00346401)
(-0.00183001 -0.000193542 -0.000466982)
(-0.00228798 -0.000244657 -0.00184146)
(-0.00168156 -0.000277765 -0.00250821)
(-0.00149981 -0.00031896 -0.00346412)
(-0.000345294 -0.000345707 -0.00395713)
(-0.00226405 -0.0022644 0.00187363)
(-0.00275418 -0.00243019 0.000647449)
(-0.00198066 -0.00257613 0.000204816)
(-0.00176656 -0.00269665 -0.000620164)
(-0.000354327 -0.00280422 -0.000917099)
(-0.00242984 -0.00275474 0.000647269)
(-0.00305315 -0.00305369 -0.000744191)
(-0.00223712 -0.00330583 -0.00135137)
(-0.00198627 -0.00353601 -0.00230083)
(-0.000459301 -0.00373075 -0.00272674)
(-0.00257576 -0.00198116 0.000204499)
(-0.00330527 -0.00223761 -0.00135148)
(-0.00246278 -0.00246329 -0.00208946)
(-0.00219136 -0.00266445 -0.00317853)
(-0.000549779 -0.00284333 -0.00372023)
(-0.00269628 -0.00176716 -0.000620588)
(-0.00353548 -0.00198684 -0.00230105)
(-0.00266396 -0.00219196 -0.00317867)
(-0.00236634 -0.00236691 -0.004366)
(-0.000638987 -0.00254058 -0.00504232)
(-0.00280383 -0.000354809 -0.000917717)
(-0.0037302 -0.000459784 -0.00272712)
(-0.00284282 -0.000550278 -0.00372053)
(-0.00253999 -0.00063948 -0.00504244)
(-0.000724286 -0.000724797 -0.0058384)
(-0.00275596 -0.00275644 0.00291736)
(-0.00341309 -0.00305988 0.00104008)
(-0.00250402 -0.0033086 0.000233665)
(-0.00223583 -0.00352379 -0.00105239)
(-0.000492239 -0.00370827 -0.00161814)
(-0.00305939 -0.00341387 0.00103984)
(-0.0039465 -0.00394723 -0.00105951)
(-0.00295192 -0.00436353 -0.00217627)
(-0.0026214 -0.0047649 -0.00363971)
(-0.000673426 -0.00509276 -0.00447449)
(-0.00330807 -0.00250468 0.000233206)
(-0.00436275 -0.00295256 -0.00217643)
(-0.00332139 -0.00332206 -0.00362744)
(-0.00296484 -0.00367387 -0.0053904)
(-0.000822539 -0.00399747 -0.00655527)
(-0.00352327 -0.00223663 -0.00105297)
(-0.00476418 -0.00262214 -0.00364003)
(-0.00367323 -0.00296562 -0.00539061)
(-0.00329683 -0.00329756 -0.00731306)
(-0.000999274 -0.00361859 -0.00876661)
(-0.00370768 -0.000492813 -0.00161901)
(-0.00509197 -0.000673999 -0.00447502)
(-0.00399679 -0.000823139 -0.00655571)
(-0.00361781 -0.000999863 -0.00876678)
(-0.00114599 -0.00114661 -0.0106162)
(-0.00420799 -0.00420858 0.00365614)
(-0.00543905 -0.00460723 0.00152912)
(-0.00407289 -0.00507455 0.000482756)
(-0.00361837 -0.00538083 -0.00103314)
(-0.000922372 -0.00576674 -0.00182261)
(-0.00460664 -0.00544007 0.00152881)
(-0.00627034 -0.00627127 -0.000931606)
(-0.004817 -0.00716823 -0.00249816)
(-0.00428443 -0.00787549 -0.00429351)
(-0.0012978 -0.00866954 -0.00558162)
(-0.00507387 -0.00407374 0.000482181)
(-0.00716721 -0.00481781 -0.00249834)
(-0.00567653 -0.00567741 -0.00459649)
(-0.00511926 -0.00633764 -0.00693477)
(-0.00171786 -0.00713536 -0.0087917)
(-0.0053802 -0.00361937 -0.00103386)
(-0.00787457 -0.00428538 -0.00429386)
(-0.00633683 -0.0051203 -0.00693502)
(-0.00574242 -0.00574336 -0.00952187)
(-0.00209775 -0.00660165 -0.0120323)
(-0.005766 -0.000923135 -0.00182371)
(-0.00866854 -0.00129855 -0.00558223)
(-0.00713448 -0.00171865 -0.00879223)
(-0.00660062 -0.00209851 -0.0120325)
(-0.00257759 -0.00257839 -0.0152751)
(-0.00496531 -0.00496612 0.00553936)
(-0.00658756 -0.0056219 0.00240345)
(-0.00506589 -0.0064069 0.000645744)
(-0.00454127 -0.006916 -0.00168194)
(-0.00128584 -0.00761336 -0.0031033)
(-0.0056211 -0.00658892 0.00240298)
(-0.00797518 -0.00797639 -0.00121504)
(-0.00631347 -0.00944491 -0.00393761)
(-0.00570491 -0.0106689 -0.00669167)
(-0.00196757 -0.0120645 -0.00907884)
(-0.00640595 -0.00506696 0.000644828)
(-0.00944356 -0.00631446 -0.00393784)
(-0.00775748 -0.00775857 -0.00782533)
(-0.00716018 -0.00890202 -0.0116295)
(-0.00268641 -0.0104483 -0.0154498)
(-0.00691512 -0.00454259 -0.00168307)
(-0.0106677 -0.00570609 -0.00669221)
(-0.00890103 -0.00716149 -0.0116299)
(-0.00839433 -0.00839549 -0.0159628)
(-0.0035175 -0.0101025 -0.0211502)
(-0.00761227 -0.0012867 -0.00310512)
(-0.0120632 -0.00196841 -0.00907971)
(-0.0104472 -0.00268732 -0.0154507)
(-0.0101012 -0.00351837 -0.0211504)
(-0.00439819 -0.00439912 -0.0288033)
(-0.00746321 -0.00746428 0.00774611)
(-0.0103352 -0.00836791 0.00439294)
(-0.00815806 -0.00983593 0.00210413)
(-0.00736757 -0.0105885 -0.000597305)
(-0.00234737 -0.0119744 -0.00267846)
(-0.00836684 -0.0103372 0.00439243)
(-0.0126127 -0.0126143 0.000513804)
(-0.0102931 -0.015642 -0.00330497)
(-0.00942549 -0.0178258 -0.00649226)
(-0.00369347 -0.0210198 -0.0104191)
(-0.00983456 -0.00815958 0.00210312)
(-0.0156401 -0.0102944 -0.00330521)
(-0.0133684 -0.0133699 -0.00908436)
(-0.012744 -0.0156097 -0.0142837)
(-0.00554529 -0.0192088 -0.0208801)
(-0.0105873 -0.00736948 -0.000598481)
(-0.0178242 -0.00942707 -0.0064928)
(-0.0156083 -0.012746 -0.0142841)
(-0.0152628 -0.0152644 -0.0200559)
(-0.00730169 -0.0199563 -0.0301509)
(-0.0119727 -0.00234861 -0.00268041)
(-0.0210179 -0.00369462 -0.01042)
(-0.0192072 -0.00554652 -0.0208811)
(-0.0199544 -0.00730284 -0.0301511)
(-0.0102436 -0.0102447 -0.0450578)
(-0.00845473 -0.00845606 0.0115138)
(-0.0122306 -0.00967592 0.00708598)
(-0.0100547 -0.0120413 0.00384373)
(-0.00932349 -0.0130721 9.4172e-05)
(-0.00337632 -0.0156674 -0.00316591)
(-0.0096746 -0.0122329 0.00708508)
(-0.0156752 -0.0156772 0.0018878)
(-0.0133189 -0.0206365 -0.00386307)
(-0.012818 -0.0243579 -0.00867747)
(-0.00590515 -0.0302682 -0.0150965)
(-0.0120396 -0.0100565 0.00384188)
(-0.0206342 -0.0133204 -0.00386331)
(-0.0187353 -0.0187371 -0.0131679)
(-0.0189538 -0.0224666 -0.0215614)
(-0.009299 -0.0301845 -0.0340578)
(-0.0130706 -0.00932575 9.20834e-05)
(-0.024356 -0.0128198 -0.00867828)
(-0.0224651 -0.0189561 -0.0215624)
(-0.0242565 -0.0242583 -0.0320283)
(-0.0136313 -0.0342712 -0.0516208)
(-0.0156652 -0.00337764 -0.00316985)
(-0.0302658 -0.00590638 -0.0150976)
(-0.0301828 -0.00930044 -0.0340601)
(-0.0342689 -0.0136327 -0.0516207)
(-0.0193518 -0.0193534 -0.0881366)
(-0.0120795 -0.0120815 0.0164394)
(-0.01801 -0.013794 0.0123373)
(-0.0151501 -0.0178734 0.00829549)
(-0.0143774 -0.0197441 0.00419857)
(-0.0056169 -0.024411 -0.000580232)
(-0.013792 -0.0180138 0.0123365)
(-0.0235633 -0.0235661 0.00780174)
(-0.020861 -0.0326594 0.000260241)
(-0.0206598 -0.0394864 -0.00442052)
(-0.0101419 -0.0519222 -0.0151647)
(-0.0178704 -0.0151528 0.00829377)
(-0.0326556 -0.0208631 0.000260043)
(-0.0310737 -0.0310764 -0.0134624)
(-0.0336334 -0.0389745 -0.0247872)
(-0.0180793 -0.0557631 -0.0472368)
(-0.0197416 -0.0143814 0.00419672)
(-0.0394837 -0.0206622 -0.00442122)
(-0.0389724 -0.0336376 -0.024788)
(-0.0453107 -0.0453131 -0.0373568)
(-0.0270099 -0.0740363 -0.0799785)
(-0.0244064 -0.00561896 -0.00058379)
(-0.0519186 -0.0101435 -0.0151655)
(-0.0557604 -0.0180811 -0.0472391)
(-0.0740321 -0.0270113 -0.0799788)
(-0.0469613 -0.0469614 -0.155844)
(-0.0127477 -0.0127499 0.0239549)
(-0.0203717 -0.0144634 0.019894)
(-0.0181891 -0.0204564 0.0161255)
(-0.0181968 -0.0221601 0.0113091)
(-0.00817974 -0.0309017 0.0059566)
(-0.0144612 -0.0203758 0.0198926)
(-0.0277505 -0.0277535 0.015121)
(-0.0255427 -0.0423919 0.00649269)
(-0.0282285 -0.0533309 0.000113267)
(-0.0166724 -0.0768842 -0.0139437)
(-0.0204531 -0.0181919 0.0161222)
(-0.0423878 -0.0255449 0.00649291)
(-0.0437819 -0.0437847 -0.00985214)
(-0.0526797 -0.0554075 -0.0270507)
(-0.0318293 -0.0950024 -0.0623149)
(-0.0221574 -0.0182009 0.011306)
(-0.0533279 -0.0282309 0.000112447)
(-0.0554053 -0.0526842 -0.0270525)
(-0.079335 -0.0793381 -0.0528994)
(-0.0565379 -0.142363 -0.128005)
(-0.0308968 -0.00818199 0.00594888)
(-0.0768805 -0.016674 -0.0139433)
(-0.0950002 -0.031832 -0.0623214)
(-0.142359 -0.0565404 -0.128002)
(-0.096449 -0.0964534 -0.329621)
(-0.0163548 -0.0163582 0.0328217)
(-0.0258463 -0.0188456 0.0313155)
(-0.0237408 -0.0280026 0.0282353)
(-0.0245456 -0.0315578 0.0253355)
(-0.0110079 -0.0453492 0.0185973)
(-0.0188422 -0.0258533 0.0313143)
(-0.0369751 -0.036979 0.0301358)
(-0.0358925 -0.0586511 0.0229395)
(-0.0410934 -0.0778656 0.0199607)
(-0.0243329 -0.120211 0.00295048)
(-0.0279961 -0.0237452 0.0282327)
(-0.0586441 -0.0358955 0.0229399)
(-0.0646675 -0.0646718 0.00461461)
(-0.0860377 -0.0920653 -0.0131583)
(-0.0537836 -0.169788 -0.0713162)
(-0.031553 -0.0245541 0.0253327)
(-0.0778615 -0.0410957 0.01996)
(-0.0920623 -0.0860484 -0.0131602)
(-0.146133 -0.146134 -0.03421)
(-0.105085 -0.343185 -0.218889)
(-0.0453364 -0.0110114 0.018591)
(-0.120206 -0.0243346 0.00295305)
(-0.169782 -0.0537858 -0.0713234)
(-0.343174 -0.105085 -0.218894)
(-0.268661 -0.268648 -0.644493)
(-0.0144141 -0.0144175 0.0440321)
(-0.0249562 -0.0158607 0.0451972)
(-0.0241699 -0.0261763 0.0471922)
(-0.0278163 -0.0280923 0.0460277)
(-0.0149819 -0.0475686 0.0474196)
(-0.0158572 -0.0249629 0.0451958)
(-0.0361026 -0.0361064 0.0483076)
(-0.0357013 -0.0659673 0.0474282)
(-0.0480683 -0.0917159 0.0504811)
(-0.0338805 -0.166064 0.0474679)
(-0.0261699 -0.0241743 0.0471883)
(-0.0659606 -0.0357042 0.0474297)
(-0.0798455 -0.0798499 0.0459391)
(-0.128081 -0.108231 0.0338809)
(-0.0912925 -0.257961 0.0199922)
(-0.0280874 -0.027824 0.0460246)
(-0.0917121 -0.0480686 0.050481)
(-0.108228 -0.128092 0.033879)
(-0.262074 -0.262082 -0.014848)
(-0.238571 -0.506153 -0.109912)
(-0.0475546 -0.0149859 0.0474072)
(-0.166061 -0.0338811 0.0474781)
(-0.257942 -0.0912979 0.0199668)
(-0.506147 -0.238591 -0.109951)
(-0.734194 -0.734196 -0.712015)
(-0.0151872 -0.015192 0.0545735)
(-0.0226887 -0.015797 0.0618662)
(-0.0229095 -0.0280305 0.0708277)
(-0.0243165 -0.0274801 0.0802985)
(-0.00971839 -0.0461978 0.0944753)
(-0.0157922 -0.0226996 0.0618651)
(-0.0347031 -0.034707 0.0700981)
(-0.033684 -0.0597984 0.0874687)
(-0.0407867 -0.0890772 0.0970318)
(-0.0275307 -0.140795 0.126011)
(-0.0280186 -0.0229155 0.0708256)
(-0.0597875 -0.0336871 0.0874698)
(-0.077382 -0.0773865 0.124906)
(-0.107402 -0.0995199 0.16452)
(-0.0691878 -0.205773 0.259869)
(-0.0274722 -0.0243335 0.0802955)
(-0.0890716 -0.04078 0.097031)
(-0.099515 -0.107437 0.164513)
(-0.239926 -0.239942 0.185224)
(-0.300017 -0.5665 0.262963)
(-0.0461619 -0.00972514 0.0944705)
(-0.140803 -0.0275309 0.126013)
(-0.205704 -0.0692039 0.259859)
(-0.566505 -0.29996 0.262909)
(-1.36021 -1.3601 0.211552)
(-0.00696849 -0.00697305 0.060312)
(-0.00873941 -0.00747211 0.0707692)
(-0.00578147 -0.00936649 0.0821876)
(-0.00423754 -0.0113342 0.094062)
(-0.000896788 -0.0158135 0.10979)
(-0.00746755 -0.0087482 0.0707693)
(-0.0106652 -0.010669 0.0833043)
(-0.00906754 -0.0122413 0.102974)
(-0.0101586 -0.00842422 0.116431)
(-0.00531462 0.00256678 0.138419)
(-0.00935675 -0.00578769 0.0821889)
(-0.0122325 -0.00907118 0.102973)
(-0.00346425 -0.0034746 0.145789)
(0.00926692 -0.00822474 0.191512)
(0.00464791 -0.0121445 0.281912)
(-0.011327 -0.00424796 0.094062)
(-0.00842441 -0.010158 0.11643)