/*--------------------------------*- C++ -*----------------------------------*\
| =========                 |                                                 |
| \\      /  F ield         | OpenFOAM: The Open Source CFD Toolbox           |
|  \\    /   O peration     | Version:  5.x                                   |
|   \\  /    A nd           | Web:      www.OpenFOAM.org                      |
|    \\/     M anipulation  |                                                 |
\*---------------------------------------------------------------------------*/
FoamFile
{
    version     2.0;
    format      ascii;
    class       surfaceScalarField;
    location    "0.003";
    object      phi;
}
// * * * * * * * * * * * * * * * * * * * * * * * * * * * * * * * * * * * * * //

dimensions      [0 3 -1 0 0 0 0];

internalField   nonuniform List<scalar> 
4339
(
-2.26789e-09
-2.26789e-09
-2.51086e-09
-1.3888e-09
-8.81819e-10
-5.64993e-10
-9.33789e-10
-7.92521e-10
-1.12319e-10
-6.46785e-10
-5.07805e-10
-4.33505e-11
-4.08744e-10
-3.20745e-11
-8.81818e-10
-1.3888e-09
-5.64993e-10
-7.01542e-10
-7.01541e-10
-3.59113e-10
-6.13224e-10
-6.57e-10
-2.2237e-10
-4.72828e-10
-4.60391e-10
-1.86246e-10
-3.86442e-10
-1.77398e-10
-7.9252e-10
-9.33791e-10
-1.1232e-10
-6.57001e-10
-6.13225e-10
-2.22371e-10
-5.67196e-10
-5.67198e-10
-1.7821e-10
-4.14561e-10
-4.28563e-10
-1.82935e-10
-3.54376e-10
-1.80157e-10
-5.07805e-10
-6.46786e-10
-4.3351e-11
-4.60391e-10
-4.7283e-10
-1.86247e-10
-4.28563e-10
-4.14563e-10
-1.82934e-10
-3.26396e-10
-3.26396e-10
-2.0249e-10
-2.6686e-10
-2.0798e-10
-4.08743e-10
-3.20749e-11
-3.86442e-10
-1.774e-10
-3.54375e-10
-1.80159e-10
-2.6686e-10
-2.07983e-10
-2.1926e-10
-1.56466e-09
-1.56466e-09
-1.17285e-09
-1.35819e-09
-7.74359e-10
-4.45928e-10
-9.37446e-10
-4.53788e-10
-3.79435e-10
-6.37343e-10
-2.78257e-10
-2.46255e-10
-2.00203e-10
-2.07435e-10
-7.7436e-10
-1.35819e-09
-4.45928e-10
-8.33711e-10
-8.33709e-10
-2.38411e-10
-6.72411e-10
-5.72197e-10
-2.63262e-10
-4.90397e-10
-3.96283e-10
-2.48076e-10
-3.08033e-10
-2.48133e-10
-4.53787e-10
-9.37445e-10
-3.79435e-10
-5.72196e-10
-6.72412e-10
-2.63261e-10
-5.13777e-10
-5.13776e-10
-2.93033e-10
-3.90768e-10
-3.89743e-10
-3.10104e-10
-3.12784e-10
-3.16142e-10
-2.78257e-10
-6.37344e-10
-2.46255e-10
-3.96282e-10
-4.90398e-10
-2.48075e-10
-3.89742e-10
-3.90769e-10
-3.10106e-10
-3.06719e-10
-3.06719e-10
-3.65124e-10
-2.44854e-10
-3.85814e-10
-2.00203e-10
-2.07437e-10
-3.08032e-10
-2.48134e-10
-3.12783e-10
-3.16144e-10
-2.44852e-10
-3.85815e-10
-4.13222e-10
-9.75304e-10
-9.75303e-10
-5.29006e-10
-8.58192e-10
-7.10757e-10
-2.7361e-10
-7.25587e-10
-6.31684e-10
-2.57562e-10
-5.20891e-10
-5.13844e-10
-2.28619e-10
-4.55783e-10
-2.23668e-10
-7.10758e-10
-8.58193e-10
-2.73611e-10
-6.69624e-10
-6.69624e-10
-3.18689e-10
-5.94087e-10
-5.99332e-10
-3.69288e-10
-4.32861e-10
-5.05582e-10
-4.15712e-10
-4.50767e-10
-4.36642e-10
-6.31682e-10
-7.25588e-10
-2.57561e-10
-5.99333e-10
-5.9409e-10
-3.69287e-10
-5.24195e-10
-5.24196e-10
-4.41601e-10
-3.79363e-10
-4.46317e-10
-5.12448e-10
-3.94287e-10
-5.43771e-10
-5.13844e-10
-5.20894e-10
-2.28618e-10
-5.05583e-10
-4.32863e-10
-4.15712e-10
-4.46317e-10
-3.79366e-10
-5.12446e-10
-3.21241e-10
-3.21243e-10
-6.13072e-10
-2.77031e-10
-6.58711e-10
-4.55782e-10
-2.23667e-10
-4.50767e-10
-4.36642e-10
-3.94284e-10
-5.43771e-10
-2.77031e-10
-6.5871e-10
-7.12402e-10
-6.98373e-10
-6.98373e-10
-2.95451e-11
-7.56613e-10
-5.47445e-10
-8.00706e-12
-6.70179e-10
-4.90274e-10
-1.54255e-10
-4.79076e-10
-4.1937e-10
-2.5124e-10
-3.80882e-10
-3.03549e-10
-5.47443e-10
-7.56613e-10
-8.00733e-12
-6.30552e-10
-6.30552e-10
-1.50239e-10
-5.7967e-10
-5.75419e-10
-3.32957e-10
-4.15038e-10
-5.09794e-10
-4.8789e-10
-4.69752e-10
-5.62912e-10
-4.90275e-10
-6.7018e-10
-1.54254e-10
-5.75419e-10
-5.79673e-10
-3.32958e-10
-5.33405e-10
-5.33405e-10
-5.23731e-10
-3.78901e-10
-4.77377e-10
-6.97485e-10
-4.39987e-10
-7.8047e-10
-4.19372e-10
-4.79077e-10
-2.51241e-10
-5.09792e-10
-4.15039e-10
-4.87891e-10
-4.77378e-10
-3.78905e-10
-6.97486e-10
-3.34407e-10
-3.34406e-10
-8.96905e-10
-3.00886e-10
-9.9346e-10
-3.80877e-10
-3.0355e-10
-4.69751e-10
-5.62911e-10
-4.39986e-10
-7.80469e-10
-3.00885e-10
-9.9346e-10
-1.09658e-09
-8.71189e-10
-8.71191e-10
6.79793e-10
-8.91244e-10
-7.85408e-10
3.4479e-10
-7.82118e-10
-7.55008e-10
6.03059e-11
-5.22956e-10
-7.10346e-10
-2.00163e-10
-6.83083e-10
-3.32132e-10
-7.85407e-10
-8.91244e-10
3.44791e-10
-8.21116e-10
-8.21116e-10
-7.62143e-11
-7.24717e-10
-7.92624e-10
-3.89331e-10
-4.79878e-10
-7.52041e-10
-6.88695e-10
-7.24376e-10
-8.38984e-10
-7.55007e-10
-7.82117e-10
6.03054e-11
-7.92623e-10
-7.24719e-10
-3.89331e-10
-6.96858e-10
-6.96859e-10
-7.13059e-10
-4.56052e-10
-6.59809e-10
-1.02835e-09
-6.32463e-10
-1.1861e-09
-7.1035e-10
-5.22957e-10
-2.00165e-10
-7.52041e-10
-4.79877e-10
-6.88694e-10
-6.59807e-10
-4.56052e-10
-1.02835e-09
-4.24938e-10
-4.24939e-10
-1.36432e-09
-4.00332e-10
-1.53441e-09
-6.83082e-10
-3.32133e-10
-7.24376e-10
-8.38984e-10
-6.32462e-10
-1.1861e-09
-4.00331e-10
-1.53442e-09
-1.70942e-09
-9.9696e-10
-9.9696e-10
1.52009e-09
-1.0988e-09
-9.59977e-10
8.57426e-10
-9.74803e-10
-9.44325e-10
3.42105e-10
-6.20485e-10
-9.21847e-10
-1.55703e-10
-9.0521e-10
-4.09093e-10
-9.59976e-10
-1.0988e-09
8.57424e-10
-1.06599e-09
-1.06599e-09
1.38995e-10
-9.45725e-10
-1.05054e-09
-4.00439e-10
-5.95869e-10
-1.02891e-09
-9.28564e-10
-1.01138e-09
-1.19799e-09
-9.44322e-10
-9.74803e-10
3.42105e-10
-1.05054e-09
-9.45726e-10
-4.0044e-10
-9.30095e-10
-9.30095e-10
-9.51208e-10
-5.80992e-10
-9.08725e-10
-1.49491e-09
-8.90239e-10
-1.77186e-09
-9.21848e-10
-6.20487e-10
-1.55704e-10
-1.02891e-09
-5.95869e-10
-9.28563e-10
-9.08724e-10
-5.80993e-10
-1.49491e-09
-5.61312e-10
-5.61313e-10
-2.0563e-09
-5.44536e-10
-2.34523e-09
-9.05209e-10
-4.09093e-10
-1.01138e-09
-1.19799e-09
-8.90239e-10
-1.77186e-09
-5.44534e-10
-2.34523e-09
-2.63717e-09
-1.46708e-09
-1.46708e-09
2.78973e-09
-1.58875e-09
-1.45462e-09
1.61322e-09
-1.38419e-09
-1.45191e-09
7.71486e-10
-8.39377e-10
-1.44502e-09
-6.79409e-11
-1.43712e-09
-4.99581e-10
-1.45462e-09
-1.58875e-09
1.61322e-09
-1.5791e-09
-1.5791e-09
3.9182e-10
-1.37429e-09
-1.57693e-09
-4.76567e-10
-8.27604e-10
-1.57061e-09
-1.34598e-09
-1.56215e-09
-1.79429e-09
-1.45191e-09
-1.38419e-09
7.71486e-10
-1.57693e-09
-1.37429e-09
-4.76567e-10
-1.37028e-09
-1.37028e-09
-1.36107e-09
-8.20669e-10
-1.36238e-09
-2.24927e-09
-1.352e-09
-2.7066e-09
-1.44501e-09
-8.39374e-10
-6.79403e-11
-1.57061e-09
-8.27604e-10
-1.34598e-09
-1.36238e-09
-8.20671e-10
-2.24927e-09
-8.1026e-10
-8.10261e-10
-3.15685e-09
-7.99972e-10
-3.6274e-09
-1.43712e-09
-4.99582e-10
-1.56215e-09
-1.79429e-09
-1.352e-09
-2.7066e-09
-7.99969e-10
-3.6274e-09
-4.09952e-09
-2.16558e-09
-2.16558e-09
4.66173e-09
-2.36088e-09
-2.17897e-09
2.75392e-09
-2.04593e-09
-2.19256e-09
1.40871e-09
-1.20546e-09
-2.20359e-09
4.99575e-11
-2.20586e-09
-6.51706e-10
-2.17897e-09
-2.36088e-09
2.75392e-09
-2.37622e-09
-2.37622e-09
7.90854e-10
-2.05711e-09
-2.39116e-09
-5.92729e-10
-1.20715e-09
-2.4031e-09
-1.99198e-09
-2.40553e-09
-2.71588e-09
-2.19255e-09
-2.04593e-09
1.40871e-09
-2.39116e-09
-2.05711e-09
-5.92728e-10
-2.06847e-09
-2.06847e-09
-2.0023e-09
-1.21025e-09
-2.0769e-09
-3.42941e-09
-2.07624e-09
-4.16685e-09
-2.20359e-09
-1.20546e-09
4.99557e-11
-2.4031e-09
-1.20715e-09
-1.99198e-09
-2.0769e-09
-1.21025e-09
-3.4294e-09
-1.21084e-09
-1.21084e-09
-4.88442e-09
-1.20783e-09
-5.63966e-09
-2.20586e-09
-6.51706e-10
-2.40553e-09
-2.71588e-09
-2.07624e-09
-4.16685e-09
-1.20783e-09
-5.63966e-09
-6.39677e-09
-3.33938e-09
-3.33938e-09
7.54163e-09
-3.62391e-09
-3.38375e-09
4.50073e-09
-3.12283e-09
-3.42052e-09
2.38724e-09
-1.80827e-09
-3.45575e-09
2.31996e-10
-3.4713e-09
-8.81266e-10
-3.38375e-09
-3.62391e-09
4.50073e-09
-3.67171e-09
-3.67171e-09
1.3717e-09
-3.16189e-09
-3.71178e-09
-8.06519e-10
-1.82704e-09
-3.74917e-09
-3.02844e-09
-3.76577e-09
-4.17787e-09
-3.42052e-09
-3.12283e-09
2.38724e-09
-3.71178e-09
-3.16189e-09
-8.06519e-10
-3.19557e-09
-3.19557e-09
-3.03008e-09
-1.84374e-09
-3.22647e-09
-5.29912e-09
-3.23779e-09
-6.47225e-09
-3.45574e-09
-1.80826e-09
2.32e-10
-3.74917e-09
-1.82704e-09
-3.02844e-09
-3.22647e-09
-1.84374e-09
-5.29911e-09
-1.85835e-09
-1.85835e-09
-7.6155e-09
-1.86475e-09
-8.81691e-09
-3.4713e-09
-8.81264e-10
-3.76577e-09
-4.17787e-09
-3.23779e-09
-6.47225e-09
-1.86475e-09
-8.81691e-09
-1.0025e-08
-5.18378e-09
-5.18378e-09
1.19851e-08
-5.61219e-09
-5.27901e-09
7.19456e-09
-4.82205e-09
-5.35537e-09
3.89782e-09
-2.76558e-09
-5.43075e-09
5.11414e-10
-5.46807e-09
-1.235e-09
-5.27901e-09
-5.61219e-09
7.19456e-09
-5.71391e-09
-5.71391e-09
2.24633e-09
-4.90728e-09
-5.79705e-09
-1.16677e-09
-2.81156e-09
-5.87705e-09
-4.67295e-09
-5.91731e-09
-6.48374e-09
-5.35537e-09
-4.82205e-09
3.89782e-09
-5.79705e-09
-4.90728e-09
-1.16677e-09
-4.97891e-09
-4.97891e-09
-4.66176e-09
-2.85056e-09
-5.04738e-09
-8.25233e-09
-5.07907e-09
-1.01071e-08
-5.43075e-09
-2.76558e-09
5.11416e-10
-5.87705e-09
-2.81156e-09
-4.67295e-09
-5.04738e-09
-2.85056e-09
-8.25233e-09
-2.88801e-09
-2.88801e-09
-1.19291e-08
-2.90821e-09
-1.38329e-08
-5.46807e-09
-1.235e-09
-5.91731e-09
-6.48374e-09
-5.07907e-09
-1.01071e-08
-2.90821e-09
-1.38329e-08
-1.57555e-08
-8.08625e-09
-8.08625e-09
1.88715e-08
-8.73105e-09
-8.27211e-09
1.13637e-08
-7.48797e-09
-8.4191e-09
6.24619e-09
-4.27219e-09
-8.56614e-09
9.54131e-10
-8.64188e-09
-1.7687e-09
-8.27211e-09
-8.73105e-09
1.13637e-08
-8.92907e-09
-8.92907e-09
3.56439e-09
-7.65515e-09
-9.08889e-09
-1.76686e-09
-4.36552e-09
-9.24455e-09
-7.27999e-09
-9.3262e-09
-1.01212e-08
-8.4191e-09
-7.48797e-09
6.24619e-09
-9.08889e-09
-7.65515e-09
-1.76686e-09
-7.79405e-09
-7.79405e-09
-7.24753e-09
-4.44317e-09
-7.9286e-09
-1.29151e-08
-7.99598e-09
-1.58382e-08
-8.56614e-09
-4.27219e-09
9.54132e-10
-9.24455e-09
-4.36552e-09
-7.27999e-09
-7.9286e-09
-4.44317e-09
-1.29151e-08
-4.51958e-09
-4.51958e-09
-1.8743e-08
-4.56167e-09
-2.17532e-08
-8.64188e-09
-1.7687e-09
-9.3262e-09
-1.01212e-08
-7.99598e-09
-1.58382e-08
-4.56167e-09
-2.17532e-08
-2.48066e-08
-1.26217e-08
-1.26217e-08
2.95463e-08
-1.35969e-08
-1.2974e-08
1.78252e-08
-1.16489e-08
-1.32501e-08
9.90921e-09
-6.62759e-09
-1.35284e-08
1.66865e-09
-1.36749e-08
-2.56061e-09
-1.2974e-08
-1.35969e-08
1.78252e-08
-1.39715e-08
-1.39715e-08
5.56224e-09
-1.19663e-08
-1.4271e-08
-2.74834e-09
-6.80705e-09
-1.45645e-08
-1.14002e-08
-1.47218e-08
-1.5849e-08
-1.32501e-08
-1.16489e-08
9.90921e-09
-1.4271e-08
-1.19663e-08
-2.74834e-09
-1.22276e-08
-1.22276e-08
-1.13317e-08
-6.95455e-09
-1.24818e-08
-2.02682e-08
-1.26145e-08
-2.48688e-08
-1.35284e-08
-6.62759e-09
1.66865e-09
-1.45645e-08
-6.80705e-09
-1.14002e-08
-1.24818e-08
-6.95455e-09
-2.02682e-08
-7.09987e-09
-7.09987e-09
-2.95044e-08
-7.18088e-09
-3.42635e-08
-1.36749e-08
-2.56061e-09
-1.47218e-08
-1.5849e-08
-1.26145e-08
-2.48688e-08
-7.18088e-09
-3.42635e-08
-3.9108e-08
-1.96832e-08
-1.96832e-08
4.60748e-08
-2.11634e-08
-2.03453e-08
2.78446e-08
-1.81236e-08
-2.08595e-08
1.56382e-08
-1.02977e-08
-2.1381e-08
2.84228e-09
-2.16587e-08
-3.70926e-09
-2.03453e-08
-2.11634e-08
2.78446e-08
-2.18653e-08
-2.18653e-08
8.60386e-09
-1.87198e-08
-2.24218e-08
-4.33005e-09
-1.06367e-08
-2.29701e-08
-1.78929e-08
-2.32673e-08
-2.48521e-08
-2.08595e-08
-1.81236e-08
1.56382e-08
-2.24218e-08
-1.87198e-08
-4.33006e-09
-1.92068e-08
-1.92068e-08
-1.77604e-08
-1.09135e-08
-1.96825e-08
-3.18481e-08
-1.9937e-08
-3.90886e-08
-2.1381e-08
-1.02977e-08
2.84228e-09
-2.29701e-08
-1.06367e-08
-1.78929e-08
-1.96825e-08
-1.09135e-08
-3.18481e-08
-1.11857e-08
-1.11857e-08
-4.64975e-08
-1.13376e-08
-5.40345e-08
-2.16587e-08
-3.70926e-09
-2.32673e-08
-2.48522e-08
-1.9937e-08
-3.90886e-08
-1.13376e-08
-5.40345e-08
-6.1738e-08
-3.06519e-08
-3.06519e-08
7.16295e-08
-3.28982e-08
-3.18809e-08
4.33706e-08
-2.81713e-08
-3.28299e-08
2.46099e-08
-1.59985e-08
-3.37997e-08
4.79148e-09
-3.43181e-08
-5.33643e-09
-3.18809e-08
-3.28982e-08
4.33706e-08
-3.42025e-08
-3.42025e-08
1.32473e-08
-2.92825e-08
-3.52285e-08
-6.85129e-09
-1.66324e-08
-3.62449e-08
-2.80979e-08
-3.67982e-08
-3.89854e-08
-3.28299e-08
-2.81713e-08
2.46099e-08
-3.52285e-08
-2.92825e-08
-6.85129e-09
-3.01835e-08
-3.01835e-08
-2.78503e-08
-1.71468e-08
-3.1065e-08
-5.0065e-08
-3.15423e-08
-6.1473e-08
-3.37997e-08
-1.59985e-08
4.79148e-09
-3.62449e-08
-1.66324e-08
-2.80979e-08
-3.1065e-08
-1.71468e-08
-5.0065e-08
-1.76499e-08
-1.76499e-08
-7.33289e-08
-1.79305e-08
-8.52867e-08
-3.43181e-08
-5.33643e-09
-3.67982e-08
-3.89854e-08
-3.15423e-08
-6.1473e-08
-1.79305e-08
-8.52867e-08
-9.75631e-08
-4.75638e-08
-4.75638e-08
1.10981e-07
-5.10023e-08
-4.98696e-08
6.74154e-08
-4.36903e-08
-5.16231e-08
3.86678e-08
-2.48179e-08
-5.34339e-08
8.06903e-09
-5.44064e-08
-7.56219e-09
-4.98696e-08
-5.10023e-08
6.74154e-08
-5.34348e-08
-5.34348e-08
2.03771e-08
-4.57701e-08
-5.53276e-08
-1.08122e-08
-2.60096e-08
-5.7223e-08
-4.40702e-08
-5.82625e-08
-6.1122e-08
-5.16231e-08
-4.36903e-08
3.86678e-08
-5.53276e-08
-4.57701e-08
-1.08122e-08
-4.74443e-08
-4.74443e-08
-4.36178e-08
-2.69722e-08
-4.90997e-08
-7.86614e-08
-5.00141e-08
-9.66771e-08
-5.34339e-08
-2.48179e-08
8.06903e-09
-5.7223e-08
-2.60096e-08
-4.40702e-08
-4.90997e-08
-2.69722e-08
-7.86614e-08
-2.79271e-08
-2.79271e-08
-1.15676e-07
-2.84616e-08
-1.34756e-07
-5.44064e-08
-7.5622e-09
-5.82625e-08
-6.1122e-08
-5.00141e-08
-9.66771e-08
-2.84616e-08
-1.34756e-07
-1.54451e-07
-7.36787e-08
-7.36787e-08
1.71404e-07
-7.88436e-08
-7.787e-08
1.04464e-07
-6.75597e-08
-8.10673e-08
6.06367e-08
-3.8399e-08
-8.44047e-08
1.35759e-08
-8.62035e-08
-1.04998e-08
-7.787e-08
-7.88436e-08
1.04464e-07
-8.3319e-08
-8.3319e-08
3.12738e-08
-7.14124e-08
-8.67803e-08
-1.70071e-08
-4.06166e-08
-9.02897e-08
-6.89823e-08
-9.22239e-08
-9.56998e-08
-8.10673e-08
-6.75597e-08
6.06367e-08
-8.67803e-08
-7.14124e-08
-1.70071e-08
-7.44966e-08
-7.44966e-08
-6.81865e-08
-4.24076e-08
-7.7575e-08
-1.23467e-07
-7.92764e-08
-1.52014e-07
-8.44047e-08
-3.8399e-08
1.35759e-08
-9.02897e-08
-4.06166e-08
-6.89823e-08
-7.7575e-08
-4.24076e-08
-1.23467e-07
-4.41749e-08
-4.41749e-08
-1.82478e-07
-4.51892e-08
-2.13005e-07
-8.62035e-08
-1.04998e-08
-9.22239e-08
-9.56997e-08
-7.92764e-08
-1.52014e-07
-4.51892e-08
-2.13005e-07
-2.44793e-07
-1.13305e-07
-1.13305e-07
2.63496e-07
-1.21231e-07
-1.21133e-07
1.61453e-07
-1.03897e-07
-1.26883e-07
9.47398e-08
-5.91545e-08
-1.33071e-07
2.28218e-08
-1.36434e-07
-1.42266e-08
-1.21133e-07
-1.21231e-07
1.61453e-07
-1.2951e-07
-1.2951e-07
4.80264e-08
-1.11081e-07
-1.35714e-07
-2.66063e-08
-6.33317e-08
-1.42209e-07
-1.07596e-07
-1.45827e-07
-1.49612e-07
-1.26883e-07
-1.03897e-07
9.47398e-08
-1.35714e-07
-1.11081e-07
-2.66063e-08
-1.16663e-07
-1.16663e-07
-1.06291e-07
-6.66e-08
-1.2243e-07
-1.9331e-07
-1.25704e-07
-2.38711e-07
-1.33071e-07
-5.91545e-08
2.28218e-08
-1.42209e-07
-6.33317e-08
-1.07596e-07
-1.2243e-07
-6.66e-08
-1.9331e-07
-7.00015e-08
-7.00015e-08
-2.87338e-07
-7.19429e-08
-3.36743e-07
-1.36434e-07
-1.42266e-08
-1.45827e-07
-1.49612e-07
-1.25704e-07
-2.38711e-07
-7.19429e-08
-3.36743e-07
-3.88627e-07
-1.73922e-07
-1.73922e-07
4.03068e-07
-1.85616e-07
-1.87814e-07
2.48224e-07
-1.59123e-07
-1.98046e-07
1.47261e-07
-9.07914e-08
-2.09197e-07
3.79092e-08
-2.15264e-07
-1.91155e-08
-1.87814e-07
-1.85616e-07
2.48224e-07
-2.00541e-07
-2.00541e-07
7.34771e-08
-1.72144e-07
-2.11448e-07
-4.16028e-08
-9.83807e-08
-2.23197e-07
-1.67362e-07
-2.29749e-07
-2.33474e-07
-1.98046e-07
-1.59123e-07
1.47261e-07
-2.11448e-07
-1.72144e-07
-4.16028e-08
-1.81869e-07
-1.81869e-07
-1.65452e-07
-1.04204e-07
-1.92163e-07
-3.02011e-07
-1.97988e-07
-3.74643e-07
-2.09197e-07
-9.07914e-08
3.79092e-08
-2.23197e-07
-9.83807e-08
-1.67362e-07
-1.92163e-07
-1.04204e-07
-3.02011e-07
-1.10275e-07
-1.10275e-07
-4.51117e-07
-1.13938e-07
-5.31042e-07
-2.15264e-07
-1.91155e-08
-2.29749e-07
-2.33474e-07
-1.97988e-07
-3.74643e-07
-1.13938e-07
-5.31042e-07
-6.1645e-07
-2.64641e-07
-2.64641e-07
6.13578e-07
-2.8278e-07
-2.89969e-07
3.80724e-07
-2.42602e-07
-3.07263e-07
2.27349e-07
-1.38908e-07
-3.27208e-07
6.16445e-08
-3.38172e-07
-2.65835e-08
-2.89969e-07
-2.8278e-07
3.80724e-07
-3.09665e-07
-3.09665e-07
1.12866e-07
-2.65921e-07
-3.275e-07
-6.51119e-08
-1.52846e-07
-3.47966e-07
-2.59681e-07
-3.59478e-07
-3.64945e-07
-3.07263e-07
-2.42602e-07
2.27349e-07
-3.275e-07
-2.65921e-07
-6.51119e-08
-2.81288e-07
-2.81288e-07
-2.57879e-07
-1.6203e-07
-2.98626e-07
-4.70612e-07
-3.08026e-07
-5.88064e-07
-3.27208e-07
-1.38908e-07
6.16445e-08
-3.47966e-07
-1.52846e-07
-2.59681e-07
-2.98626e-07
-1.6203e-07
-4.70612e-07
-1.72184e-07
-1.72184e-07
-7.04006e-07
-1.77763e-07
-8.3343e-07
-3.38172e-07
-2.65835e-08
-3.59478e-07
-3.64945e-07
-3.08026e-07
-5.88064e-07
-1.77763e-07
-8.3343e-07
-9.71878e-07
-4.09816e-07
-4.09816e-07
9.44075e-07
-4.32913e-07
-4.48341e-07
5.79612e-07
-3.70221e-07
-4.75963e-07
3.47048e-07
-2.12737e-07
-5.09724e-07
9.69391e-08
-5.2842e-07
-4.05182e-08
-4.48341e-07
-4.32913e-07
5.79612e-07
-4.77752e-07
-4.77752e-07
1.71685e-07
-4.09406e-07
-5.05548e-07
-1.03876e-07
-2.36214e-07
-5.38738e-07
-4.03862e-07
-5.57582e-07
-5.71892e-07
-4.75963e-07
-3.70221e-07
3.47048e-07
-5.05548e-07
-4.09406e-07
-1.03876e-07
-4.31396e-07
-4.31396e-07
-4.06186e-07
-2.49975e-07
-4.55012e-07
-7.35763e-07
-4.70151e-07
-9.25386e-07
-5.09724e-07
-2.12737e-07
9.69391e-08
-5.38738e-07
-2.36214e-07
-4.03862e-07
-4.55012e-07
-2.49975e-07
-7.35763e-07
-2.65494e-07
-2.65494e-07
-1.08304e-06
-2.75324e-07
-1.29369e-06
-5.2842e-07
-4.05182e-08
-5.57582e-07
-5.71892e-07
-4.70151e-07
-9.25386e-07
-2.75324e-07
-1.29369e-06
-1.52245e-06
-6.36899e-07
-6.36899e-07
1.49416e-06
-6.67846e-07
-6.95634e-07
8.87311e-07
-5.6626e-07
-7.35107e-07
5.22654e-07
-3.25282e-07
-7.92312e-07
1.46987e-07
-8.25263e-07
-6.70926e-08
-6.95634e-07
-6.67846e-07
8.87311e-07
-7.40318e-07
-7.40318e-07
2.61051e-07
-6.31487e-07
-7.80236e-07
-1.67581e-07
-3.66566e-07
-8.32786e-07
-6.28311e-07
-8.66291e-07
-8.97231e-07
-7.35107e-07
-5.6626e-07
5.22654e-07
-7.80236e-07
-6.31487e-07
-1.67581e-07
-6.59028e-07
-6.59028e-07
-6.48605e-07
-3.88133e-07
-6.86625e-07
-1.15282e-06
-7.00957e-07
-1.47869e-06
-7.92312e-07
-3.25282e-07
1.46987e-07
-8.32786e-07
-3.66566e-07
-6.28311e-07
-6.86625e-07
-3.88133e-07
-1.15282e-06
-4.05813e-07
-4.05813e-07
-1.64467e-06
-4.18062e-07
-1.98226e-06
-8.25263e-07
-6.70926e-08
-8.66291e-07
-8.97231e-07
-7.00957e-07
-1.47869e-06
-4.18062e-07
-1.98226e-06
-2.35844e-06
-1.01782e-06
-1.01782e-06
2.39325e-06
-1.03722e-06
-1.08471e-06
1.35158e-06
-8.66278e-07
-1.14082e-06
7.79828e-07
-4.94977e-07
-1.22883e-06
2.16005e-07
-1.28323e-06
-1.13259e-07
-1.08471e-06
-1.03722e-06
1.35158e-06
-1.1409e-06
-1.1409e-06
3.73418e-07
-9.65542e-07
-1.20667e-06
-2.77082e-07
-5.62919e-07
-1.28054e-06
-9.79225e-07
-1.34586e-06
-1.39724e-06
-1.14082e-06
-8.66278e-07
7.79828e-07
-1.20667e-06
-9.65542e-07
-2.77082e-07
-1.00386e-06
-1.00386e-06
-1.05423e-06
-6.01497e-07
-1.12129e-06
-1.71443e-06
-1.20725e-06
-2.21854e-06
-1.22883e-06
-4.94977e-07
2.16005e-07
-1.28054e-06
-5.62919e-07
-9.79225e-07
-1.12129e-06
-6.01497e-07
-1.71443e-06
-6.75209e-07
-6.75209e-07
-2.53683e-06
-7.48124e-07
-3.11647e-06
-1.28323e-06
-1.13259e-07
-1.34586e-06
-1.39724e-06
-1.20725e-06
-2.21854e-06
-7.48124e-07
-3.11647e-06
-3.85426e-06
-1.32484e-06
-1.32484e-06
3.45184e-06
-1.53592e-06
-1.66023e-06
2.24101e-06
-1.30223e-06
-1.77228e-06
1.2257e-06
-7.52257e-07
-1.92732e-06
3.56829e-07
-2.01657e-06
-1.71766e-07
-1.66023e-06
-1.53592e-06
2.24101e-06
-1.75415e-06
-1.75415e-06
5.61259e-07
-1.48805e-06
-1.89023e-06
-4.25234e-07
-8.57447e-07
-2.12251e-06
-1.41464e-06
-2.32712e-06
-1.9438e-06
-1.77228e-06
-1.30223e-06
1.2257e-06
-1.89023e-06
-1.48805e-06
-4.25234e-07
-1.65887e-06
-1.65887e-06
-1.51695e-06
-1.01587e-06
-1.88721e-06
-2.59273e-06
-2.09968e-06
-3.46163e-06
-1.92732e-06
-7.52257e-07
3.56829e-07
-2.12251e-06
-8.57447e-07
-1.41464e-06
-1.88721e-06
-1.01587e-06
-2.59273e-06
-1.19822e-06
-1.19822e-06
-3.91481e-06
-1.367e-06
-5.0471e-06
-2.01657e-06
-1.71766e-07
-2.32712e-06
-1.9438e-06
-2.09968e-06
-3.46163e-06
-1.367e-06
-5.0471e-06
-6.58777e-06
-1.76639e-06
-1.76639e-06
4.69331e-06
-1.99445e-06
-2.3046e-06
3.34097e-06
-1.88794e-06
-2.73807e-06
2.17519e-06
-1.13447e-06
-2.99148e-06
6.98221e-07
-3.26617e-06
-1.08615e-07
-2.3046e-06
-1.99445e-06
3.34097e-06
-2.57069e-06
-2.57069e-06
1.09343e-06
-2.22707e-06
-2.99046e-06
-5.16462e-07
-1.41119e-06
-3.47066e-06
-1.75135e-06
-3.86895e-06
-2.75158e-06
-2.73807e-06
-1.88794e-06
2.17519e-06
-2.99046e-06
-2.22707e-06
-5.16462e-07
-2.67923e-06
-2.67923e-06
-2.13941e-06
-1.72966e-06
-3.14888e-06
-3.86408e-06
-3.6091e-06
-5.45063e-06
-2.99148e-06
-1.13447e-06
6.98221e-07
-3.47066e-06
-1.41119e-06
-1.75135e-06
-3.14888e-06
-1.72966e-06
-3.86408e-06
-2.08211e-06
-2.08211e-06
-6.04835e-06
-2.46281e-06
-8.27504e-06
-3.26617e-06
-1.08615e-07
-3.86895e-06
-2.75158e-06
-3.6091e-06
-5.45063e-06
-2.46281e-06
-8.27504e-06
-1.15122e-05
-2.43038e-06
-2.43038e-06
6.27093e-06
-2.77915e-06
-3.22094e-06
4.82781e-06
-2.53674e-06
-4.07779e-06
3.48585e-06
-1.72481e-06
-4.82591e-06
1.75715e-06
-5.35543e-06
2.46656e-07
-3.22094e-06
-2.77915e-06
4.82781e-06
-3.85142e-06
-3.85142e-06
2.3544e-06
-3.45155e-06
-4.74348e-06
-2.50644e-07
-2.24881e-06
-5.67062e-06
-2.10937e-06
-6.57072e-06
-3.7844e-06
-4.07779e-06
-2.53674e-06
3.48585e-06
-4.74348e-06
-3.45155e-06
-2.50644e-07
-4.3605e-06
-4.3605e-06
-2.90536e-06
-2.97332e-06
-5.30466e-06
-5.61723e-06
-6.37171e-06
-8.62246e-06
-4.82591e-06
-1.72481e-06
1.75715e-06
-5.67062e-06
-2.24881e-06
-2.10937e-06
-5.30466e-06
-2.97332e-06
-5.61723e-06
-3.70269e-06
-3.70269e-06
-9.25229e-06
-4.69407e-06
-1.36546e-05
-5.35543e-06
2.46656e-07
-6.57072e-06
-3.7844e-06
-6.37171e-06
-8.62246e-06
-4.69407e-06
-1.36546e-05
-2.08997e-05
-3.30914e-06
-3.30914e-06
8.36438e-06
-3.79982e-06
-4.46573e-06
6.83569e-06
-3.4661e-06
-5.81828e-06
5.309e-06
-2.32063e-06
-7.22487e-06
3.45066e-06
-8.50573e-06
1.3824e-06
-4.46573e-06
-3.79982e-06
6.83569e-06
-5.43303e-06
-5.43303e-06
4.28899e-06
-5.14282e-06
-7.24946e-06
8.90331e-07
-3.4894e-06
-8.95291e-06
-2.03475e-06
-1.09211e-05
-4.85765e-06
-5.81828e-06
-3.4661e-06
5.309e-06
-7.24946e-06
-5.14282e-06
8.90331e-07
-6.95137e-06
-6.95137e-06
-3.50154e-06
-5.00029e-06
-8.80212e-06
-7.7191e-06
-1.12566e-05
-1.32863e-05
-7.22487e-06
-2.32063e-06
3.45066e-06
-8.95291e-06
-3.4894e-06
-2.03475e-06
-8.80212e-06
-5.00029e-06
-7.7191e-06
-6.60777e-06
-6.60777e-06
-1.3641e-05
-8.95127e-06
-2.25675e-05
-8.50573e-06
1.3824e-06
-1.09211e-05
-4.85765e-06
-1.12566e-05
-1.32863e-05
-8.95127e-06
-2.25675e-05
-3.87988e-05
-4.81739e-06
-4.81739e-06
1.1715e-05
-5.58971e-06
-6.52614e-06
9.92518e-06
-5.11258e-06
-8.58112e-06
8.07438e-06
-3.47485e-06
-1.10025e-05
6.20583e-06
-1.35997e-05
3.66833e-06
-6.52614e-06
-5.58971e-06
9.92518e-06
-8.02045e-06
-8.02045e-06
7.27761e-06
-7.97098e-06
-1.14063e-05
3.66599e-06
-5.60268e-06
-1.44492e-05
-9.56381e-07
-1.86953e-05
-5.36309e-06
-8.58112e-06
-5.11258e-06
8.07438e-06
-1.14063e-05
-7.97098e-06
3.66599e-06
-1.14866e-05
-1.14866e-05
-3.34085e-06
-8.86487e-06
-1.5068e-05
-9.72202e-06
-2.09653e-05
-1.98806e-05
-1.10025e-05
-3.47485e-06
6.20583e-06
-1.44492e-05
-5.60268e-06
-9.56381e-07
-1.5068e-05
-8.86487e-06
-9.72202e-06
-1.21127e-05
-1.21127e-05
-1.95517e-05
-1.84945e-05
-3.71459e-05
-1.35997e-05
3.66833e-06
-1.86953e-05
-5.36309e-06
-2.09653e-05
-1.98806e-05
-1.84945e-05
-3.71459e-05
-7.57872e-05
-6.2599e-06
-6.2599e-06
1.62587e-05
-7.54703e-06
-8.94056e-06
1.4607e-05
-7.18415e-06
-1.2211e-05
1.25745e-05
-5.08092e-06
-1.54207e-05
1.04228e-05
-2.0421e-05
7.53173e-06
-8.94056e-06
-7.54703e-06
1.4607e-05
-1.11806e-05
-1.11806e-05
1.17577e-05
-1.1079e-05
-1.65161e-05
7.8695e-06
-8.82276e-06
-2.22242e-05
3.59083e-06
-3.11345e-05
-3.47256e-06
-1.2211e-05
-7.18415e-06
1.25745e-05
-1.65161e-05
-1.1079e-05
7.8695e-06
-1.79188e-05
-1.79188e-05
-5.35524e-07
-1.50817e-05
-2.54065e-05
-9.37669e-06
-3.96863e-05
-2.64087e-05
-1.54207e-05
-5.08092e-06
1.04228e-05
-2.22242e-05
-8.82276e-06
3.59083e-06
-2.54065e-05
-1.50817e-05
-9.37669e-06
-2.29104e-05
-2.29104e-05
-2.45439e-05
-3.90993e-05
-6.06496e-05
-2.0421e-05
7.53173e-06
-3.11345e-05
-3.47256e-06
-3.96863e-05
-2.64087e-05
-3.90993e-05
-6.06496e-05
-0.000153973
-7.94241e-06
-7.94241e-06
2.22504e-05
-1.00079e-05
-1.19618e-05
2.14476e-05
-1.00467e-05
-1.75011e-05
2.00074e-05
-7.59673e-06
-2.33536e-05
1.83046e-05
-3.23684e-05
1.54146e-05
-1.19618e-05
-1.00079e-05
2.14476e-05
-1.58627e-05
-1.58627e-05
1.95596e-05
-1.67079e-05
-2.49214e-05
1.6135e-05
-1.3335e-05
-3.52494e-05
1.21136e-05
-5.33372e-05
4.16785e-06
-1.75011e-05
-1.00467e-05
2.00074e-05
-2.49214e-05
-1.67079e-05
1.6135e-05
-2.95384e-05
-2.95384e-05
8.69848e-06
-2.63174e-05
-4.42002e-05
-3.64693e-06
-7.87475e-05
-2.73165e-05
-2.33536e-05
-7.59673e-06
1.83046e-05
-3.52494e-05
-1.3335e-05
1.21136e-05
-4.42002e-05
-2.63174e-05
-3.64693e-06
-4.19651e-05
-4.19651e-05
-2.90141e-05
-8.53744e-05
-9.59533e-05
-3.23684e-05
1.54146e-05
-5.33372e-05
4.16785e-06
-7.87475e-05
-2.73165e-05
-8.53744e-05
-9.59533e-05
-0.000324722
-8.51454e-06
-8.51454e-06
2.88245e-05
-1.10287e-05
-1.34708e-05
2.94955e-05
-1.15479e-05
-2.1024e-05
2.98806e-05
-9.26217e-06
-2.95878e-05
2.99068e-05
-4.59501e-05
2.9848e-05
-1.34708e-05
-1.10287e-05
2.94955e-05
-1.86206e-05
-1.86206e-05
2.98593e-05
-2.11767e-05
-3.20423e-05
2.97094e-05
-1.87677e-05
-4.8101e-05
2.82179e-05
-8.68607e-05
2.63033e-05
-2.1024e-05
-1.15479e-05
2.98806e-05
-3.20423e-05
-2.11767e-05
2.97094e-05
-4.2093e-05
-4.2093e-05
2.88e-05
-4.23829e-05
-7.51619e-05
2.37039e-05
-0.000175082
1.8532e-05
-2.95878e-05
-9.26217e-06
2.99068e-05
-4.8101e-05
-1.87677e-05
2.82179e-05
-7.51619e-05
-4.23829e-05
2.37039e-05
-8.46075e-05
-8.46075e-05
-1.0123e-05
-0.000228984
-1.65201e-05
-2.40594e-05
-3.33362e-05
-5.27652e-05
-4.59501e-05
2.9848e-05
-8.68607e-05
2.63033e-05
-0.000175082
1.8532e-05
-0.000228984
-1.65201e-05
-3.33362e-05
-2.40594e-05
-5.27652e-05
-0.00011114
-0.00017259
-0.00017259
-0.000326363
-8.79837e-06
-8.79837e-06
3.58933e-05
-1.19421e-05
-1.48312e-05
3.90522e-05
-1.33542e-05
-2.48182e-05
4.2912e-05
-1.0978e-05
-3.81709e-05
4.69412e-05
-6.21085e-05
5.25745e-05
-1.48312e-05
-1.19421e-05
3.90522e-05
-2.17783e-05
-2.17783e-05
4.37535e-05
-2.69926e-05
-4.09985e-05
5.11039e-05
-2.48096e-05
-6.99672e-05
5.78312e-05
-0.000132699
7.21035e-05
-2.48182e-05
-1.33542e-05
4.2912e-05
-4.09985e-05
-2.69926e-05
5.11039e-05
-5.96098e-05
-5.96098e-05
6.60226e-05
-5.96177e-05
-0.000130493
8.42379e-05
-6.16791e-05
0.000124778
-7.46816e-05
-7.08082e-05
-9.14051e-05
-3.81709e-05
-1.0978e-05
4.69412e-05
-6.99672e-05
-2.48096e-05
5.78312e-05
-0.000130493
-5.96177e-05
8.42379e-05
-3.61445e-05
-3.61445e-05
3.12104e-05
-5.47248e-05
-4.61047e-05
-7.47511e-05
-5.47248e-05
-4.61047e-05
-7.47511e-05
3.6906e-05
3.6906e-05
4.73183e-05
-2.5301e-05
-9.40666e-05
5.02376e-06
-6.21085e-05
5.25745e-05
-0.000132699
7.21035e-05
-6.16791e-05
0.000124778
-7.46816e-05
-7.08082e-05
-9.14051e-05
-9.40666e-05
-2.5301e-05
5.02376e-06
0.000123305
0.000123305
-0.000101496
-0.000101496
-5.15292e-05
-3.04906e-05
-3.63691e-05
-3.63691e-05
-5.6991e-06
-5.6991e-06
4.01167e-05
-7.31135e-06
-9.60922e-06
4.44271e-05
-7.60145e-06
-1.44395e-05
4.91763e-05
-5.7907e-06
-2.14399e-05
5.43465e-05
-2.97551e-05
6.04781e-05
-9.60922e-06
-7.31135e-06
4.44271e-05
-1.32745e-05
-1.32745e-05
5.10841e-05
-1.51376e-05
-2.15401e-05
6.00675e-05
-1.20077e-05
-3.56817e-05
6.89431e-05
-5.32144e-05
8.35473e-05
-1.44395e-05
-7.60145e-06
4.91763e-05
-2.15401e-05
-1.51376e-05
6.00675e-05
-2.68253e-05
-2.68253e-05
7.65931e-05
-2.33097e-05
-1.90509e-05
9.72615e-05
-2.69433e-05
-3.23348e-06
-2.99321e-06
-4.2447e-05
0.000134987
-5.67866e-05
3.54967e-06
8.96955e-06
-2.14399e-05
-5.7907e-06
5.43465e-05
-3.56817e-05
-1.20077e-05
6.89431e-05
-1.90509e-05
-2.33097e-05
9.72615e-05
-2.69433e-05
-3.23348e-06
-2.99321e-06
-2.61038e-05
-2.61038e-05
4.53163e-05
-6.01536e-05
2.96265e-05
-2.28789e-05
0.000101349
-1.9241e-05
-2.47752e-05
-2.95234e-05
-1.68508e-05
-2.97551e-05
6.04781e-05
-5.32144e-05
8.35473e-05
-4.2447e-05
0.000134987
-5.67866e-05
3.54967e-06
8.96955e-06
-6.01536e-05
2.96265e-05
-2.28789e-05
0.000101349
-1.9241e-05
-2.47752e-05
-2.95234e-05
-1.68508e-05
1.82254e-05
4.83268e-05
4.83268e-05
-5.36096e-05
-5.36096e-05
-7.65978e-06
-1.36964e-06
-1.36964e-06
4.05406e-05
-1.07843e-06
-2.04915e-06
4.42436e-05
-8.22996e-08
-1.63359e-07
4.67841e-05
1.11282e-06
1.27673e-06
4.94528e-05
1.19669e-05
5.05113e-05
-2.04915e-06
-1.07843e-06
4.42436e-05
-1.36146e-06
-1.36146e-06
4.97087e-05
9.81687e-07
4.58458e-06
5.29764e-05
4.62971e-06
9.27283e-06
5.72989e-05
4.33249e-05
5.68136e-05
-1.63359e-07
-8.22996e-08
4.67841e-05
4.58458e-06
9.81687e-07
5.29764e-05
1.49204e-05
1.49204e-05
5.59213e-05
2.26573e-05
4.15468e-05
5.72506e-05
3.93738e-05
4.39419e-05
5.27506e-05
2.76557e-05
3.72676e-05
1.27673e-06
1.11282e-06
4.94528e-05
9.27283e-06
4.62971e-06
5.72989e-05
4.15468e-05
2.26573e-05
5.72506e-05
2.42256e-05
2.42256e-05
2.52305e-05
-3.61065e-05
-4.46593e-05
-4.46593e-05
-5.90037e-05
5.2144e-05
1.51595e-05
2.96168e-05
5.2144e-05
1.51595e-05
2.96168e-05
-7.00556e-05
1.99993e-05
0.000103326
1.03301e-05
1.19669e-05
5.05113e-05
4.33249e-05
5.68136e-05
3.93738e-05
4.39419e-05
5.27506e-05
2.76557e-05
3.72676e-05
-7.00556e-05
0.000103326
1.99993e-05
1.03301e-05
8.27034e-06
-4.68959e-05
-4.68959e-05
5.42263e-05
5.42263e-05
-2.29312e-05
3.28656e-07
3.28656e-07
4.0234e-05
1.67398e-07
-4.25017e-07
4.45509e-05
-4.27671e-07
-1.39689e-06
4.80012e-05
-5.98524e-07
-4.63829e-06
5.20258e-05
-8.35188e-06
5.50127e-05
-4.25017e-07
1.67398e-07
4.45509e-05
-1.34734e-06
-1.34734e-06
5.15533e-05
-3.10711e-06
-4.03045e-06
5.73697e-05
-2.48323e-06
-1.37458e-05
6.57826e-05
-2.49955e-05
7.09702e-05
-1.39689e-06
-4.27671e-07
4.80012e-05
-4.03045e-06
-3.10711e-06
5.73697e-05
-8.93937e-06
-8.93937e-06
6.57392e-05
-1.02865e-05
-3.23818e-05
7.72337e-05
-5.69483e-06
8.50625e-05
-8.13031e-06
-2.52411e-05
-3.73317e-05
-4.63829e-06
-5.98524e-07
5.20258e-05
-1.37458e-05
-2.48323e-06
6.57826e-05
-3.23818e-05
-1.02865e-05
7.72337e-05
-3.55809e-06
-3.55809e-06
2.04054e-05