/*--------------------------------*- C++ -*----------------------------------*\
| =========                 |                                                 |
| \\      /  F ield         | OpenFOAM: The Open Source CFD Toolbox           |
|  \\    /   O peration     | Version:  5.x                                   |
|   \\  /    A nd           | Web:      www.OpenFOAM.org                      |
|    \\/     M anipulation  |                                                 |
\*---------------------------------------------------------------------------*/
FoamFile
{
    version     2.0;
    format      ascii;
    class       volScalarField;
    location    "0.12";
    object      Ksl;
}
// * * * * * * * * * * * * * * * * * * * * * * * * * * * * * * * * * * * * * //

dimensions      [1 -3 -1 0 0 0 0];

internalField   nonuniform List<scalar> 
320
(
3.73961e-05
0.000478999
0.000254511
1.29829e-05
0.000738976
0.00949529
0.00521761
0.000334976
0.0118868
0.186454
0.0993582
0.00597924
0.182449
1.93672
0.975726
0.0973899
1.40708
3.07933
1.48442
0.697984
0.0722643
1.14297
0.572184
0.0361751
0.00184661
0.037882
0.0177435
0.000889181
3.97175e-05
0.000806413
0.000369962
2.12103e-05
8.12234e-07
1.38117e-05
6.75541e-06
4.91217e-07
0
0
0
0
0
0
0
0
0
0
0
0
0
0
0
0
0
0
0
0
0
0
0
0
0
0
0
0
0
0
0
0
0
0
0
0
0
0
0
0
0
0
0
0
0.000478999
0.00163354
0.00199944
0.000777499
0.00949529
0.056214
0.0526899
0.0107233
0.186454
3.01601
1.80358
0.180406
1.93672
3.27342
1.54161
1.08474
3.07933
3.19577
1.50951
1.45874
1.14297
4.45301
1.73383
0.530234
0.037882
0.172669
0.222901
0.0147712
0.000806413
0.0022971
0.00258878
0.000311034
1.38117e-05
3.76726e-05
4.06799e-05
6.25258e-06
0
8.16447e-07
6.20622e-07
0
0
0
0
0
0
0
0
0
0
0
0
0
0
0
0
0
0
0
0
0
0
0
0
0
0
0
0
0
0
0
0
0
0
0
0
0
0
0
0
0
0.000254511
0.00199944
0.00267891
0.000117232
0.00521761
0.0526899
0.0534943
0.00365807
0.0993582
1.80358
1.01394
0.0769113
0.975726
1.54161
1.02331
0.672559
1.48442
1.50951
1.00868
0.984329
0.572184
1.73383
1.09628
0.375412
0.0177435
0.222901
0.321879
0.0108336
0.000369962
0.00258878
0.00291754
0.000224788
6.75541e-06
4.06799e-05
4.51796e-05
4.25259e-06
0
6.20622e-07
4.13698e-07
0
0
0
0
0
0
0
0
0
0
0
0
0
0
0
0
0
0
0
0
0
0
0
0
0
0
0
0
0
0
0
0
0
0
0
0
0
0
0
0
0
1.29829e-05
0.000777499
0.000117232
0
0.000334976
0.0107233
0.00365807
0.000183029
0.00597924
0.180406
0.0769113
0.00404495
0.0973899
1.08474
0.672559
0.0679908
0.697984
1.45874
0.984329
0.477855
0.0361751
0.530234
0.375412
0.0248652
0.000889181
0.0147712
0.0108336
0.000604991
2.12103e-05
0.000311034
0.000224788
1.446e-05
4.91217e-07
6.25258e-06
4.25259e-06
0
0
0
0
0
0
0
0
0
0
0
0
0
0
0
0
0
0
0
0
0
0
0
0
0
0
0
0
0
0
0
0
0
0
0
0
0
0
0
0
0
0
0
0
0
)
;

boundaryField
{
    inlet
    {
        type            zeroGradient;
    }
    outlet
    {
        type            zeroGradient;
    }
    walls
    {
        type            zeroGradient;
    }
}


// ************************************************************************* //
