/*--------------------------------*- C++ -*----------------------------------*\
| =========                 |                                                 |
| \\      /  F ield         | OpenFOAM: The Open Source CFD Toolbox           |
|  \\    /   O peration     | Version:  5.x                                   |
|   \\  /    A nd           | Web:      www.OpenFOAM.org                      |
|    \\/     M anipulation  |                                                 |
\*---------------------------------------------------------------------------*/
FoamFile
{
    version     2.0;
    format      ascii;
    class       volScalarField;
    location    "0.12";
    object      p;
}
// * * * * * * * * * * * * * * * * * * * * * * * * * * * * * * * * * * * * * //

dimensions      [0 2 -2 0 0 0 0];

internalField   nonuniform List<scalar> 
320
(
-9.03833e-08
8.65173e-08
-5.93091e-08
-1.20629e-07
-4.64301e-07
1.46672e-07
-3.33676e-07
-5.43039e-07
-1.14981e-06
-9.18069e-08
-9.10068e-07
-1.23444e-06
-2.22399e-06
1.82771e-06
-8.69285e-07
-2.50144e-06
-6.91504e-06
-5.76702e-06
-6.62726e-06
-6.97506e-06
-1.28811e-05
-1.58465e-05
-1.41134e-05
-1.2746e-05
-1.58537e-05
-1.82641e-05
-1.66338e-05
-1.56623e-05
-1.72439e-05
-1.81169e-05
-1.74633e-05
-1.71558e-05
-1.79555e-05
-1.85148e-05
-1.80268e-05
-1.79564e-05
-1.85061e-05
-1.8941e-05
-1.86127e-05
-1.85427e-05
-1.88246e-05
-1.91175e-05
-1.89423e-05
-1.88649e-05
-1.89242e-05
-1.90787e-05
-1.89686e-05
-1.89572e-05
-1.90482e-05
-1.91296e-05
-1.90828e-05
-1.90707e-05
-1.90279e-05
-1.90664e-05
-1.90369e-05
-1.904e-05
-1.91082e-05
-1.91302e-05
-1.91174e-05
-1.91163e-05
-1.90601e-05
-1.90689e-05
-1.90614e-05
-1.90635e-05
-1.91154e-05
-1.91212e-05
-1.91179e-05
-1.91178e-05
-1.90768e-05
-1.90791e-05
-1.90767e-05
-1.90777e-05
-1.91071e-05
-1.91087e-05
-1.91083e-05
-1.91079e-05
-1.90896e-05
-1.90919e-05
-1.9091e-05
-1.909e-05
8.65173e-08
4.4307e-07
1.62461e-07
4.3555e-08
1.46672e-07
1.59938e-06
5.38445e-07
-9.00218e-10
-9.18069e-08
3.41361e-06
7.6403e-07
-2.21535e-07
1.82771e-06
2.00836e-05
8.969e-06
8.10026e-07
-5.76702e-06
-2.55638e-06
-5.23485e-06
-5.90248e-06
-1.58465e-05
-3.66453e-05
-2.39894e-05
-1.51899e-05
-1.82641e-05
-2.46491e-05
-2.02401e-05
-1.77146e-05
-1.81169e-05
-1.97176e-05
-1.83917e-05
-1.79657e-05
-1.85148e-05
-1.92913e-05
-1.84995e-05
-1.84555e-05
-1.8941e-05
-1.93392e-05
-1.88651e-05
-1.89379e-05
-1.91175e-05
-1.93306e-05
-1.90746e-05
-1.91329e-05
-1.90787e-05
-1.92469e-05
-1.90871e-05
-1.91144e-05
-1.91296e-05
-1.92018e-05
-1.91375e-05
-1.91484e-05
-1.90664e-05
-1.91123e-05
-1.90686e-05
-1.908e-05
-1.91302e-05
-1.915e-05
-1.91343e-05
-1.91379e-05
-1.90689e-05
-1.90798e-05
-1.90689e-05
-1.90718e-05
-1.91212e-05
-1.91261e-05
-1.91226e-05
-1.91242e-05
-1.90791e-05
-1.90818e-05
-1.9079e-05
-1.90794e-05
-1.91087e-05
-1.91103e-05
-1.91097e-05
-1.91099e-05
-1.90919e-05
-1.90944e-05
-1.90934e-05
-1.90921e-05
-5.93091e-08
1.62461e-07
1.4445e-08
-8.43008e-08
-3.33676e-07
5.38445e-07
8.24006e-08
-3.84989e-07
-9.10068e-07
7.6403e-07
-6.43777e-07
-1.00453e-06
-8.69285e-07
8.969e-06
4.87895e-06
-1.22528e-06
-6.62726e-06
-5.23485e-06
-6.2588e-06
-6.76931e-06
-1.41134e-05
-2.39894e-05
-1.99714e-05
-1.41193e-05
-1.66338e-05
-2.02401e-05
-1.83224e-05
-1.6479e-05
-1.74633e-05
-1.83917e-05
-1.76879e-05
-1.73763e-05
-1.80268e-05
-1.84995e-05
-1.80693e-05
-1.79929e-05
-1.86127e-05
-1.88651e-05
-1.86196e-05
-1.86192e-05
-1.89423e-05
-1.90746e-05
-1.89583e-05
-1.89709e-05
-1.89686e-05
-1.90871e-05
-1.89792e-05
-1.89919e-05
-1.90828e-05
-1.91375e-05
-1.91017e-05
-1.90983e-05
-1.90369e-05
-1.90686e-05
-1.90372e-05
-1.9046e-05
-1.91174e-05
-1.91343e-05
-1.91254e-05
-1.91238e-05
-1.90614e-05
-1.90689e-05
-1.90599e-05
-1.90641e-05
-1.91179e-05
-1.91226e-05
-1.91209e-05
-1.91202e-05
-1.90767e-05
-1.9079e-05
-1.90762e-05
-1.90778e-05
-1.91083e-05
-1.91097e-05
-1.91092e-05
-1.91087e-05
-1.9091e-05
-1.90934e-05
-1.90928e-05
-1.90914e-05
-1.20629e-07
4.3555e-08
-8.43008e-08
-1.40616e-07
-5.43039e-07
-9.00218e-10
-3.84989e-07
-6.01682e-07
-1.23444e-06
-2.21535e-07
-1.00453e-06
-1.34436e-06
-2.50144e-06
8.10026e-07
-1.22528e-06
-2.75012e-06
-6.97506e-06
-5.90248e-06
-6.76931e-06
-7.05788e-06
-1.2746e-05
-1.51899e-05
-1.41193e-05
-1.25667e-05
-1.56623e-05
-1.77146e-05
-1.6479e-05
-1.5618e-05
-1.71558e-05
-1.79657e-05
-1.73763e-05
-1.71061e-05
-1.79564e-05
-1.84555e-05
-1.79929e-05
-1.79518e-05
-1.85427e-05
-1.89379e-05
-1.86192e-05
-1.85561e-05
-1.88649e-05
-1.91329e-05
-1.89709e-05
-1.88899e-05
-1.89572e-05
-1.91144e-05
-1.89919e-05
-1.89762e-05
-1.90707e-05
-1.91484e-05
-1.90983e-05
-1.90842e-05
-1.904e-05
-1.908e-05
-1.9046e-05
-1.9048e-05
-1.91163e-05
-1.91379e-05
-1.91238e-05
-1.91219e-05
-1.90635e-05
-1.90718e-05
-1.90641e-05
-1.90656e-05
-1.91178e-05
-1.91242e-05
-1.91202e-05
-1.91202e-05
-1.90777e-05
-1.90794e-05
-1.90778e-05
-1.90781e-05
-1.91079e-05
-1.91099e-05
-1.91087e-05
-1.91085e-05
-1.909e-05
-1.90921e-05
-1.90914e-05
-1.90903e-05
)
;

boundaryField
{
    inlet
    {
        type            zeroGradient;
    }
    outlet
    {
        type            totalPressure;
        rho             rho;
        psi             none;
        gamma           1;
        p0              uniform 0;
        value           nonuniform List<scalar> 
16
(
-2.12482e-12
0
-1.85915e-12
-4.21757e-12
0
0
0
-1.76411e-13
-1.85915e-12
0
-1.60066e-12
-3.56947e-12
-4.21757e-12
-1.76411e-13
-3.56947e-12
-6.82995e-12
)
;
    }
    walls
    {
        type            zeroGradient;
    }
}


// ************************************************************************* //
