/*--------------------------------*- C++ -*----------------------------------*\
| =========                 |                                                 |
| \\      /  F ield         | OpenFOAM: The Open Source CFD Toolbox           |
|  \\    /   O peration     | Version:  5.x                                   |
|   \\  /    A nd           | Web:      www.OpenFOAM.org                      |
|    \\/     M anipulation  |                                                 |
\*---------------------------------------------------------------------------*/
FoamFile
{
    version     2.0;
    format      ascii;
    class       surfaceScalarField;
    location    "0.12";
    object      phi;
}
// * * * * * * * * * * * * * * * * * * * * * * * * * * * * * * * * * * * * * //

dimensions      [0 3 -1 0 0 0 0];

internalField   nonuniform List<scalar> 
784
(
-3.55597e-12
1.77429e-11
-3.55597e-12
3.96635e-12
-1.07505e-11
-7.17843e-12
4.3797e-12
1.26503e-11
-5.20658e-12
2.45121e-11
-3.50375e-12
-1.27172e-11
4.31773e-11
-1.27172e-11
1.28862e-11
-6.95768e-12
-2.93963e-11
1.47614e-11
2.9849e-11
-1.90738e-11
5.04966e-11
-1.12231e-11
-3.30697e-11
1.09317e-10
-3.30697e-11
2.81637e-11
2.21549e-11
-9.03459e-11
3.68134e-11
7.77407e-11
-5.65415e-11
1.17235e-10
-2.99253e-11
-7.87824e-11
2.66881e-10
-7.87824e-11
5.66154e-11
2.07561e-10
-3.20804e-10
7.6815e-11
2.49626e-10
-1.92085e-10
2.61537e-10
-6.74868e-11
-1.02157e-10
4.71195e-10
-1.02157e-10
6.72534e-11
4.46634e-10
-4.08484e-10
1.04584e-10
4.63074e-10
-2.50779e-10
4.57085e-10
-9.09646e-11
-3.78115e-11
5.46818e-10
-3.78115e-11
2.69735e-11
4.80919e-10
-9.90697e-11
5.32847e-11
5.11907e-10
-7.5144e-11
5.48314e-10
-3.7944e-11
3.92842e-13
5.46032e-10
3.92842e-13
-2.93678e-12
4.01278e-10
8.29705e-11
3.48707e-12
4.82563e-10
2.29204e-11
5.54903e-10
-3.10214e-12
3.14684e-11
4.83095e-10
3.14684e-11
-2.58923e-11
3.24315e-10
1.34324e-10
-2.95991e-11
4.22814e-10
6.34553e-11
4.98727e-10
2.65766e-11
4.27673e-11
3.97561e-10
4.27673e-11
-6.01808e-11
2.50621e-10
1.76642e-10
-5.22977e-11
3.63103e-10
5.18282e-11
4.14718e-10
3.17119e-11
7.76726e-11
2.42216e-10
7.76726e-11
-5.99284e-11
1.29628e-10
2.58593e-10
-9.0105e-11
2.20093e-10
1.73186e-10
2.55217e-10
6.93962e-11
6.91972e-11
1.03821e-10
6.91972e-11
-2.80324e-11
2.79998e-11
1.98858e-10
-7.57812e-11
7.67693e-11
1.91073e-10
1.10987e-10
6.84482e-11
2.53813e-11
5.30588e-11
2.53813e-11
-1.74896e-11
7.22626e-12
6.36445e-11
-2.92667e-11
3.26631e-11
5.58833e-11
5.7275e-11
2.44456e-11
1.67795e-11
1.94997e-11
1.67795e-11
-7.72862e-12
-3.25063e-13
3.20594e-11
-1.87889e-11
1.17203e-11
3.2003e-11
2.19108e-11
1.65753e-11
4.71032e-12
1.00791e-11
4.71032e-12
-4.13791e-12
-1.62563e-12
1.01488e-11
-5.88313e-12
4.67987e-12
8.78565e-12
1.15128e-11
4.51486e-12
3.42763e-12
3.22382e-12
3.42763e-12
-1.98637e-12
-8.80744e-13
4.66912e-12
-4.12067e-12
1.90696e-12
4.90721e-12
3.96365e-12
3.42847e-12
7.27318e-13
1.76918e-12
7.27318e-13
-1.00006e-12
-7.55173e-13
1.60182e-12
-1.06569e-12
6.20924e-13
1.35167e-12
2.26659e-12
6.31377e-13
6.57795e-13
4.53595e-13
6.57795e-13
-4.70459e-13
-3.07716e-13
6.80816e-13
-9.18589e-13
3.22335e-13
7.46738e-13
6.54475e-13
6.93545e-13
1.09266e-13
2.35077e-13
1.09266e-13
-2.58816e-13
-1.98489e-13
2.58887e-13
-1.91311e-13
4.84156e-14
2.06441e-13
3.92528e-13
7.06577e-14
1.31407e-13
-2.77184e-14
1.31407e-13
-1.15625e-13
-7.75286e-14
1.26102e-13
-2.35817e-13
3.68558e-14
1.31774e-13
1.47263e-14
1.41999e-13
-1.38512e-14
-1.38512e-14
-8.15347e-14
-9.82919e-15
-3.03586e-14
-1.43098e-14
-1.56264e-14
-7.17843e-12
-1.07505e-11
3.96635e-12
6.35101e-12
-7.84061e-11
6.35101e-12
7.31341e-12
-3.01183e-11
4.16998e-12
3.2649e-13
3.72708e-12
-2.93963e-11
-6.95768e-12
1.28862e-11
2.45654e-11
-1.86329e-10
2.45654e-11
3.11082e-11
-7.06359e-11
1.49009e-11
9.63119e-12
1.05804e-11
-9.03459e-11
2.21549e-11
2.81637e-11
6.54069e-11
-4.97835e-10
6.54069e-11
8.77602e-11
-1.8613e-10
3.65997e-11
4.3466e-11
2.40001e-11
-3.20804e-10
2.07561e-10
5.66154e-11
1.85882e-10
-1.51121e-09
1.85882e-10
2.90742e-10
-5.66747e-10
8.36718e-11
2.23014e-10
4.37066e-11
-4.08484e-10
4.46634e-10
6.72534e-11
2.33341e-10
-2.79486e-09
2.33341e-10
4.12329e-10
-1.09367e-09
9.71531e-11
4.91019e-10
5.33595e-11
-9.90697e-11
4.80919e-10
2.69735e-11
6.80234e-11
-3.12904e-09
6.80234e-11
1.6831e-10
-1.30366e-09
3.4565e-11
5.95454e-10
2.59307e-11
8.29705e-11
4.01278e-10
-2.93678e-12
-2.99591e-11
-2.90318e-09
-2.99591e-11
-4.6724e-11
-1.25751e-09
-6.47092e-12
5.47979e-10
-2.35153e-12
1.34324e-10
3.24315e-10
-2.58923e-11
-7.93495e-11
-2.47584e-09
-7.93495e-11
-1.18459e-10
-1.11649e-09
-3.8449e-11
4.79403e-10
-2.33063e-11
1.76642e-10
2.50621e-10
-6.01808e-11
-1.71828e-10
-1.7789e-09
-1.71828e-10
-2.01575e-10
-9.15262e-10
-1.19653e-10
3.64847e-10
-5.53074e-11
2.58593e-10
1.29628e-10
-5.99284e-11
-1.72976e-10
-9.1576e-10
-1.72976e-10
-2.98438e-10
-5.28853e-10
-8.77614e-11
1.84159e-10
-4.83536e-11
1.98858e-10
2.79998e-11
-2.80324e-11
-7.76426e-11
-3.62758e-10
-7.76426e-11
-2.16525e-10
-1.93812e-10
-5.08602e-12
5.35745e-11
-1.74921e-11
6.36445e-11
7.22626e-12
-1.74896e-11
-3.85017e-11
-1.58465e-10
-3.85017e-11
-7.29526e-11
-8.8392e-11
-1.50854e-11
1.94753e-11
-1.44078e-11
3.20594e-11
-3.25063e-13
-7.72862e-12
-1.58381e-11
-6.26705e-11
-1.58381e-11
-3.67166e-11
-3.16708e-11
-3.83977e-12
5.24839e-12
-5.91437e-12
1.01488e-11
-1.62563e-12
-4.13791e-12
-7.79266e-12
-2.67876e-11
-7.79266e-12
-1.22519e-11
-1.44291e-11
-3.99674e-12
1.27163e-12
-3.7603e-12
4.66912e-12
-8.80744e-13
-1.98637e-12
-3.0766e-12
-1.12961e-11
-3.0766e-12
-5.83544e-12
-5.32108e-12
-1.44198e-12
6.35545e-13
-1.77088e-12
1.60182e-12
-7.55173e-13
-1.00006e-12
-1.74956e-12
-4.59337e-12
-1.74956e-12
-2.26143e-12
-2.42561e-12
-1.03192e-12
-1.34885e-13
-8.59607e-13
6.80816e-13
-3.07716e-13
-4.70459e-13
-5.67058e-13
-2.09759e-12
-5.67058e-13
-9.39782e-13
-8.86104e-13
-4.20008e-13
1.30521e-13
-5.1162e-13
2.58887e-13
-1.98489e-13
-2.58816e-13
-4.28906e-13
-7.21963e-13
-4.28906e-13
-4.58128e-13
-3.69803e-13
-2.80603e-13
-6.34818e-14
-1.93446e-13
1.26102e-13
-7.75286e-14
-1.15625e-13
-1.27197e-13
-2.15336e-13
-1.27197e-13
-2.1756e-13
-1.35115e-14
-1.34131e-13
1.01749e-14
-1.49206e-13
-9.82919e-15
-8.15347e-14
-1.17491e-13
-1.17491e-13
-6.45353e-14
-8.07678e-14
-6.99826e-14
-5.20658e-12
1.26503e-11
4.3797e-12
4.16998e-12
-3.01183e-11
7.31341e-12
6.35884e-12
-3.31018e-12
6.35884e-12
2.02207e-11
4.18852e-12
-1.90738e-11
2.9849e-11
1.47614e-11
1.49009e-11
-7.06359e-11
3.11082e-11
2.14804e-11
-1.64692e-11
2.14804e-11
3.89723e-11
1.33092e-11
-5.65415e-11
7.77407e-11
3.68134e-11
3.65997e-11
-1.8613e-10
8.77602e-11
5.76234e-11
-5.85165e-11
5.76234e-11
8.76402e-11
3.29556e-11
-1.92085e-10
2.49626e-10
7.6815e-11
8.36718e-11
-5.66747e-10
2.90742e-10
1.8804e-10
-2.67253e-10
1.8804e-10
2.51637e-10
6.77501e-11
-2.50779e-10
4.63074e-10
1.04584e-10
9.71531e-11
-1.09367e-09
4.12329e-10
2.59346e-10
-5.91639e-10
2.59346e-10
4.71483e-10
9.28602e-11
-7.5144e-11
5.11907e-10
5.32847e-11
3.4565e-11
-1.30366e-09
1.6831e-10
1.01354e-10
-7.25217e-10
1.01354e-10
5.49736e-10
4.90318e-11
2.29204e-11
4.82563e-10
3.48707e-12
-6.47092e-12
-1.25751e-09
-4.6724e-11
-1.09423e-11
-7.16275e-10
-1.09423e-11
5.314e-10
5.04145e-12
6.34553e-11
4.22814e-10
-2.95991e-11
-3.8449e-11
-1.11649e-09
-1.18459e-10
-6.14525e-11
-6.70268e-10
-6.14525e-11
4.73136e-10
-2.64943e-11
5.18282e-11
3.63103e-10
-5.22977e-11
-1.19653e-10
-9.15262e-10
-2.01575e-10
-8.2432e-11
-7.4471e-10
-8.2432e-11
3.77545e-10
-4.21482e-11
1.73186e-10
2.20093e-10
-9.0105e-11
-8.77614e-11
-5.28853e-10
-2.98438e-10
-1.94834e-10
-5.30565e-10
-1.94834e-10
2.12917e-10
-7.85592e-11
1.91073e-10
7.67693e-11
-7.57812e-11
-5.08602e-12
-1.93812e-10
-2.16525e-10
-1.86447e-10
-1.67843e-10
-1.86447e-10
8.02852e-11
-7.13081e-11
5.58833e-11
3.26631e-11
-2.92667e-11
-1.50854e-11
-8.8392e-11
-7.29526e-11
-5.80736e-11
-8.18664e-11
-5.80736e-11
3.50952e-11
-2.72914e-11
3.2003e-11
1.17203e-11
-1.87889e-11
-3.83977e-12
-3.16708e-11
-3.67166e-11
-3.31547e-11
-2.32366e-11
-3.31547e-11
1.41978e-11
-1.81717e-11
8.78565e-12
4.67987e-12
-5.88313e-12
-3.99674e-12
-1.44291e-11
-1.22519e-11
-9.8764e-12
-1.14773e-11
-9.8764e-12
6.18363e-12
-5.62251e-12
4.90721e-12
1.90696e-12
-4.12067e-12
-1.44198e-12
-5.32108e-12
-5.83544e-12
-5.75077e-12
-2.85967e-12
-5.75077e-12
2.78217e-12
-4.12019e-12
1.35167e-12
6.20924e-13
-1.06569e-12
-1.03192e-12
-2.42561e-12
-2.26143e-12
-1.67666e-12
-1.57017e-12
-1.67666e-12
1.22547e-12
-9.79552e-13
7.46738e-13
3.22335e-13
-9.18589e-13
-4.20008e-13
-8.86104e-13
-9.39782e-13
-1.11148e-12
-1.8721e-13
-1.11148e-12
5.62561e-13
-9.60159e-13
2.06441e-13
4.84156e-14
-1.91311e-13
-2.80603e-13
-3.69803e-13
-4.58128e-13
-2.83947e-13
-1.80494e-13
-2.83947e-13
2.46652e-13
-1.61466e-13
1.31774e-13
3.68558e-14
-2.35817e-13
-1.34131e-13
-1.35115e-14
-2.1756e-13
-2.66496e-13
8.42523e-14
-2.66496e-13
7.90729e-14
-2.48112e-13
-1.43098e-14
-3.03586e-14
-8.07678e-14
-6.45353e-14
-3.86375e-14
-3.86375e-14
-2.95428e-14
-3.50375e-12
2.45121e-11
3.72708e-12
3.2649e-13
4.18852e-12
2.02207e-11
3.02922e-11
-1.12231e-11
5.04966e-11
1.05804e-11
9.63119e-12
1.33092e-11
3.89723e-11
5.69105e-11
-2.99253e-11
1.17235e-10
2.40001e-11
4.3466e-11
3.29556e-11
8.76402e-11
1.22822e-10
-6.74868e-11
2.61537e-10
4.37066e-11
2.23014e-10
6.77501e-11
2.51637e-10
2.58322e-10
-9.09646e-11
4.57085e-10
5.33595e-11
4.91019e-10
9.28602e-11
4.71483e-10
4.44042e-10
-3.7944e-11
5.48314e-10
2.59307e-11
5.95454e-10
4.90318e-11
5.49736e-10
5.42106e-10
-3.10214e-12
5.54903e-10
-2.35153e-12
5.47979e-10
5.04145e-12
5.314e-10
5.52189e-10
2.65766e-11
4.98727e-10
-2.33063e-11
4.79403e-10
-2.64943e-11
4.73136e-10
4.992e-10
3.17119e-11
4.14718e-10
-5.53074e-11
3.64847e-10
-4.21482e-11
3.77545e-10
4.14904e-10
6.93962e-11
2.55217e-10
-4.83536e-11
1.84159e-10
-7.85592e-11
2.12917e-10
2.57785e-10
6.84482e-11
1.10987e-10
-1.74921e-11
5.35745e-11
-7.13081e-11
8.02852e-11
1.15169e-10
2.44456e-11
5.7275e-11
-1.44078e-11
1.94753e-11
-2.72914e-11
3.50952e-11
6.05865e-11
1.65753e-11
2.19108e-11
-5.91437e-12
5.24839e-12
-1.81717e-11
1.41978e-11
2.4243e-11
4.51486e-12
1.15128e-11
-3.7603e-12
1.27163e-12
-5.62251e-12
6.18363e-12
1.2998e-11
3.42847e-12
3.96365e-12
-1.77088e-12
6.35545e-13
-4.12019e-12
2.78217e-12
4.75762e-12
6.31377e-13
2.26659e-12
-8.59607e-13
-1.34885e-13
-9.79552e-13
1.22547e-12
2.79854e-12
6.93545e-13
6.54475e-13
-5.1162e-13
1.30521e-13
-9.60159e-13
5.62561e-13
8.78231e-13
7.06577e-14
3.92528e-13
-1.93446e-13
-6.34818e-14
-1.61466e-13
2.46652e-13
5.55307e-13
1.41999e-13
1.47263e-14
-1.49206e-13
1.01749e-14
-2.48112e-13
7.90729e-14
5.90862e-14
-1.56264e-14
-6.99826e-14
-2.95428e-14
)
;

boundaryField
{
    inlet
    {
        type            calculated;
        value           uniform 0;
    }
    outlet
    {
        type            calculated;
        value           nonuniform List<scalar> 
16
(
-1.0631e-11
1.04067e-11
-7.85712e-12
-1.66287e-11
1.04067e-11
5.13472e-11
1.97793e-11
-2.43908e-13
-7.85712e-12
1.97793e-11
-1.06756e-12
-1.43233e-11
-1.66287e-11
-2.43908e-13
-1.43233e-11
-2.19151e-11
)
;
    }
    walls
    {
        type            calculated;
        value           nonuniform List<scalar> 
320
(
1.40169e-28
1.32879e-25
9.41921e-23
5.30894e-20
1.00235e-17
1.39297e-20
4.75428e-24
1.36583e-27
3.73095e-31
0
0
0
0
0
0
0
0
0
0
0
2.19343e-26
2.51063e-23
2.71609e-20
1.38112e-17
8.06213e-16
8.09948e-18
3.58589e-21
1.01959e-24
2.3326e-28
0
0
0
0
0
0
0
0
0
0
0
1.10744e-26
1.32763e-23
1.4106e-20
6.86967e-18
3.8878e-16
4.05497e-18
1.70159e-21
4.80014e-25
1.18571e-28
0
0
0
0
0
0
0
0
0
0
0
1.61162e-29
2.40016e-26
2.36045e-23
1.88391e-20
4.97299e-18
6.97418e-21
3.47909e-24
1.49716e-27
5.86421e-31
0
0
0
0
0
0
0
0
0
0
0
-1.61162e-29
-2.40016e-26
-2.36045e-23
-1.88391e-20
-4.97299e-18
-6.97418e-21
-3.47909e-24
-1.49716e-27
-5.86421e-31
0
0
0
0
0
0
0
0
0
0
0
-1.41311e-26
-1.40988e-23
-1.74168e-20
-7.68765e-18
-3.82129e-16
-3.73436e-18
-2.0977e-21
-7.91659e-25
-2.67393e-28
0
0
0
0
0
0
0
0
0
0
0
-2.0502e-27
-4.68751e-24
-7.33009e-21
-4.76713e-18
-2.57867e-16
-2.67859e-18
-1.57876e-21
-5.94582e-25
-1.91368e-28
0
0
0
0
0
0
0
0
0
0
0
0
-6.59231e-27
-1.06942e-23
-1.31948e-20
-3.40566e-18
-7.23815e-21
-4.79577e-24
-2.60106e-27
0
0
0
0
0
0
0
0
0
0
0
0
1.40169e-28
1.32879e-25
9.41921e-23
5.30894e-20
1.00235e-17
1.39297e-20
4.75428e-24
1.36583e-27
3.73095e-31
0
0
0
0
0
0
0
0
0
0
0
2.19343e-26
2.51063e-23
2.71609e-20
1.38112e-17
8.06213e-16
8.09948e-18
3.58589e-21
1.01959e-24
2.3326e-28
0
0
0
0
0
0
0
0
0
0
0
1.10744e-26
1.32763e-23
1.4106e-20
6.86967e-18
3.8878e-16
4.05497e-18
1.70159e-21
4.80014e-25
1.18571e-28
0
0
0
0
0
0
0
0
0
0
0
1.61162e-29
2.40016e-26
2.36045e-23
1.88391e-20
4.97299e-18
6.97418e-21
3.47909e-24
1.49716e-27
5.86421e-31
0
0
0
0
0
0
0
0
0
0
0
-1.61162e-29
-2.40016e-26
-2.36045e-23
-1.88391e-20
-4.97299e-18
-6.97418e-21
-3.47909e-24
-1.49716e-27
-5.86421e-31
0
0
0
0
0
0
0
0
0
0
0
-1.41311e-26
-1.40988e-23
-1.74168e-20
-7.68765e-18
-3.82129e-16
-3.73436e-18
-2.0977e-21
-7.91659e-25
-2.67393e-28
0
0
0
0
0
0
0
0
0
0
0
-2.0502e-27
-4.68751e-24
-7.33009e-21
-4.76713e-18
-2.57867e-16
-2.67859e-18
-1.57876e-21
-5.94582e-25
-1.91368e-28
0
0
0
0
0
0
0
0
0
0
0
0
-6.59231e-27
-1.06942e-23
-1.31948e-20
-3.40566e-18
-7.23815e-21
-4.79577e-24
-2.60106e-27
0
0
0
0
0
0
0
0
0
0
0
0
)
;
    }
}


// ************************************************************************* //
