/*--------------------------------*- C++ -*----------------------------------*\
| =========                 |                                                 |
| \\      /  F ield         | OpenFOAM: The Open Source CFD Toolbox           |
|  \\    /   O peration     | Version:  5.x                                   |
|   \\  /    A nd           | Web:      www.OpenFOAM.org                      |
|    \\/     M anipulation  |                                                 |
\*---------------------------------------------------------------------------*/
FoamFile
{
    version     2.0;
    format      ascii;
    class       volVectorField;
    location    "0.12";
    object      U;
}
// * * * * * * * * * * * * * * * * * * * * * * * * * * * * * * * * * * * * * //

dimensions      [0 1 -1 0 0 0 0];

internalField   nonuniform List<vector> 
320
(
(-7.21992e-07 1.92786e-06 -7.21992e-07)
(-9.5039e-08 -1.48486e-06 -1.38676e-06)
(1.05863e-06 1.43655e-06 -9.5866e-07)
(3.49884e-07 2.93535e-06 -7.09327e-07)
(-2.52365e-06 3.93198e-06 -2.52365e-06)
(-4.35249e-07 -2.21831e-06 -5.54046e-06)
(3.56007e-06 2.4917e-06 -3.59085e-06)
(1.11849e-06 5.13458e-06 -2.17209e-06)
(-6.5033e-06 1.09588e-05 -6.5033e-06)
(-1.61087e-06 -9.05803e-07 -1.68011e-05)
(8.59626e-06 7.44066e-06 -1.01886e-05)
(2.87912e-06 1.23251e-05 -5.72117e-06)
(-1.39438e-05 2.70242e-05 -1.39438e-05)
(-4.35944e-06 1.19171e-05 -5.35684e-05)
(1.7446e-05 2.22038e-05 -3.03629e-05)
(5.99902e-06 2.76201e-05 -1.17006e-05)
(-2.06972e-05 5.75084e-05 -2.06972e-05)
(-7.24322e-06 4.86715e-05 -8.23798e-05)
(2.52994e-05 5.49542e-05 -4.60541e-05)
(8.37301e-06 5.59492e-05 -1.77369e-05)
(-1.21879e-05 8.29857e-05 -1.21879e-05)
(-4.33654e-06 7.75624e-05 -3.82942e-05)
(1.59244e-05 7.9624e-05 -2.31588e-05)
(3.41222e-06 8.129e-05 -1.15833e-05)
(5.4207e-07 9.12715e-05 5.4207e-07)
(-1.69153e-06 7.76935e-05 1.4222e-05)
(1.68123e-06 8.55152e-05 4.10777e-06)
(-1.88469e-07 9.17812e-05 -3.20747e-07)
(7.3416e-06 8.50862e-05 7.3416e-06)
(6.37158e-07 5.9792e-05 2.94327e-05)
(-7.24221e-06 7.38508e-05 1.40773e-05)
(-2.57532e-06 8.68871e-05 6.218e-06)
(1.24164e-05 7.31739e-05 1.24164e-05)
(-7.55867e-07 4.66769e-05 4.57924e-05)
(-1.61739e-05 6.55502e-05 2.17471e-05)
(-1.65832e-06 7.60718e-05 1.06154e-05)
(1.65222e-05 5.49771e-05 1.65222e-05)
(5.93262e-06 3.30792e-05 5.64993e-05)
(-2.31604e-05 5.05254e-05 3.44825e-05)
(-6.60916e-06 5.76113e-05 1.44731e-05)
(1.17497e-05 2.35354e-05 1.17497e-05)
(8.59497e-06 9.05164e-06 3.63543e-05)
(-1.65798e-05 2.05241e-05 2.72579e-05)
(-7.48856e-06 2.51612e-05 1.06415e-05)
(4.9183e-06 1.08162e-05 4.9183e-06)
(2.39208e-06 5.82491e-07 1.28816e-05)
(-7.35754e-06 5.34101e-06 9.0904e-06)
(-2.38222e-06 1.15589e-05 4.49368e-06)
(2.94589e-06 5.43378e-06 2.94589e-06)
(1.96022e-06 1.43088e-06 6.09152e-06)
(-4.15552e-06 4.41216e-06 4.8011e-06)
(-1.92289e-06 5.99949e-06 2.72637e-06)
(9.48033e-07 1.34702e-06 9.48033e-07)
(3.83939e-07 -1.46456e-06 2.15082e-06)
(-1.54741e-06 -2.06304e-07 1.51665e-06)
(-4.42045e-07 1.59661e-06 8.78263e-07)
(6.3147e-07 1.4984e-06 6.3147e-07)
(3.57067e-07 7.83547e-07 9.35924e-07)
(-9.17966e-07 1.42747e-06 7.96368e-07)
(-4.35427e-07 1.67304e-06 6.068e-07)
(1.6839e-07 -2.51441e-07 1.6839e-07)
(3.09426e-08 -9.5058e-07 3.68732e-07)
(-3.10913e-07 -6.45167e-07 2.58867e-07)
(-5.67358e-08 -1.62846e-07 1.37363e-07)
(1.24702e-07 6.70071e-07 1.24702e-07)
(6.16186e-08 6.09424e-07 1.43963e-07)
(-1.93441e-07 7.54013e-07 1.32821e-07)
(-1.05082e-07 7.18694e-07 1.3266e-07)
(3.27427e-08 -4.57187e-07 3.27427e-08)
(-4.60304e-09 -6.51229e-07 6.82437e-08)
(-6.67721e-08 -5.92217e-07 4.79533e-08)
(-1.62353e-09 -4.27125e-07 2.03818e-08)
(2.51196e-08 4.9106e-07 2.51196e-08)
(1.1627e-08 5.49218e-07 2.68056e-08)
(-4.50962e-08 5.83578e-07 2.64174e-08)
(-2.69874e-08 4.98641e-07 2.8598e-08)
(-1.36939e-08 -4.87049e-07 -1.36939e-08)
(6.98026e-09 -5.564e-07 -1.31086e-08)
(-2.89763e-08 -5.58645e-07 -1.75507e-08)
(2.06366e-08 -4.809e-07 -1.48819e-08)
(-1.38676e-06 -1.48486e-06 -9.5039e-08)
(-2.72667e-07 -8.73025e-06 -2.72667e-07)
(1.76428e-06 -3.2377e-06 -2.87183e-07)
(6.05033e-07 6.79154e-08 -1.01397e-07)
(-5.54046e-06 -2.21831e-06 -4.35249e-07)
(-1.3e-06 -1.85504e-05 -1.3e-06)
(7.09217e-06 -7.18039e-06 -9.83693e-07)
(2.56114e-06 3.09033e-08 -4.53026e-07)
(-1.68011e-05 -9.05803e-07 -1.61087e-06)
(-4.78522e-06 -5.10725e-05 -4.78522e-06)
(2.0121e-05 -2.02738e-05 -3.7714e-06)
(7.36389e-06 2.83425e-06 -1.56515e-06)
(-5.35684e-05 1.19171e-05 -4.35944e-06)
(-1.98636e-05 -6.99565e-05 -1.98636e-05)
(6.07908e-05 -2.12402e-05 -1.52572e-05)
(2.46358e-05 1.57331e-05 -4.20928e-06)
(-8.23798e-05 4.86715e-05 -7.24322e-06)
(-3.10072e-05 -0.00042217 -3.10072e-05)
(9.38771e-05 -0.000172013 -2.53033e-05)
(3.64447e-05 5.26684e-05 -7.04563e-06)
(-3.82942e-05 7.75624e-05 -4.33654e-06)
(-1.31225e-05 -0.000510746 -1.31225e-05)
(4.81929e-05 -0.00021124 -1.21452e-05)
(1.44937e-05 8.91347e-05 -4.30053e-06)
(1.4222e-05 7.76935e-05 -1.69153e-06)
(3.43768e-06 -0.000454093 3.43768e-06)
(-8.48019e-06 -0.000189197 -5.39105e-08)
(-5.07771e-06 9.86773e-05 -1.79922e-06)
(2.94327e-05 5.9792e-05 6.37158e-07)
(7.60659e-06 -0.000433615 7.60659e-06)
(-2.88016e-05 -0.00019357 3.19594e-06)
(-1.04289e-05 8.53849e-05 4.3227e-07)
(4.57924e-05 4.66769e-05 -7.55867e-07)
(5.40088e-06 -0.000354915 5.40088e-06)
(-5.51914e-05 -0.000161372 -7.24749e-06)
(-1.20974e-05 7.21589e-05 -2.13984e-06)
(5.64993e-05 3.30792e-05 5.93262e-06)
(2.13286e-05 -0.0002186 2.13286e-05)
(-7.25999e-05 -0.000134265 1.78938e-05)
(-2.59917e-05 4.49886e-05 5.55431e-06)
(3.63543e-05 9.05164e-06 8.59497e-06)
(2.41527e-05 -7.74538e-05 2.41527e-05)
(-4.70177e-05 -3.66264e-05 3.15172e-05)
(-2.40353e-05 1.48934e-05 9.5558e-06)
(1.28816e-05 5.82491e-07 2.39208e-06)
(6.05138e-06 -4.02476e-05 6.05138e-06)
(-1.7243e-05 -2.50984e-05 7.68424e-06)
(-7.04697e-06 3.03677e-06 2.52048e-06)
(6.09152e-06 1.43088e-06 1.96022e-06)
(3.50485e-06 -1.11526e-05 3.50485e-06)
(-8.11229e-06 -4.13221e-06 4.89264e-06)
(-4.01927e-06 2.7726e-06 2.12287e-06)
(2.15082e-06 -1.46456e-06 3.83939e-07)
(8.03748e-07 -8.08229e-06 8.03748e-07)
(-3.03171e-06 -5.28954e-06 1.06837e-06)
(-1.10575e-06 -8.18682e-07 3.90025e-07)
(9.35924e-07 7.83547e-07 3.57067e-07)
(4.30851e-07 -1.12801e-06 4.30851e-07)
(-1.31314e-06 1.76742e-07 6.6028e-07)
(-6.33028e-07 1.08392e-06 3.81433e-07)
(3.68732e-07 -9.5058e-07 3.09426e-08)
(8.70704e-08 -2.08435e-06 8.70704e-08)
(-5.84976e-07 -1.58906e-06 1.29053e-07)
(-1.85142e-07 -7.81616e-07 3.4453e-08)
(1.43963e-07 6.09424e-07 6.16186e-08)
(5.03412e-08 3.69091e-07 5.03412e-08)
(-2.10153e-07 6.30708e-07 8.36737e-08)
(-1.086e-07 6.95797e-07 6.27439e-08)
(6.82437e-08 -6.51229e-07 -4.60304e-09)
(3.19967e-09 -8.9303e-07 3.19967e-09)
(-1.25405e-07 -8.16289e-07 8.39854e-09)
(-3.06622e-08 -6.1589e-07 -2.23348e-09)
(2.68056e-08 5.49218e-07 1.1627e-08)
(8.41241e-09 5.89032e-07 8.41241e-09)
(-4.46071e-08 6.447e-07 1.06709e-08)
(-2.58527e-08 5.71127e-07 1.02303e-08)
(-1.31086e-08 -5.564e-07 6.98026e-09)
(7.97574e-09 -6.29248e-07 7.97574e-09)
(-4.0787e-08 -6.36475e-07 1.0675e-08)
(2.27026e-08 -5.54812e-07 7.65046e-09)
(-9.5866e-07 1.43655e-06 1.05863e-06)
(-2.87183e-07 -3.2377e-06 1.76428e-06)
(1.30532e-06 1.91606e-07 1.30532e-06)
(5.77727e-07 2.51962e-06 1.00535e-06)
(-3.59085e-06 2.4917e-06 3.56007e-06)
(-9.83693e-07 -7.18039e-06 7.09217e-06)
(4.66526e-06 -1.03762e-06 4.66526e-06)
(1.76636e-06 3.88031e-06 3.02612e-06)
(-1.01886e-05 7.44066e-06 8.59626e-06)
(-3.7714e-06 -2.02738e-05 2.0121e-05)
(1.24451e-05 -6.79699e-06 1.24451e-05)
(5.32931e-06 9.16941e-06 7.42907e-06)
(-3.03629e-05 2.22038e-05 1.7446e-05)
(-1.52572e-05 -2.12402e-05 6.07908e-05)
(3.44426e-05 -2.8723e-06 3.44426e-05)
(1.73819e-05 2.32998e-05 1.4397e-05)
(-4.60541e-05 5.49542e-05 2.52994e-05)
(-2.53033e-05 -0.000172013 9.38771e-05)
(5.19296e-05 -9.36689e-05 5.19296e-05)
(2.6895e-05 5.54537e-05 2.11399e-05)
(-2.31588e-05 7.9624e-05 1.59244e-05)
(-1.21452e-05 -0.00021124 4.81929e-05)
(2.84935e-05 -0.000117774 2.84935e-05)
(1.14461e-05 8.26693e-05 1.43164e-05)
(4.10777e-06 8.55152e-05 1.68123e-06)
(-5.39105e-08 -0.000189197 -8.48019e-06)
(-6.65092e-07 -0.000101143 -6.65092e-07)
(-2.03617e-06 9.24964e-05 1.77107e-06)
(1.40773e-05 7.38508e-05 -7.24221e-06)
(3.19594e-06 -0.00019357 -2.88016e-05)
(-1.34062e-05 -0.000115892 -1.34062e-05)
(-5.87183e-06 8.20017e-05 -6.33919e-06)
(2.17471e-05 6.55502e-05 -1.61739e-05)
(-7.24749e-06 -0.000161372 -5.51914e-05)
(-2.78641e-05 -9.67534e-05 -2.78641e-05)
(4.47127e-07 7.37541e-05 -1.33755e-05)
(3.44825e-05 5.05254e-05 -2.31604e-05)
(1.78938e-05 -0.000134265 -7.25999e-05)
(-4.38927e-05 -0.000144366 -4.38927e-05)
(-1.92495e-05 4.71145e-05 -1.93258e-05)
(2.72579e-05 2.05241e-05 -1.65798e-05)
(3.15172e-05 -3.66264e-05 -4.70177e-05)
(-3.2825e-05 -2.61509e-05 -3.2825e-05)
(-2.69041e-05 2.15947e-05 -1.44156e-05)
(9.0904e-06 5.34101e-06 -7.35754e-06)
(7.68424e-06 -2.50984e-05 -1.7243e-05)
(-1.19405e-05 -2.55883e-05 -1.19405e-05)
(-7.23747e-06 5.46487e-06 -6.54314e-06)
(4.8011e-06 4.41216e-06 -4.15552e-06)
(4.89264e-06 -4.13221e-06 -8.11229e-06)
(-5.95331e-06 -1.8439e-06 -5.95331e-06)
(-4.57604e-06 5.04259e-06 -3.77226e-06)
(1.51665e-06 -2.06304e-07 -1.54741e-06)
(1.06837e-06 -5.28954e-06 -3.03171e-06)
(-2.18766e-06 -4.88085e-06 -2.18766e-06)
(-1.13763e-06 5.70946e-09 -1.43412e-06)
(7.96368e-07 1.42747e-06 -9.17966e-07)
(6.6028e-07 1.76742e-07 -1.31314e-06)
(-1.06791e-06 7.31243e-07 -1.06791e-06)
(-7.50513e-07 1.65112e-06 -8.76481e-07)
(2.58867e-07 -6.45167e-07 -3.10913e-07)
(1.29053e-07 -1.58906e-06 -5.84976e-07)
(-4.15844e-07 -1.42038e-06 -4.15844e-07)
(-1.62389e-07 -5.50595e-07 -2.7347e-07)
(1.32821e-07 7.54013e-07 -1.93441e-07)
(8.36737e-08 6.30708e-07 -2.10153e-07)
(-2.04374e-07 7.6561e-07 -2.04374e-07)
(-1.42306e-07 8.145e-07 -2.05307e-07)
(4.79533e-08 -5.92217e-07 -6.67721e-08)
(8.39854e-09 -8.16289e-07 -1.25405e-07)
(-8.53815e-08 -7.78737e-07 -8.53815e-08)
(-1.56861e-08 -5.56598e-07 -5.2231e-08)
(2.64174e-08 5.83578e-07 -4.50962e-08)
(1.06709e-08 6.447e-07 -4.46071e-08)
(-4.96609e-08 6.82724e-07 -4.96609e-08)
(-3.23756e-08 5.92159e-07 -5.18259e-08)
(-1.75507e-08 -5.58645e-07 -2.89763e-08)
(1.0675e-08 -6.36475e-07 -4.0787e-08)
(-3.31063e-08 -6.37197e-07 -3.31063e-08)
(2.30517e-08 -5.4869e-07 -2.69319e-08)
(-7.09327e-07 2.93535e-06 3.49884e-07)
(-1.01397e-07 6.79154e-08 6.05033e-07)
(1.00535e-06 2.51962e-06 5.77727e-07)
(3.4192e-07 3.81302e-06 3.4192e-07)
(-2.17209e-06 5.13458e-06 1.11849e-06)
(-4.53026e-07 3.09033e-08 2.56114e-06)
(3.02612e-06 3.88031e-06 1.76636e-06)
(1.0559e-06 6.16509e-06 1.0559e-06)
(-5.72117e-06 1.23251e-05 2.87912e-06)
(-1.56515e-06 2.83425e-06 7.36389e-06)
(7.42907e-06 9.16941e-06 5.32931e-06)
(2.71972e-06 1.34036e-05 2.71972e-06)
(-1.17006e-05 2.76201e-05 5.99902e-06)
(-4.20928e-06 1.57331e-05 2.46358e-05)
(1.4397e-05 2.32998e-05 1.73819e-05)
(5.63242e-06 2.80695e-05 5.63242e-06)
(-1.77369e-05 5.59492e-05 8.37301e-06)
(-7.04563e-06 5.26684e-05 3.64447e-05)
(2.11399e-05 5.54537e-05 2.6895e-05)
(8.1804e-06 5.47707e-05 8.1804e-06)
(-1.15833e-05 8.129e-05 3.41222e-06)
(-4.30053e-06 8.91347e-05 1.44937e-05)
(1.43164e-05 8.26693e-05 1.14461e-05)
(3.97741e-06 7.93761e-05 3.97741e-06)
(-3.20747e-07 9.17812e-05 -1.88469e-07)
(-1.79922e-06 9.86773e-05 -5.07771e-06)
(1.77107e-06 9.24964e-05 -2.03617e-06)
(3.12852e-07 9.08497e-05 3.12852e-07)
(6.218e-06 8.68871e-05 -2.57532e-06)
(4.3227e-07 8.53849e-05 -1.04289e-05)
(-6.33919e-06 8.20017e-05 -5.87183e-06)
(-2.30878e-06 8.64849e-05 -2.30878e-06)
(1.06154e-05 7.60718e-05 -1.65832e-06)
(-2.13984e-06 7.21589e-05 -1.20974e-05)
(-1.33755e-05 7.37541e-05 4.47127e-07)
(-1.09365e-06 7.62982e-05 -1.09365e-06)
(1.44731e-05 5.76113e-05 -6.60916e-06)
(5.55431e-06 4.49886e-05 -2.59917e-05)
(-1.93258e-05 4.71145e-05 -1.92495e-05)
(-6.58934e-06 5.74881e-05 -6.58934e-06)
(1.06415e-05 2.51612e-05 -7.48856e-06)
(9.5558e-06 1.48934e-05 -2.40353e-05)
(-1.44156e-05 2.15947e-05 -2.69041e-05)
(-8.13186e-06 2.609e-05 -8.13186e-06)
(4.49368e-06 1.15589e-05 -2.38222e-06)
(2.52048e-06 3.03677e-06 -7.04697e-06)
(-6.54314e-06 5.46487e-06 -7.23747e-06)
(-2.54501e-06 1.20564e-05 -2.54501e-06)
(2.72637e-06 5.99949e-06 -1.92289e-06)
(2.12287e-06 2.7726e-06 -4.01927e-06)
(-3.77226e-06 5.04259e-06 -4.57604e-06)
(-2.08758e-06 6.52503e-06 -2.08758e-06)
(8.78263e-07 1.59661e-06 -4.42045e-07)
(3.90025e-07 -8.18682e-07 -1.10575e-06)
(-1.43412e-06 5.70946e-09 -1.13763e-06)
(-4.72556e-07 1.85498e-06 -4.72556e-07)
(6.068e-07 1.67304e-06 -4.35427e-07)
(3.81433e-07 1.08392e-06 -6.33028e-07)
(-8.76481e-07 1.65112e-06 -7.50513e-07)
(-4.72417e-07 1.85847e-06 -4.72417e-07)
(1.37363e-07 -1.62846e-07 -5.67358e-08)
(3.4453e-08 -7.81616e-07 -1.85142e-07)
(-2.7347e-07 -5.50595e-07 -1.62389e-07)
(-6.35793e-08 -6.76801e-08 -6.35793e-08)
(1.3266e-07 7.18694e-07 -1.05082e-07)
(6.27439e-08 6.95797e-07 -1.086e-07)
(-2.05307e-07 8.145e-07 -1.42306e-07)
(-1.12887e-07 7.71677e-07 -1.12887e-07)
(2.03818e-08 -4.27125e-07 -1.62353e-09)
(-2.23348e-09 -6.1589e-07 -3.06622e-08)
(-5.2231e-08 -5.56598e-07 -1.56861e-08)
(-3.48623e-09 -3.94039e-07 -3.48623e-09)
(2.8598e-08 4.98641e-07 -2.69874e-08)
(1.02303e-08 5.71127e-07 -2.58527e-08)
(-5.18259e-08 5.92159e-07 -3.23756e-08)
(-2.84974e-08 5.06506e-07 -2.84974e-08)
(-1.48819e-08 -4.809e-07 2.06366e-08)
(7.65046e-09 -5.54812e-07 2.27026e-08)
(-2.69319e-08 -5.4869e-07 2.30517e-08)
(1.92567e-08 -4.7167e-07 1.92567e-08)
)
;

boundaryField
{
    inlet
    {
        type            fixedValue;
        value           uniform (0 0 0);
    }
    outlet
    {
        type            zeroGradient;
    }
    walls
    {
        type            fixedValue;
        value           uniform (0 0 0);
    }
}


// ************************************************************************* //
