/*--------------------------------*- C++ -*----------------------------------*\
| =========                 |                                                 |
| \\      /  F ield         | OpenFOAM: The Open Source CFD Toolbox           |
|  \\    /   O peration     | Version:  5.x                                   |
|   \\  /    A nd           | Web:      www.OpenFOAM.org                      |
|    \\/     M anipulation  |                                                 |
\*---------------------------------------------------------------------------*/
FoamFile
{
    version     2.0;
    format      ascii;
    class       volVectorField;
    location    "0.12";
    object      Us;
}
// * * * * * * * * * * * * * * * * * * * * * * * * * * * * * * * * * * * * * //

dimensions      [0 1 -1 0 0 0 0];

internalField   nonuniform List<vector> 
320
(
(-6.06434e-15 -2.5142e-11 -6.06434e-15)
(-7.39703e-14 -3.06671e-10 -7.39703e-14)
(-7.02885e-14 -2.91407e-10 -7.02885e-14)
(-2.00839e-15 -8.32652e-12 -2.00839e-15)
(-2.91387e-13 -1.20805e-09 -2.91387e-13)
(-4.27792e-12 -1.77357e-08 -4.27792e-12)
(-4.11684e-12 -1.70679e-08 -4.11684e-12)
(-1.1611e-13 -4.81377e-10 -1.1611e-13)
(-1.28409e-11 -5.32367e-08 -1.28409e-11)
(-2.35689e-10 -9.77135e-07 -2.35689e-10)
(-2.29702e-10 -9.52313e-07 -2.29702e-10)
(-6.39726e-12 -2.65222e-08 -6.39726e-12)
(-4.71541e-10 -1.95495e-06 -4.71541e-10)
(-1.15401e-08 -4.78439e-05 -1.15401e-08)
(-1.13923e-08 -4.72309e-05 -1.13923e-08)
(-3.1347e-10 -1.29961e-06 -3.1347e-10)
(-1.15454e-08 -4.78657e-05 -1.15454e-08)
(-4.23738e-07 -0.00175676 -4.23738e-07)
(-4.23812e-07 -0.00175707 -4.23812e-07)
(-1.15464e-08 -4.78699e-05 -1.15464e-08)
(-3.12368e-10 -1.29504e-06 -3.12368e-10)
(-1.14666e-08 -4.75391e-05 -1.14666e-08)
(-1.14667e-08 -4.75394e-05 -1.14667e-08)
(-3.12413e-10 -1.29522e-06 -3.12413e-10)
(-4.1721e-12 -1.7297e-08 -4.1721e-12)
(-1.53152e-10 -6.3495e-07 -1.53152e-10)
(-1.55158e-10 -6.43265e-07 -1.55158e-10)
(-6.34043e-12 -2.62866e-08 -6.34043e-12)
(-5.57262e-14 -2.31034e-10 -5.57262e-14)
(-2.04564e-12 -8.48095e-09 -2.04564e-12)
(-2.09921e-12 -8.70304e-09 -2.09921e-12)
(-1.14384e-13 -4.7422e-10 -1.14384e-13)
(-7.4436e-16 -3.08602e-12 -7.4436e-16)
(-2.73245e-14 -1.13284e-10 -2.73245e-14)
(-2.83978e-14 -1.17733e-10 -2.83978e-14)
(-1.93455e-15 -8.02041e-12 -1.93455e-15)
(-9.93865e-18 -4.12043e-14 -9.93865e-18)
(-3.64902e-16 -1.51283e-12 -3.64902e-16)
(-3.84012e-16 -1.59207e-12 -3.84012e-16)
(-3.13999e-17 -1.3018e-13 -3.13999e-17)
(0 0 0)
(0 0 0)
(0 0 0)
(0 0 0)
(0 0 0)
(0 0 0)
(0 0 0)
(0 0 0)
(0 0 0)
(0 0 0)
(0 0 0)
(0 0 0)
(0 0 0)
(0 0 0)
(0 0 0)
(0 0 0)
(0 0 0)
(0 0 0)
(0 0 0)
(0 0 0)
(0 0 0)
(0 0 0)
(0 0 0)
(0 0 0)
(0 0 0)
(0 0 0)
(0 0 0)
(0 0 0)
(0 0 0)
(0 0 0)
(0 0 0)
(0 0 0)
(0 0 0)
(0 0 0)
(0 0 0)
(0 0 0)
(0 0 0)
(0 0 0)
(0 0 0)
(0 0 0)
(-7.39703e-14 -3.06671e-10 -7.39703e-14)
(-1.08348e-12 -4.49199e-09 -1.08348e-12)
(-1.04249e-12 -4.32204e-09 -1.04249e-12)
(-2.93592e-14 -1.21719e-10 -2.93592e-14)
(-4.27792e-12 -1.77357e-08 -4.27792e-12)
(-7.85449e-11 -3.25637e-07 -7.85449e-11)
(-7.65465e-11 -3.17352e-07 -7.65465e-11)
(-2.12722e-12 -8.81917e-09 -2.12722e-12)
(-2.35689e-10 -9.77135e-07 -2.35689e-10)
(-5.76952e-09 -2.39197e-05 -5.76952e-09)
(-5.69516e-09 -2.36114e-05 -5.69516e-09)
(-1.562e-10 -6.47586e-07 -1.562e-10)
(-1.15401e-08 -4.78439e-05 -1.15401e-08)
(-4.23656e-07 -0.00175642 -4.23656e-07)
(-4.2366e-07 -0.00175644 -4.2366e-07)
(-1.14677e-08 -4.75438e-05 -1.14677e-08)
(-4.23738e-07 -0.00175676 -4.23738e-07)
(-3.10928e-05 -0.128907 -3.10928e-05)
(-3.10928e-05 -0.128907 -3.10928e-05)
(-4.23891e-07 -0.0017574 -4.23891e-07)
(-1.14666e-08 -4.75391e-05 -1.14666e-08)
(-4.23807e-07 -0.00175705 -4.23807e-07)
(-4.23738e-07 -0.00175676 -4.23738e-07)
(-1.13954e-08 -4.72438e-05 -1.13954e-08)
(-1.53152e-10 -6.3495e-07 -1.53152e-10)
(-5.62453e-09 -2.33185e-05 -5.62453e-09)
(-5.69622e-09 -2.36158e-05 -5.69622e-09)
(-2.2977e-10 -9.52598e-07 -2.2977e-10)
(-2.04564e-12 -8.48095e-09 -2.04564e-12)
(-7.46455e-11 -3.0947e-07 -7.46455e-11)
(-7.65605e-11 -3.1741e-07 -7.65605e-11)
(-4.1181e-12 -1.70731e-08 -4.1181e-12)
(-2.73245e-14 -1.13284e-10 -2.73245e-14)
(-9.90657e-13 -4.10713e-09 -9.90657e-13)
(-1.02886e-12 -4.2655e-09 -1.02886e-12)
(-6.91916e-14 -2.86859e-10 -6.91916e-14)
(-3.64902e-16 -1.51283e-12 -3.64902e-16)
(-1.31452e-14 -5.44982e-11 -1.31452e-14)
(-1.38216e-14 -5.73026e-11 -1.38216e-14)
(-1.11576e-15 -4.62577e-12 -1.11576e-15)
(0 0 0)
(0 0 0)
(0 0 0)
(0 0 0)
(0 0 0)
(0 0 0)
(0 0 0)
(0 0 0)
(0 0 0)
(0 0 0)
(0 0 0)
(0 0 0)
(0 0 0)
(0 0 0)
(0 0 0)
(0 0 0)
(0 0 0)
(0 0 0)
(0 0 0)
(0 0 0)
(0 0 0)
(0 0 0)
(0 0 0)
(0 0 0)
(0 0 0)
(0 0 0)
(0 0 0)
(0 0 0)
(0 0 0)
(0 0 0)
(0 0 0)
(0 0 0)
(0 0 0)
(0 0 0)
(0 0 0)
(0 0 0)
(0 0 0)
(0 0 0)
(0 0 0)
(0 0 0)
(-7.02885e-14 -2.91407e-10 -7.02885e-14)
(-1.04249e-12 -4.32204e-09 -1.04249e-12)
(-1.00383e-12 -4.16175e-09 -1.00383e-12)
(-2.825e-14 -1.17121e-10 -2.825e-14)
(-4.11684e-12 -1.70679e-08 -4.11684e-12)
(-7.65465e-11 -3.17352e-07 -7.65465e-11)
(-7.46461e-11 -3.09473e-07 -7.46461e-11)
(-2.07323e-12 -8.59535e-09 -2.07323e-12)
(-2.29702e-10 -9.52313e-07 -2.29702e-10)
(-5.69516e-09 -2.36114e-05 -5.69516e-09)
(-5.6245e-09 -2.33184e-05 -5.6245e-09)
(-1.54199e-10 -6.39288e-07 -1.54199e-10)
(-1.13923e-08 -4.72309e-05 -1.13923e-08)
(-4.2366e-07 -0.00175644 -4.2366e-07)
(-4.23805e-07 -0.00175704 -4.23805e-07)
(-1.14688e-08 -4.7548e-05 -1.14688e-08)
(-4.23812e-07 -0.00175707 -4.23812e-07)
(-3.10928e-05 -0.128907 -3.10928e-05)
(-3.10928e-05 -0.128907 -3.10928e-05)
(-4.23893e-07 -0.0017574 -4.23893e-07)
(-1.14667e-08 -4.75394e-05 -1.14667e-08)
(-4.23738e-07 -0.00175676 -4.23738e-07)
(-4.23809e-07 -0.00175706 -4.23809e-07)
(-1.15444e-08 -4.78616e-05 -1.15444e-08)
(-1.55158e-10 -6.43265e-07 -1.55158e-10)
(-5.69622e-09 -2.36158e-05 -5.69622e-09)
(-5.77163e-09 -2.39284e-05 -5.77163e-09)
(-2.35778e-10 -9.77505e-07 -2.35778e-10)
(-2.09921e-12 -8.70304e-09 -2.09921e-12)
(-7.65605e-11 -3.1741e-07 -7.65605e-11)
(-7.85743e-11 -3.25759e-07 -7.85743e-11)
(-4.27957e-12 -1.77425e-08 -4.27957e-12)
(-2.83978e-14 -1.17733e-10 -2.83978e-14)
(-1.02886e-12 -4.2655e-09 -1.02886e-12)
(-1.06935e-12 -4.43338e-09 -1.06935e-12)
(-7.28082e-14 -3.01853e-10 -7.28082e-14)
(-3.84012e-16 -1.59207e-12 -3.84012e-16)
(-1.38216e-14 -5.73026e-11 -1.38216e-14)
(-1.45459e-14 -6.03055e-11 -1.45459e-14)
(-1.18864e-15 -4.92794e-12 -1.18864e-15)
(0 0 0)
(0 0 0)
(0 0 0)
(0 0 0)
(0 0 0)
(0 0 0)
(0 0 0)
(0 0 0)
(0 0 0)
(0 0 0)
(0 0 0)
(0 0 0)
(0 0 0)
(0 0 0)
(0 0 0)
(0 0 0)
(0 0 0)
(0 0 0)
(0 0 0)
(0 0 0)
(0 0 0)
(0 0 0)
(0 0 0)
(0 0 0)
(0 0 0)
(0 0 0)
(0 0 0)
(0 0 0)
(0 0 0)
(0 0 0)
(0 0 0)
(0 0 0)
(0 0 0)
(0 0 0)
(0 0 0)
(0 0 0)
(0 0 0)
(0 0 0)
(0 0 0)
(0 0 0)
(-2.00839e-15 -8.32652e-12 -2.00839e-15)
(-2.93592e-14 -1.21719e-10 -2.93592e-14)
(-2.825e-14 -1.17121e-10 -2.825e-14)
(-8.05974e-16 -3.34146e-12 -8.05974e-16)
(-1.1611e-13 -4.81377e-10 -1.1611e-13)
(-2.12722e-12 -8.81917e-09 -2.12722e-12)
(-2.07323e-12 -8.59535e-09 -2.07323e-12)
(-5.83664e-14 -2.41979e-10 -5.83664e-14)
(-6.39726e-12 -2.65222e-08 -6.39726e-12)
(-1.562e-10 -6.47586e-07 -1.562e-10)
(-1.54199e-10 -6.39288e-07 -1.54199e-10)
(-4.28431e-12 -1.77622e-08 -4.28431e-12)
(-3.1347e-10 -1.29961e-06 -3.1347e-10)
(-1.14677e-08 -4.75438e-05 -1.14677e-08)
(-1.14688e-08 -4.7548e-05 -1.14688e-08)
(-3.14485e-10 -1.30382e-06 -3.14485e-10)
(-1.15464e-08 -4.78699e-05 -1.15464e-08)
(-4.23891e-07 -0.0017574 -4.23891e-07)
(-4.23893e-07 -0.0017574 -4.23893e-07)
(-1.15497e-08 -4.78836e-05 -1.15497e-08)
(-3.12413e-10 -1.29522e-06 -3.12413e-10)
(-1.13954e-08 -4.72438e-05 -1.13954e-08)
(-1.15444e-08 -4.78616e-05 -1.15444e-08)
(-4.71718e-10 -1.95568e-06 -4.71718e-10)
(-6.34043e-12 -2.62866e-08 -6.34043e-12)
(-2.2977e-10 -9.52598e-07 -2.2977e-10)
(-2.35778e-10 -9.77505e-07 -2.35778e-10)
(-1.28458e-11 -5.32569e-08 -1.28458e-11)
(-1.14384e-13 -4.7422e-10 -1.14384e-13)
(-4.1181e-12 -1.70731e-08 -4.1181e-12)
(-4.27957e-12 -1.77425e-08 -4.27957e-12)
(-2.91498e-13 -1.20851e-09 -2.91498e-13)
(-1.93455e-15 -8.02041e-12 -1.93455e-15)
(-6.91916e-14 -2.86859e-10 -6.91916e-14)
(-7.28082e-14 -3.01853e-10 -7.28082e-14)
(-5.95274e-15 -2.46793e-11 -5.95274e-15)
(-3.13999e-17 -1.3018e-13 -3.13999e-17)
(-1.11576e-15 -4.62577e-12 -1.11576e-15)
(-1.18864e-15 -4.92794e-12 -1.18864e-15)
(-1.13419e-16 -4.70222e-13 -1.13419e-16)
(0 0 0)
(0 0 0)
(0 0 0)
(0 0 0)
(0 0 0)
(0 0 0)
(0 0 0)
(0 0 0)
(0 0 0)
(0 0 0)
(0 0 0)
(0 0 0)
(0 0 0)
(0 0 0)
(0 0 0)
(0 0 0)
(0 0 0)
(0 0 0)
(0 0 0)
(0 0 0)
(0 0 0)
(0 0 0)
(0 0 0)
(0 0 0)
(0 0 0)
(0 0 0)
(0 0 0)
(0 0 0)
(0 0 0)
(0 0 0)
(0 0 0)
(0 0 0)
(0 0 0)
(0 0 0)
(0 0 0)
(0 0 0)
(0 0 0)
(0 0 0)
(0 0 0)
(0 0 0)
)
;

boundaryField
{
    inlet
    {
        type            zeroGradient;
    }
    outlet
    {
        type            zeroGradient;
    }
    walls
    {
        type            zeroGradient;
    }
}


// ************************************************************************* //
