/*--------------------------------*- C++ -*----------------------------------*\
| =========                 |                                                 |
| \\      /  F ield         | OpenFOAM: The Open Source CFD Toolbox           |
|  \\    /   O peration     | Version:  5.x                                   |
|   \\  /    A nd           | Web:      www.OpenFOAM.org                      |
|    \\/     M anipulation  |                                                 |
\*---------------------------------------------------------------------------*/
FoamFile
{
    version     2.0;
    format      ascii;
    class       volScalarField;
    location    "0.05";
    object      Ksl;
}
// * * * * * * * * * * * * * * * * * * * * * * * * * * * * * * * * * * * * * //

dimensions      [1 -3 -1 0 0 0 0];

internalField   nonuniform List<scalar> 
320
(
0
0
0
0
0
0
0
0
0
0
0
0
0
0
0
0
2.81885e-05
0.00047278
0.00018601
1.26032e-05
0.000761851
0.00986099
0.00581573
0.000397827
0.0125579
0.220971
0.118461
0.00600016
0.177292
1.6063
0.938671
0.0950665
1.44032
3.04434
1.47539
0.708843
0.0902274
1.1314
0.589168
0.0448436
0.00537748
0.0567428
0.0331467
0.00270014
0.000387665
0.00615748
0.00415046
0.00018438
8.89818e-06
0.000114605
5.70244e-05
4.63468e-06
0
0
0
0
0
0
0
0
0
0
0
0
0
0
0
0
0
0
0
0
0
0
0
0
0
0
0
0
0
0
0
0
0
0
0
0
0
0
0
0
0
6.96742e-05
5.0325e-05
0
0.00047278
0.002859
0.00229341
0.000237376
0.00986099
0.0820723
0.0523662
0.00785399
0.220971
2.13407
2.13804
0.145433
1.6063
3.18346
1.52895
0.934731
3.04434
3.19014
1.50612
1.44291
1.1314
3.58135
1.66275
0.576964
0.0567428
1.27049
0.498951
0.0338818
0.00615748
0.0203327
0.0140587
0.00472325
0.000114605
0.0020489
0.000741762
5.80572e-05
0
2.12502e-05
1.37146e-05
0
0
0
0
0
0
0
0
0
0
0
0
0
0
0
0
0
0
0
0
0
0
0
0
0
0
0
0
0
0
0
0
0
0
0
0
0
0
5.0325e-05
4.1158e-05
0
0.00018601
0.00229341
0.00188302
0.000113744
0.00581573
0.0523662
0.0392609
0.00471672
0.118461
2.13804
1.495
0.0751467
0.938671
1.52895
1.03241
0.671703
1.47539
1.50612
1.00636
0.978982
0.589168
1.66275
1.18004
0.415113
0.0331467
0.498951
0.447138
0.0186824
0.00415046
0.0140587
0.00766781
0.00260892
5.70244e-05
0.000741762
0.000633857
3.44017e-05
0
1.37146e-05
8.42511e-06
0
0
0
0
0
0
0
0
0
0
0
0
0
0
0
0
0
0
0
0
0
0
0
0
0
0
0
0
0
0
0
0
0
0
0
0
0
0
0
0
0
1.26032e-05
0.000237376
0.000113744
0
0.000397827
0.00785399
0.00471672
0.000260926
0.00600016
0.145433
0.0751467
0.00386324
0.0950665
0.934731
0.671703
0.067672
0.708843
1.44291
0.978982
0.484643
0.0448436
0.576964
0.415113
0.0308206
0.00270014
0.0338818
0.0186824
0.0017619
0.00018438
0.00472325
0.00260892
0.000120067
4.63468e-06
5.80572e-05
3.44017e-05
0
0
0
0
0
0
0
0
0
0
0
0
0
0
0
0
0
0
0
0
0
0
0
0
0
0
0
0
0
)
;

boundaryField
{
    inlet
    {
        type            zeroGradient;
    }
    outlet
    {
        type            zeroGradient;
    }
    walls
    {
        type            zeroGradient;
    }
}


// ************************************************************************* //
