/*--------------------------------*- C++ -*----------------------------------*\
| =========                 |                                                 |
| \\      /  F ield         | OpenFOAM: The Open Source CFD Toolbox           |
|  \\    /   O peration     | Version:  5.x                                   |
|   \\  /    A nd           | Web:      www.OpenFOAM.org                      |
|    \\/     M anipulation  |                                                 |
\*---------------------------------------------------------------------------*/
FoamFile
{
    version     2.0;
    format      ascii;
    class       volScalarField;
    location    "0.05";
    object      p;
}
// * * * * * * * * * * * * * * * * * * * * * * * * * * * * * * * * * * * * * //

dimensions      [0 2 -2 0 0 0 0];

internalField   nonuniform List<scalar> 
320
(
5.21701e-08
5.05174e-08
5.14534e-08
4.29952e-08
-5.29163e-08
-2.86399e-08
-5.48304e-08
-6.29641e-08
3.35974e-08
7.36286e-08
3.60599e-08
7.31688e-09
-9.3889e-08
3.35223e-08
-7.78937e-08
-1.4649e-07
-1.29423e-07
8.3847e-08
-6.42202e-08
-1.91682e-07
-4.03694e-07
6.23975e-07
-2.41005e-07
-6.02145e-07
-1.53966e-06
-1.17912e-06
-1.34454e-06
-1.56424e-06
-1.97296e-06
2.48399e-06
-3.66096e-07
-2.40135e-06
-7.24491e-06
-6.99332e-06
-6.88821e-06
-7.19222e-06
-1.3539e-05
-1.77054e-05
-1.49541e-05
-1.31323e-05
-1.49798e-05
-1.60532e-05
-1.55916e-05
-1.48552e-05
-1.52176e-05
-1.58567e-05
-1.53996e-05
-1.5088e-05
-1.62394e-05
-1.65558e-05
-1.63785e-05
-1.61624e-05
-1.56166e-05
-1.57037e-05
-1.56232e-05
-1.55778e-05
-1.63493e-05
-1.64214e-05
-1.63852e-05
-1.63147e-05
-1.57949e-05
-1.58038e-05
-1.57873e-05
-1.57854e-05
-1.62365e-05
-1.62484e-05
-1.62419e-05
-1.62242e-05
-1.59328e-05
-1.59347e-05
-1.59312e-05
-1.59297e-05
-1.61199e-05
-1.61217e-05
-1.612e-05
-1.61165e-05
-1.60318e-05
-1.60327e-05
-1.60316e-05
-1.60302e-05
5.05174e-08
5.16803e-08
5.09155e-08
4.88397e-08
-2.86399e-08
-2.27461e-10
-3.14668e-08
-4.95009e-08
7.36286e-08
1.45435e-07
8.87146e-08
5.33504e-08
3.35223e-08
2.28844e-07
6.09357e-08
-4.34038e-08
8.3847e-08
7.04909e-07
2.95827e-07
4.68617e-08
6.23975e-07
2.3443e-06
9.50803e-07
6.82534e-08
-1.17912e-06
8.25595e-07
-4.97158e-07
-1.10872e-06
2.48399e-06
2.21229e-05
1.01864e-05
1.2618e-06
-6.99332e-06
-6.37769e-06
-6.6286e-06
-6.886e-06
-1.77054e-05
-3.74064e-05
-2.53742e-05
-1.64545e-05
-1.60532e-05
-1.88373e-05
-1.70689e-05
-1.59191e-05
-1.58567e-05
-1.7182e-05
-1.61815e-05
-1.56449e-05
-1.65558e-05
-1.70923e-05
-1.67282e-05
-1.64442e-05
-1.57037e-05
-1.59039e-05
-1.57385e-05
-1.56583e-05
-1.64214e-05
-1.64805e-05
-1.64319e-05
-1.63785e-05
-1.58038e-05
-1.58446e-05
-1.5809e-05
-1.57902e-05
-1.62484e-05
-1.62526e-05
-1.62488e-05
-1.6238e-05
-1.59347e-05
-1.59408e-05
-1.5933e-05
-1.59302e-05
-1.61217e-05
-1.61233e-05
-1.61216e-05
-1.61185e-05
-1.60327e-05
-1.60338e-05
-1.60323e-05
-1.60309e-05
5.14534e-08
5.09155e-08
4.87316e-08
3.98672e-08
-5.48304e-08
-3.14668e-08
-5.45071e-08
-6.23566e-08
3.60599e-08
8.87146e-08
5.28873e-08
7.48109e-09
-7.78937e-08
6.09357e-08
-5.94375e-08
-1.36637e-07
-6.42202e-08
2.95827e-07
6.87951e-08
-1.51135e-07
-2.41005e-07
9.50803e-07
2.03085e-07
-4.58654e-07
-1.34454e-06
-4.97158e-07
-7.86259e-07
-1.37007e-06
-3.66096e-07
1.01864e-05
5.26948e-06
-8.79445e-07
-6.88821e-06
-6.6286e-06
-5.98315e-06
-6.79964e-06
-1.49541e-05
-2.53742e-05
-2.03284e-05
-1.44079e-05
-1.55916e-05
-1.70689e-05
-1.70954e-05
-1.54781e-05
-1.53996e-05
-1.61815e-05
-1.57491e-05
-1.52857e-05
-1.63785e-05
-1.67282e-05
-1.67133e-05
-1.63042e-05
-1.56232e-05
-1.57385e-05
-1.56515e-05
-1.5595e-05
-1.63852e-05
-1.64319e-05
-1.64175e-05
-1.6335e-05
-1.57873e-05
-1.5809e-05
-1.57916e-05
-1.57784e-05
-1.62419e-05
-1.62488e-05
-1.62457e-05
-1.62332e-05
-1.59312e-05
-1.5933e-05
-1.59298e-05
-1.59272e-05
-1.612e-05
-1.61216e-05
-1.61204e-05
-1.61172e-05
-1.60316e-05
-1.60323e-05
-1.60314e-05
-1.60299e-05
4.29952e-08
4.88397e-08
3.98672e-08
3.27122e-08
-6.29641e-08
-4.95009e-08
-6.23566e-08
-7.09018e-08
7.31688e-09
5.33504e-08
7.48109e-09
-2.39741e-08
-1.4649e-07
-4.34038e-08
-1.36637e-07
-2.01349e-07
-1.91682e-07
4.68617e-08
-1.51135e-07
-2.84059e-07
-6.02145e-07
6.82534e-08
-4.58654e-07
-7.69232e-07
-1.56424e-06
-1.10872e-06
-1.37007e-06
-1.63468e-06
-2.40135e-06
1.2618e-06
-8.79445e-07
-2.72224e-06
-7.19222e-06
-6.886e-06
-6.79964e-06
-7.16369e-06
-1.31323e-05
-1.64545e-05
-1.44079e-05
-1.27874e-05
-1.48552e-05
-1.59191e-05
-1.54781e-05
-1.4703e-05
-1.5088e-05
-1.56449e-05
-1.52857e-05
-1.49947e-05
-1.61624e-05
-1.64442e-05
-1.63042e-05
-1.60831e-05
-1.55778e-05
-1.56583e-05
-1.5595e-05
-1.55488e-05
-1.63147e-05
-1.63785e-05
-1.6335e-05
-1.62723e-05
-1.57854e-05
-1.57902e-05
-1.57784e-05
-1.57779e-05
-1.62242e-05
-1.6238e-05
-1.62332e-05
-1.62132e-05
-1.59297e-05
-1.59302e-05
-1.59272e-05
-1.59262e-05
-1.61165e-05
-1.61185e-05
-1.61172e-05
-1.61134e-05
-1.60302e-05
-1.60309e-05
-1.60299e-05
-1.60285e-05
)
;

boundaryField
{
    inlet
    {
        type            zeroGradient;
    }
    outlet
    {
        type            totalPressure;
        rho             rho;
        psi             none;
        gamma           1;
        p0              uniform 0;
        value           nonuniform List<scalar> 
16
(
-1.37584e-15
0
-2.2668e-15
-7.20119e-15
0
0
0
-2.50718e-15
-2.2668e-15
0
-1.51471e-15
-8.17872e-15
-7.20119e-15
-2.50718e-15
-8.17872e-15
-1.64472e-14
)
;
    }
    walls
    {
        type            zeroGradient;
    }
}


// ************************************************************************* //
