/*--------------------------------*- C++ -*----------------------------------*\
| =========                 |                                                 |
| \\      /  F ield         | OpenFOAM: The Open Source CFD Toolbox           |
|  \\    /   O peration     | Version:  5.x                                   |
|   \\  /    A nd           | Web:      www.OpenFOAM.org                      |
|    \\/     M anipulation  |                                                 |
\*---------------------------------------------------------------------------*/
FoamFile
{
    version     2.0;
    format      ascii;
    class       surfaceScalarField;
    location    "0.05";
    object      phi;
}
// * * * * * * * * * * * * * * * * * * * * * * * * * * * * * * * * * * * * * //

dimensions      [0 3 -1 0 0 0 0];

internalField   nonuniform List<scalar> 
784
(
-3.07799e-14
1.17266e-13
-3.07799e-14
1.17877e-13
-5.27388e-13
1.53225e-14
2.95007e-13
-8.60287e-14
-2.0529e-14
8.4154e-13
-1.23139e-13
-2.79807e-13
6.76882e-13
-2.79807e-13
4.16042e-13
-6.87509e-13
-5.35723e-13
3.67162e-13
4.03397e-13
-4.40541e-13
1.35619e-12
-1.47483e-13
-9.71077e-13
2.61904e-12
-9.71077e-13
9.98053e-13
-1.56799e-12
-1.08864e-12
1.80344e-12
5.787e-13
-9.80686e-13
4.20369e-12
-1.04405e-12
-1.8835e-12
6.38604e-12
-1.8835e-12
2.11326e-12
-1.56815e-12
-3.99659e-12
2.70186e-12
3.21043e-12
-3.22033e-12
8.46143e-12
-1.55588e-12
-6.59201e-12
1.95701e-11
-6.59201e-12
4.2361e-12
-5.95984e-13
-1.18003e-11
8.47809e-12
8.57488e-12
-9.60645e-12
2.34444e-11
-6.50483e-12
-1.47777e-11
4.91255e-11
-1.47777e-11
1.13358e-11
7.28529e-12
-3.39948e-11
1.51855e-11
3.01651e-11
-2.544e-11
5.02444e-11
-1.16145e-11
-2.91499e-11
1.07425e-10
-2.91499e-11
9.98123e-12
4.79083e-11
-7.97541e-11
3.25321e-11
6.97715e-11
-6.21572e-11
1.12282e-10
-2.95051e-11
-8.57375e-11
2.789e-10
-8.57375e-11
4.40174e-11
3.13459e-10
-3.95306e-10
8.01411e-11
2.79653e-10
-2.46005e-10
2.6315e-10
-7.07273e-11
-6.74342e-11
4.13769e-10
-6.74342e-11
3.31414e-12
4.84499e-10
-2.41789e-10
6.86574e-11
4.65236e-10
-2.50926e-10
4.00895e-10
-6.90877e-11
7.19547e-11
2.69859e-10
7.19547e-11
-4.12328e-11
2.31756e-10
3.6593e-10
-6.72348e-11
2.77169e-10
2.14069e-10
2.75384e-10
5.82763e-11
8.84936e-11
9.28722e-11
8.84936e-11
-1.74855e-11
3.9776e-11
2.97959e-10
-9.14111e-11
6.1774e-11
2.89321e-10
9.68033e-11
8.71696e-11
1.72172e-11
5.84378e-11
1.72172e-11
-9.09599e-12
1.38825e-11
5.22067e-11
-1.91325e-11
2.74711e-11
4.43394e-11
6.22063e-11
1.54645e-11
2.14191e-11
1.55995e-11
2.14191e-11
-5.30646e-12
3.20295e-12
3.74051e-11
-2.344e-11
7.58957e-12
3.80151e-11
1.77959e-11
2.09704e-11
2.4266e-12
1.07463e-11
2.4266e-12
-1.80564e-12
-1.14127e-12
8.57647e-12
-3.24098e-12
1.55879e-12
7.46612e-12
1.24276e-11
2.12737e-12
4.17848e-12
2.38935e-12
4.17848e-12
-1.2044e-12
1.02635e-13
4.13896e-12
-5.15248e-12
1.05761e-12
4.44926e-12
3.00892e-12
4.26619e-12
4.05906e-13
1.57754e-12
4.05906e-13
-3.92748e-13
-5.23958e-13
1.42525e-12
-5.59327e-13
-1.66333e-14
1.24082e-12
2.21788e-12
2.31717e-13
6.24921e-13
3.27692e-13
6.24921e-13
-2.82526e-13
-1.17241e-13
5.00739e-13
-9.72736e-13
7.83834e-14
5.95204e-13
5.37689e-13
7.07464e-13
6.67969e-14
1.94104e-13
6.67969e-14
-1.10726e-13
-1.06511e-13
1.66807e-13
-1.59219e-13
-9.93689e-15
1.36821e-13
3.32859e-13
4.5611e-14
8.49596e-14
2.41937e-14
8.49596e-14
-6.89878e-14
-3.31725e-14
8.06175e-14
-1.70068e-13
1.40637e-15
8.9737e-14
6.94953e-14
9.32914e-14
1.20992e-14
1.20993e-14
-4.02607e-14
1.91875e-14
-5.84762e-14
1.96177e-14
1.10142e-14
1.53225e-14
-5.27388e-13
1.17877e-13
7.3552e-14
-1.31726e-12
7.3552e-14
1.44893e-13
-7.06198e-13
9.81454e-14
8.24937e-15
1.96744e-13
-5.35723e-13
-6.87509e-13
4.16042e-13
6.21459e-13
-3.63161e-12
6.21459e-13
8.16886e-13
-1.7427e-12
4.00542e-13
4.13558e-13
2.64101e-13
-1.08864e-12
-1.56799e-12
9.98053e-13
1.21448e-12
-8.23784e-12
1.21448e-12
1.77448e-12
-4.18807e-12
9.04686e-13
1.60693e-13
9.83297e-13
-3.99659e-12
-1.56815e-12
2.11326e-12
3.3694e-12
-2.29698e-11
3.3694e-12
5.04954e-12
-1.10873e-11
1.99875e-12
2.03703e-12
1.61731e-12
-1.18003e-11
-5.95984e-13
4.2361e-12
7.69124e-12
-6.19528e-11
7.69124e-12
1.2992e-11
-2.97997e-11
3.80521e-12
5.03634e-12
3.48786e-12
-3.39948e-11
7.28529e-12
1.13358e-11
2.26432e-11
-1.75229e-10
2.26432e-11
3.561e-11
-7.87105e-11
1.05039e-11
2.14902e-11
7.5416e-12
-7.97541e-11
4.79083e-11
9.98123e-12
3.39263e-11
-4.0259e-10
3.39263e-11
7.60785e-11
-1.88455e-10
5.43512e-12
6.0579e-11
7.48466e-12
-3.95306e-10
3.13459e-10
4.40174e-11
1.928e-10
-1.5788e-09
1.928e-10
3.53853e-10
-6.67174e-10
7.16603e-11
3.12792e-10
3.09127e-11
-2.41789e-10
4.84499e-10
3.31414e-12
4.26167e-11
-2.14761e-09
4.26167e-11
2.44511e-10
-1.06706e-09
-5.29322e-11
4.92891e-10
-4.67523e-12
3.6593e-10
2.31756e-10
-4.12328e-11
-1.85196e-10
-1.04536e-09
-1.85196e-10
-3.22942e-10
-6.40129e-10
-7.51186e-11
2.57374e-10
-2.91495e-11
2.97959e-10
3.9776e-11
-1.74855e-11
-7.71207e-11
-2.95199e-10
-7.71207e-11
-2.96815e-10
-1.66482e-10
3.53688e-11
5.38964e-11
-6.16781e-12
5.22067e-11
1.38825e-11
-9.09599e-12
-2.38399e-11
-1.43106e-10
-2.38399e-11
-5.23316e-11
-8.9532e-11
-4.11926e-12
2.41727e-11
-7.14336e-12
3.74051e-11
3.20295e-12
-5.30646e-12
-1.18249e-11
-4.46459e-11
-1.18249e-11
-4.05932e-11
-2.5477e-11
2.72829e-12
6.91151e-12
-2.36159e-12
8.57647e-12
-1.14127e-12
-1.80564e-12
-4.29086e-12
-1.89112e-11
-4.29086e-12
-9.07619e-12
-1.24163e-11
-8.09206e-13
1.51816e-12
-1.55546e-12
4.13896e-12
1.02635e-13
-1.2044e-12
-1.64423e-12
-7.34483e-12
-1.64423e-12
-5.30053e-12
-4.13398e-12
-1.76761e-13
1.23337e-12
-7.49548e-13
1.42525e-12
-5.23958e-13
-3.92748e-13
-9.18539e-13
-2.65725e-12
-9.18539e-13
-1.68269e-12
-1.90905e-12
-2.19951e-13
1.13501e-13
-3.31096e-13
5.00739e-13
-1.17241e-13
-2.82526e-13
-2.46834e-13
-1.16209e-12
-2.46834e-13
-8.41273e-13
-5.89648e-13
-1.29749e-13
1.68324e-13
-1.88633e-13
1.66807e-13
-1.06511e-13
-1.10726e-13
-1.93971e-13
-4.40527e-13
-1.93971e-13
-2.63387e-13
-3.08185e-13
-7.52271e-14
4.26845e-14
-9.21436e-14
8.06174e-14
-3.31725e-14
-6.89878e-14
-7.10295e-14
-1.37233e-13
-7.10295e-14
-1.6723e-13
-7.17247e-14
-5.05305e-14
2.33475e-14
-5.46106e-14
1.91875e-14
-4.02607e-14
-4.9432e-14
-4.9432e-14
-6.91524e-14
-3.23944e-14
-3.47958e-14
-2.0529e-14
-8.60287e-14
2.95007e-13
9.81454e-14
-7.06198e-13
1.44893e-13
2.46007e-13
-3.52146e-13
2.46007e-13
5.34778e-13
3.39824e-13
-4.40541e-13
4.03397e-13
3.67162e-13
4.00542e-13
-1.7427e-12
8.16886e-13
5.49721e-13
-6.50497e-13
5.49721e-13
1.05338e-12
2.95221e-13
-9.80686e-13
5.787e-13
1.80344e-12
9.04686e-13
-4.18807e-12
1.77448e-12
1.82166e-12
-2.48445e-12
1.82166e-12
2.12539e-12
1.73296e-12
-3.22033e-12
3.21043e-12
2.70186e-12
1.99875e-12
-1.10873e-11
5.04954e-12
3.89907e-12
-6.2851e-12
3.89907e-12
5.24183e-12
2.39994e-12
-9.60645e-12
8.57488e-12
8.47809e-12
3.80521e-12
-2.97997e-11
1.2992e-11
1.09409e-11
-2.05565e-11
1.09409e-11
1.17343e-11
7.93629e-12
-2.544e-11
3.01651e-11
1.51855e-11
1.05039e-11
-7.87105e-11
3.561e-11
2.6024e-11
-5.15967e-11
2.6024e-11
3.22415e-11
1.30584e-11
-6.21572e-11
6.97715e-11
3.25321e-11
5.43512e-12
-1.88455e-10
7.60785e-11
6.33541e-11
-1.67435e-10
6.33541e-11
7.13571e-11
3.17231e-11
-2.46005e-10
2.79653e-10
8.01411e-11
7.16603e-11
-6.67174e-10
3.53853e-10
2.30621e-10
-4.85356e-10
2.30621e-10
2.65525e-10
6.73658e-11
-2.50926e-10
4.65236e-10
6.86574e-11
-5.29322e-11
-1.06706e-09
2.44511e-10
2.496e-10
-1.09042e-09
2.496e-10
4.41988e-10
6.84628e-11
2.14069e-10
2.77169e-10
-6.72348e-11
-7.51186e-11
-6.40129e-10
-3.22942e-10
-1.99311e-10
-8.42036e-10
-1.99311e-10
2.69198e-10
-5.56713e-11
2.89321e-10
6.1774e-11
-9.14111e-11
3.53688e-11
-1.66482e-10
-2.96815e-10
-2.88128e-10
-1.95043e-10
-2.88128e-10
6.30577e-11
-8.81552e-11
4.43394e-11
2.74711e-11
-1.91325e-11
-4.11926e-12
-8.9532e-11
-5.23316e-11
-4.4775e-11
-1.13731e-10
-4.4775e-11
2.84929e-11
-1.73535e-11
3.80151e-11
7.58957e-12
-2.344e-11
2.72829e-12
-2.5477e-11
-4.05932e-11
-3.95454e-11
-2.91838e-11
-3.95454e-11
9.21095e-12
-2.26251e-11
7.46612e-12
1.55879e-12
-3.24098e-12
-8.09206e-13
-1.24163e-11
-9.07619e-12
-8.06952e-12
-1.46632e-11
-8.06952e-12
2.5476e-12
-2.96162e-12
4.44926e-12
1.05761e-12
-5.15248e-12
-1.76761e-13
-4.13398e-12
-5.30053e-12
-5.21209e-12
-4.59256e-12
-5.21209e-12
1.68529e-12
-5.09932e-12
1.24082e-12
-1.66333e-14
-5.59327e-13
-2.19951e-13
-1.90905e-12
-1.68269e-12
-1.50672e-12
-2.01901e-12
-1.50672e-12
2.8217e-13
-4.34697e-13
5.95204e-13
7.83834e-14
-9.72736e-13
-1.29749e-13
-5.89648e-13
-8.41273e-13
-8.32932e-13
-6.12647e-13
-8.32932e-13
2.71172e-13
-1.01057e-12
1.36821e-13
-9.93689e-15
-1.59219e-13
-7.52271e-14
-3.08185e-13
-2.63387e-13
-2.37212e-13
-2.88686e-13
-2.37212e-13
8.8074e-14
-1.46267e-13
8.9737e-14
1.40637e-15
-1.70068e-13
-5.05305e-14
-7.17247e-14
-1.6723e-13
-1.62391e-13
-6.49756e-14
-1.62391e-13
4.25657e-14
-1.71503e-13
1.96177e-14
-5.84762e-14
-3.23944e-14
-6.91524e-14
-6.48866e-14
-6.48866e-14
-5.71219e-14
-1.23139e-13
8.4154e-13
1.96744e-13
8.24937e-15
3.39824e-13
5.34778e-13
1.42329e-12
-1.47483e-13
1.35619e-12
2.64101e-13
4.13558e-13
2.95221e-13
1.05338e-12
2.01374e-12
-1.04405e-12
4.20369e-12
9.83297e-13
1.60693e-13
1.73296e-12
2.12539e-12
5.47964e-12
-1.55588e-12
8.46143e-12
1.61731e-12
2.03703e-12
2.39994e-12
5.24183e-12
1.02795e-11
-6.50483e-12
2.34444e-11
3.48786e-12
5.03634e-12
7.93629e-12
1.17343e-11
2.61521e-11
-1.16145e-11
5.02444e-11
7.5416e-12
2.14902e-11
1.30584e-11
3.22415e-11
5.22689e-11
-2.95051e-11
1.12282e-10
7.48466e-12
6.0579e-11
3.17231e-11
7.13571e-11
1.15715e-10
-7.07273e-11
2.6315e-10
3.09127e-11
3.12792e-10
6.73658e-11
2.65525e-10
2.50447e-10
-6.90877e-11
4.00895e-10
-4.67523e-12
4.92891e-10
6.84628e-11
4.41988e-10
3.87372e-10
5.82763e-11
2.75384e-10
-2.91495e-11
2.57374e-10
-5.56713e-11
2.69198e-10
2.7603e-10
8.71696e-11
9.68033e-11
-6.16781e-12
5.38964e-11
-8.81552e-11
6.30577e-11
9.97193e-11
1.54645e-11
6.22063e-11
-7.14336e-12
2.41727e-11
-1.73535e-11
2.84929e-11
6.50123e-11
2.09704e-11
1.77959e-11
-2.36159e-12
6.91151e-12
-2.26251e-11
9.21095e-12
1.97622e-11
2.12737e-12
1.24276e-11
-1.55546e-12
1.51816e-12
-2.96162e-12
2.5476e-12
1.3839e-11
4.26619e-12
3.00892e-12
-7.49548e-13
1.23337e-12
-5.09932e-12
1.68529e-12
3.64035e-12
2.31717e-13
2.21788e-12
-3.31096e-13
1.13501e-13
-4.34697e-13
2.8217e-13
2.77095e-12
7.07464e-13
5.37689e-13
-1.88633e-13
1.68324e-13
-1.01057e-12
2.71172e-13
7.49794e-13
4.5611e-14
3.32859e-13
-9.21436e-14
4.26845e-14
-1.46267e-13
8.8074e-14
4.57255e-13
9.32914e-14
6.94953e-14
-5.46106e-14
2.33475e-14
-1.71503e-13
4.25657e-14
1.14244e-13
1.10142e-14
-3.47958e-14
-5.71219e-14
)
;

boundaryField
{
    inlet
    {
        type            calculated;
        value           uniform 0;
    }
    outlet
    {
        type            calculated;
        value           nonuniform List<scalar> 
16
(
-5.57066e-14
3.6341e-13
-7.05705e-14
-4.23393e-13
3.6341e-13
1.2008e-12
5.16185e-13
-1.83237e-13
-7.05705e-14
5.16185e-13
5.6424e-14
-4.31846e-13
-4.23393e-13
-1.83237e-13
-4.31846e-13
-7.43643e-13
)
;
    }
    walls
    {
        type            calculated;
        value           nonuniform List<scalar> 
320
(
0
0
0
0
8.30275e-29
1.09763e-25
7.96615e-23
4.12738e-20
8.20678e-18
2.09907e-20
2.82437e-23
2.74525e-26
8.4953e-30
0
0
0
0
0
0
0
0
0
0
0
1.70933e-26
2.09133e-23
2.57777e-20
9.1634e-18
6.37182e-16
6.45207e-18
6.58343e-21
9.56621e-24
2.38406e-27
0
0
0
0
0
0
0
0
0
0
0
6.72422e-27
1.23333e-23
1.38191e-20
5.35514e-18
3.0885e-16
3.36007e-18
3.829e-21
6.50268e-24
1.21149e-27
0
0
0
0
0
0
0
0
0
0
0
3.65973e-29
5.68315e-26
3.7927e-23
2.21303e-20
4.03921e-18
1.04335e-20
1.27217e-23
1.57091e-26
6.69379e-30
0
0
0
0
0
0
0
0
0
0
0
-3.65973e-29
-5.68315e-26
-3.7927e-23
-2.21303e-20
-4.03921e-18
-1.04335e-20
-1.27217e-23
-1.57091e-26
-6.69379e-30
0
0
0
0
0
0
0
0
0
0
0
-8.49834e-27
-1.65864e-23
-1.69606e-20
-5.33267e-18
-3.02052e-16
-3.29046e-18
-3.89836e-21
-9.7431e-24
-2.01277e-27
0
0
0
0
0
0
0
0
0
0
0
-4.01382e-27
-9.90223e-24
-8.76573e-21
-3.83221e-18
-2.04945e-16
-2.36747e-18
-2.17741e-21
-5.52086e-24
-1.23889e-27
0
0
0
0
0
0
0
0
0
0
0
0
-3.35261e-26
-2.44489e-23
-1.57552e-20
-2.7617e-18
-7.17068e-21
-1.11645e-23
-1.72705e-26
0
0
0
0
0
0
0
0
0
0
0
0
8.30275e-29
1.09763e-25
7.96615e-23
4.12738e-20
8.20678e-18
2.09907e-20
2.82437e-23
2.74525e-26
8.4953e-30
0
0
0
0
0
0
0
0
0
0
0
1.70933e-26
2.09133e-23
2.57777e-20
9.1634e-18
6.37182e-16
6.45207e-18
6.58343e-21
9.56621e-24
2.38406e-27
0
0
0
0
0
0
0
0
0
0
0
6.72422e-27
1.23333e-23
1.38191e-20
5.35514e-18
3.0885e-16
3.36007e-18
3.829e-21
6.50268e-24
1.21149e-27
0
0
0
0
0
0
0
0
0
0
0
3.65973e-29
5.68315e-26
3.7927e-23
2.21303e-20
4.03921e-18
1.04335e-20
1.27217e-23
1.57091e-26
6.69379e-30
0
0
0
0
0
0
0
0
0
0
0
-3.65973e-29
-5.68315e-26
-3.7927e-23
-2.21303e-20
-4.03921e-18
-1.04335e-20
-1.27217e-23
-1.57091e-26
-6.69379e-30
0
0
0
0
0
0
0
0
0
0
0
-8.49834e-27
-1.65864e-23
-1.69606e-20
-5.33267e-18
-3.02052e-16
-3.29046e-18
-3.89836e-21
-9.7431e-24
-2.01277e-27
0
0
0
0
0
0
0
0
0
0
0
-4.01382e-27
-9.90223e-24
-8.76573e-21
-3.83221e-18
-2.04945e-16
-2.36747e-18
-2.17741e-21
-5.52086e-24
-1.23889e-27
0
0
0
0
0
0
0
0
0
0
0
0
-3.35261e-26
-2.44489e-23
-1.57552e-20
-2.7617e-18
-7.17068e-21
-1.11645e-23
-1.72705e-26
0
0
0
0
0
0
0
0
)
;
    }
}


// ************************************************************************* //
