/*--------------------------------*- C++ -*----------------------------------*\
| =========                 |                                                 |
| \\      /  F ield         | OpenFOAM: The Open Source CFD Toolbox           |
|  \\    /   O peration     | Version:  5.x                                   |
|   \\  /    A nd           | Web:      www.OpenFOAM.org                      |
|    \\/     M anipulation  |                                                 |
\*---------------------------------------------------------------------------*/
FoamFile
{
    version     2.0;
    format      ascii;
    class       volVectorField;
    location    "0.05";
    object      U;
}
// * * * * * * * * * * * * * * * * * * * * * * * * * * * * * * * * * * * * * //

dimensions      [0 1 -1 0 0 0 0];

internalField   nonuniform List<vector> 
320
(
(-1.04658e-08 5.03344e-08 -1.04658e-08)
(9.7614e-10 -1.44337e-08 -4.99969e-10)
(4.35049e-08 5.27316e-08 -7.49963e-09)
(3.43908e-08 1.17408e-07 -2.25837e-08)
(-5.34669e-08 -9.20663e-08 -5.34669e-08)
(-1.38495e-09 -2.61325e-07 -9.95664e-08)
(9.49294e-08 -1.60699e-07 -7.31986e-08)
(3.15914e-08 1.51864e-08 -2.82277e-08)
(-1.68263e-07 4.36347e-07 -1.68263e-07)
(-6.17763e-08 1.54915e-07 -1.93777e-07)
(3.16614e-07 3.87654e-07 -1.59406e-07)
(2.01359e-07 5.98377e-07 -1.74492e-07)
(-3.33376e-07 1.76554e-07 -3.33376e-07)
(-7.09066e-08 -8.08679e-07 -6.97957e-07)
(5.65061e-07 -3.04143e-07 -4.97587e-07)
(2.46399e-07 4.49854e-07 -2.55184e-07)
(-1.10162e-06 2.23643e-06 -1.10162e-06)
(-5.33796e-07 1.9537e-07 -1.93489e-06)
(1.57948e-06 1.58389e-06 -1.40711e-06)
(9.21338e-07 2.75113e-06 -9.96243e-07)
(-2.36417e-06 4.00496e-06 -2.36417e-06)
(-8.31677e-07 1.74244e-07 -5.70822e-06)
(3.25111e-06 1.39847e-06 -3.7244e-06)
(1.43481e-06 4.32214e-06 -1.78695e-06)
(-4.73663e-06 1.14104e-05 -4.73663e-06)
(-3.22279e-06 2.1917e-07 -1.34048e-05)
(5.84386e-06 6.40379e-06 -8.77364e-06)
(3.7236e-06 1.2339e-05 -4.39341e-06)
(-1.35665e-05 2.79961e-05 -1.35665e-05)
(-6.37011e-06 2.24612e-05 -6.41063e-05)
(1.59665e-05 2.2018e-05 -3.59187e-05)
(7.56168e-06 2.73273e-05 -1.06464e-05)
(-9.96318e-06 5.72165e-05 -9.96318e-06)
(-9.83255e-06 6.4709e-05 -3.97787e-05)
(1.09277e-05 6.07368e-05 -3.09601e-05)
(9.16245e-06 5.44758e-05 -9.08439e-06)
(1.16756e-05 6.44009e-05 1.16756e-05)
(4.71553e-06 7.13708e-05 5.9475e-05)
(-1.36634e-05 7.31205e-05 3.21902e-05)
(-6.11904e-06 6.37355e-05 9.08429e-06)
(1.32966e-05 2.42164e-05 1.32966e-05)
(1.10953e-05 1.55193e-05 4.87739e-05)
(-1.54972e-05 2.18446e-05 3.63246e-05)
(-1.13025e-05 2.51157e-05 1.18428e-05)
(2.62342e-06 9.11233e-06 2.62342e-06)
(1.59674e-06 -1.49874e-06 8.70349e-06)
(-3.71838e-06 9.39298e-07 5.76239e-06)
(-1.96611e-06 9.70521e-06 2.22966e-06)
(3.23817e-06 6.52305e-06 3.23817e-06)
(2.58587e-06 4.44318e-06 6.00704e-06)
(-3.91389e-06 5.59848e-06 4.89067e-06)
(-2.91858e-06 7.02557e-06 2.88027e-06)
(3.71118e-07 1.64858e-07 3.71118e-07)
(2.22526e-07 -2.62191e-06 1.43104e-06)
(-6.61711e-07 -1.93957e-06 9.44418e-07)
(-3.2721e-07 4.71442e-07 2.99764e-07)
(6.28108e-07 1.94729e-06 6.28108e-07)
(4.97435e-07 1.68213e-06 6.68419e-07)
(-8.15839e-07 1.86933e-06 6.06101e-07)
(-6.46199e-07 2.09632e-06 5.9452e-07)
(6.69293e-08 -6.00186e-07 6.69293e-08)
(3.43516e-08 -1.17509e-06 2.39619e-07)
(-1.31088e-07 -1.05376e-06 1.53535e-07)
(-5.453e-08 -4.89482e-07 3.41651e-08)
(9.82124e-08 6.91156e-07 9.82124e-08)
(6.86918e-08 6.47336e-07 8.45741e-08)
(-1.50124e-07 6.88858e-07 8.90391e-08)
(-1.20931e-07 7.15973e-07 1.02257e-07)
(1.18197e-08 -3.42214e-07 1.18197e-08)
(4.17002e-09 -4.35805e-07 3.02947e-08)
(-3.32947e-08 -4.13557e-07 1.77159e-08)
(-1.49635e-08 -3.04052e-07 7.00445e-09)
(1.48824e-08 2.53073e-07 1.48824e-08)
(7.14941e-09 2.48059e-07 1.48019e-08)
(-2.69108e-08 2.56715e-07 1.4798e-08)
(-2.05658e-08 2.61564e-07 1.49024e-08)
(1.96704e-09 -1.73639e-07 1.96704e-09)
(3.71474e-10 -1.86488e-07 3.3364e-09)
(-1.15352e-08 -1.8397e-07 2.24828e-09)
(-4.83103e-09 -1.68367e-07 1.36409e-09)
(-4.99969e-10 -1.44337e-08 9.7614e-10)
(4.97891e-09 -1.17721e-07 4.97891e-09)
(2.09812e-08 -2.90895e-08 1.70091e-09)
(1.94068e-08 6.81492e-08 -4.58006e-09)
(-9.95664e-08 -2.61325e-07 -1.38495e-09)
(-1.91338e-08 -4.68912e-07 -1.91338e-08)
(1.68256e-07 -3.24917e-07 -2.55019e-08)
(7.72942e-08 -1.44133e-07 -7.99803e-10)
(-1.93777e-07 1.54915e-07 -6.17763e-08)
(-4.52503e-08 -4.55097e-07 -4.52503e-08)
(3.35944e-07 -4.06016e-08 -6.8462e-08)
(1.87923e-07 3.773e-07 -6.92339e-08)
(-6.97957e-07 -8.08679e-07 -7.09066e-08)
(-2.22203e-07 -2.6464e-06 -2.22203e-07)
(1.01724e-06 -1.62358e-06 -2.62935e-07)
(4.92133e-07 -4.02347e-07 -8.20604e-08)
(-1.93489e-06 1.9537e-07 -5.33796e-07)
(-7.9774e-07 -4.91971e-06 -7.9774e-07)
(2.53876e-06 -1.69247e-06 -9.5384e-07)
(1.33898e-06 1.24687e-06 -5.92803e-07)
(-5.70822e-06 1.74244e-07 -8.31677e-07)
(-2.12267e-06 -1.19761e-05 -2.12267e-06)
(7.24424e-06 -6.44033e-06 -2.32893e-06)
(3.3892e-06 8.09577e-07 -8.50753e-07)
(-1.34048e-05 2.1917e-07 -3.22279e-06)
(-7.11703e-06 -5.99883e-05 -7.11703e-06)
(1.51349e-05 -2.66965e-05 -8.34798e-06)
(8.09973e-06 3.69203e-06 -3.52464e-06)
(-6.41063e-05 2.24612e-05 -6.37011e-06)
(-2.85653e-05 -2.76519e-05 -2.85653e-05)
(7.06727e-05 -1.24765e-05 -2.39177e-05)
(3.28533e-05 2.27626e-05 -5.9065e-06)
(-3.97787e-05 6.4709e-05 -9.83255e-06)
(-3.13607e-05 -0.000535683 -3.13607e-05)
(4.32202e-05 -0.000228555 -4.55706e-05)
(3.10206e-05 6.7036e-05 -1.11854e-05)
(5.9475e-05 7.13708e-05 4.71553e-06)
(2.50513e-05 -0.0002143 2.50513e-05)
(-6.50663e-05 -0.000148889 1.87951e-05)
(-2.92289e-05 7.35737e-05 4.29946e-06)
(4.87739e-05 1.55193e-05 1.10953e-05)
(3.45635e-05 -5.79244e-05 3.45635e-05)
(-5.42468e-05 -2.141e-05 4.84064e-05)
(-3.57758e-05 1.91597e-05 1.22771e-05)
(8.70349e-06 -1.49874e-06 1.59674e-06)
(4.74088e-06 -4.83308e-05 4.74088e-06)
(-1.04565e-05 -3.37003e-05 6.1628e-06)
(-5.51958e-06 3.69448e-07 1.58649e-06)
(6.00704e-06 4.44318e-06 2.58587e-06)
(4.16387e-06 -3.02366e-06 4.16387e-06)
(-7.13674e-06 7.05314e-07 5.97776e-06)
(-4.93457e-06 5.31457e-06 2.88651e-06)
(1.43104e-06 -2.62191e-06 2.22526e-07)
(7.83475e-07 -8.40118e-06 7.83475e-07)
(-1.82469e-06 -6.58801e-06 1.0838e-06)
(-9.753e-07 -1.94909e-06 2.19377e-07)
(6.68419e-07 1.68213e-06 4.97435e-07)
(4.53599e-07 4.86794e-07 4.53599e-07)
(-8.86235e-07 1.09281e-06 6.49022e-07)
(-6.58829e-07 1.87817e-06 5.64715e-07)
(2.39619e-07 -1.17509e-06 3.43516e-08)
(1.18075e-07 -1.83028e-06 1.18075e-07)
(-3.42551e-07 -1.63634e-06 1.81221e-07)
(-1.74724e-07 -1.01975e-06 2.33445e-08)
(8.45741e-08 6.47336e-07 6.86918e-08)
(5.456e-08 4.41814e-07 5.456e-08)
(-1.30139e-07 5.60486e-07 7.61184e-08)
(-1.07929e-07 7.01717e-07 8.77678e-08)
(3.02947e-08 -4.35805e-07 4.17002e-09)
(9.38387e-09 -5.18017e-07 9.38387e-09)
(-5.77166e-08 -4.99543e-07 1.95127e-08)
(-2.58715e-08 -4.00285e-07 4.26358e-09)
(1.48019e-08 2.48059e-07 7.14941e-09)
(6.15596e-09 2.25264e-07 6.15596e-09)
(-2.64298e-08 2.45942e-07 9.05074e-09)
(-2.05406e-08 2.61222e-07 9.5808e-09)
(3.3364e-09 -1.86488e-07 3.71474e-10)
(6.50498e-10 -1.97617e-07 6.50498e-10)
(-1.4007e-08 -1.96187e-07 2.33385e-09)
(-5.79158e-09 -1.81843e-07 8.35332e-10)
(-7.49963e-09 5.27316e-08 4.35049e-08)
(1.70091e-09 -2.90895e-08 2.09812e-08)
(3.49825e-08 3.0794e-08 3.49825e-08)
(2.94351e-08 1.17443e-07 5.63468e-08)
(-7.31986e-08 -1.60699e-07 9.49294e-08)
(-2.55019e-08 -3.24917e-07 1.68256e-07)
(1.16442e-07 -2.40918e-07 1.16442e-07)
(5.78086e-08 -5.16428e-08 6.46615e-08)
(-1.59406e-07 3.87654e-07 3.16614e-07)
(-6.8462e-08 -4.06016e-08 3.35944e-07)
(3.00428e-07 1.66121e-07 3.00428e-07)
(2.08347e-07 5.43813e-07 3.10391e-07)
(-4.97587e-07 -3.04143e-07 5.65061e-07)
(-2.62935e-07 -1.62358e-06 1.01724e-06)
(7.21344e-07 -1.2308e-06 7.21344e-07)
(4.3437e-07 -6.97313e-08 4.62883e-07)
(-1.40711e-06 1.58389e-06 1.57948e-06)
(-9.5384e-07 -1.69247e-06 2.53876e-06)
(1.82058e-06 -4.18549e-07 1.82058e-06)
(1.30768e-06 2.11134e-06 1.40588e-06)
(-3.7244e-06 1.39847e-06 3.25111e-06)
(-2.32893e-06 -6.44033e-06 7.24424e-06)
(4.60593e-06 -6.15877e-06 4.60593e-06)
(2.93086e-06 1.50302e-06 2.51802e-06)
(-8.77364e-06 6.40379e-06 5.84386e-06)
(-8.34798e-06 -2.66965e-05 1.51349e-05)
(9.60351e-06 -1.51908e-05 9.60351e-06)
(8.50743e-06 7.88415e-06 5.34347e-06)
(-3.59187e-05 2.2018e-05 1.59665e-05)
(-2.39177e-05 -1.24765e-05 7.06727e-05)
(3.92171e-05 -2.27644e-05 3.92171e-05)
(2.53505e-05 2.04204e-05 1.25412e-05)
(-3.09601e-05 6.07368e-05 1.09277e-05)
(-4.55706e-05 -0.000228555 4.32202e-05)
(3.10757e-05 -0.000145626 3.10757e-05)
(4.19443e-05 5.96196e-05 9.76094e-06)
(3.21902e-05 7.31205e-05 -1.36634e-05)
(1.87951e-05 -0.000148889 -6.50663e-05)
(-3.49546e-05 -0.000233549 -3.49546e-05)
(-2.05412e-05 6.79305e-05 -1.05711e-05)
(3.63246e-05 2.18446e-05 -1.54972e-05)
(4.84064e-05 -2.141e-05 -5.42468e-05)
(-3.79697e-05 -1.40271e-05 -3.79697e-05)
(-4.58505e-05 2.27292e-05 -1.36027e-05)
(5.76239e-06 9.39298e-07 -3.71838e-06)
(6.1628e-06 -3.37003e-05 -1.04565e-05)
(-6.95771e-06 -4.3067e-05 -6.95771e-06)
(-6.37704e-06 6.90901e-07 -3.23915e-06)
(4.89067e-06 5.59848e-06 -3.91389e-06)
(5.97776e-06 7.05314e-07 -7.13674e-06)
(-5.22836e-06 8.15733e-07 -5.22836e-06)
(-5.95819e-06 6.13169e-06 -3.43335e-06)
(9.44418e-07 -1.93957e-06 -6.61711e-07)
(1.0838e-06 -6.58801e-06 -1.82469e-06)
(-1.24237e-06 -7.47002e-06 -1.24237e-06)
(-1.17671e-06 -1.84606e-06 -5.97088e-07)
(6.06101e-07 1.86933e-06 -8.15839e-07)
(6.49022e-07 1.09281e-06 -8.86235e-07)
(-7.1299e-07 1.05661e-06 -7.1299e-07)
(-7.41688e-07 2.01677e-06 -7.55383e-07)
(1.53535e-07 -1.05376e-06 -1.31088e-07)
(1.81221e-07 -1.63634e-06 -3.42551e-07)
(-2.29715e-07 -1.68164e-06 -2.29715e-07)
(-2.10914e-07 -9.86303e-07 -1.0554e-07)
(8.90391e-08 6.88858e-07 -1.50124e-07)
(7.61184e-08 5.60486e-07 -1.30139e-07)
(-1.18907e-07 5.51721e-07 -1.18907e-07)
(-1.13518e-07 7.26098e-07 -1.46033e-07)
(1.77159e-08 -4.13557e-07 -3.32947e-08)
(1.95127e-08 -4.99543e-07 -5.77166e-08)
(-3.94332e-08 -4.9487e-07 -3.94332e-08)
(-3.02846e-08 -3.9076e-07 -2.89573e-08)
(1.4798e-08 2.56715e-07 -2.69108e-08)
(9.05074e-09 2.45942e-07 -2.64298e-08)
(-2.40321e-08 2.46767e-07 -2.40321e-08)
(-2.0982e-08 2.66022e-07 -2.57263e-08)
(2.24828e-09 -1.8397e-07 -1.15352e-08)
(2.33385e-09 -1.96187e-07 -1.4007e-08)
(-1.16939e-08 -1.94593e-07 -1.16939e-08)
(-6.2902e-09 -1.80348e-07 -1.07217e-08)
(-2.25837e-08 1.17408e-07 3.43908e-08)
(-4.58006e-09 6.81492e-08 1.94068e-08)
(5.63468e-08 1.17443e-07 2.94351e-08)
(4.0278e-08 1.80394e-07 4.0278e-08)
(-2.82277e-08 1.51864e-08 3.15914e-08)
(-7.99803e-10 -1.44133e-07 7.72942e-08)
(6.46615e-08 -5.16428e-08 5.78086e-08)
(2.58978e-08 1.1049e-07 2.58978e-08)
(-1.74492e-07 5.98377e-07 2.01359e-07)
(-6.92339e-08 3.773e-07 1.87923e-07)
(3.10391e-07 5.43813e-07 2.08347e-07)
(1.96519e-07 7.44351e-07 1.96519e-07)
(-2.55184e-07 4.49854e-07 2.46399e-07)
(-8.20604e-08 -4.02347e-07 4.92133e-07)
(4.62883e-07 -6.97313e-08 4.3437e-07)
(2.35135e-07 6.81444e-07 2.35135e-07)
(-9.96243e-07 2.75113e-06 9.21338e-07)
(-5.92803e-07 1.24687e-06 1.33898e-06)
(1.40588e-06 2.11134e-06 1.30768e-06)
(9.23813e-07 3.15784e-06 9.23813e-07)
(-1.78695e-06 4.32214e-06 1.43481e-06)
(-8.50753e-07 8.09577e-07 3.3892e-06)
(2.51802e-06 1.50302e-06 2.93086e-06)
(1.32437e-06 4.62195e-06 1.32437e-06)
(-4.39341e-06 1.2339e-05 3.7236e-06)
(-3.52464e-06 3.69203e-06 8.09973e-06)
(5.34347e-06 7.88415e-06 8.50743e-06)
(3.94344e-06 1.30765e-05 3.94344e-06)
(-1.06464e-05 2.73273e-05 7.56168e-06)
(-5.9065e-06 2.27626e-05 3.28533e-05)
(1.25412e-05 2.04204e-05 2.53505e-05)
(6.80933e-06 2.66107e-05 6.80933e-06)
(-9.08439e-06 5.44758e-05 9.16245e-06)
(-1.11854e-05 6.7036e-05 3.10206e-05)
(9.76094e-06 5.96196e-05 4.19443e-05)
(1.02212e-05 5.20376e-05 1.02212e-05)
(9.08429e-06 6.37355e-05 -6.11904e-06)
(4.29946e-06 7.35737e-05 -2.92289e-05)
(-1.05711e-05 6.79305e-05 -2.05412e-05)
(-5.41165e-06 6.2525e-05 -5.41165e-06)
(1.18428e-05 2.51157e-05 -1.13025e-05)
(1.22771e-05 1.91597e-05 -3.57758e-05)
(-1.36027e-05 2.27292e-05 -4.58505e-05)
(-1.2127e-05 2.566e-05 -1.2127e-05)
(2.22966e-06 9.70521e-06 -1.96611e-06)
(1.58649e-06 3.69448e-07 -5.51958e-06)
(-3.23915e-06 6.90901e-07 -6.37704e-06)
(-1.90063e-06 1.0153e-05 -1.90063e-06)
(2.88027e-06 7.02557e-06 -2.91858e-06)
(2.88651e-06 5.31457e-06 -4.93457e-06)
(-3.43335e-06 6.13169e-06 -5.95819e-06)
(-3.10859e-06 7.46765e-06 -3.10859e-06)
(2.99764e-07 4.71442e-07 -3.2721e-07)
(2.19377e-07 -1.94909e-06 -9.753e-07)
(-5.97088e-07 -1.84606e-06 -1.17671e-06)
(-3.31339e-07 7.23043e-07 -3.31339e-07)
(5.9452e-07 2.09632e-06 -6.46199e-07)
(5.64715e-07 1.87817e-06 -6.58829e-07)
(-7.55383e-07 2.01677e-06 -7.41688e-07)
(-6.86855e-07 2.24903e-06 -6.86855e-07)
(3.41651e-08 -4.89482e-07 -5.453e-08)
(2.33445e-08 -1.01975e-06 -1.74724e-07)
(-1.0554e-07 -9.86303e-07 -2.10914e-07)
(-5.0358e-08 -3.92057e-07 -5.0358e-08)
(1.02257e-07 7.15973e-07 -1.20931e-07)
(8.77678e-08 7.01717e-07 -1.07929e-07)
(-1.46033e-07 7.26098e-07 -1.13518e-07)
(-1.31573e-07 7.48287e-07 -1.31573e-07)
(7.00445e-09 -3.04052e-07 -1.49635e-08)
(4.26358e-09 -4.00285e-07 -2.58715e-08)
(-2.89573e-08 -3.9076e-07 -3.02846e-08)
(-1.55759e-08 -2.72074e-07 -1.55759e-08)
(1.49024e-08 2.61564e-07 -2.05658e-08)
(9.5808e-09 2.61222e-07 -2.05406e-08)
(-2.57263e-08 2.66022e-07 -2.0982e-08)
(-2.15974e-08 2.71031e-07 -2.15974e-08)
(1.36409e-09 -1.68367e-07 -4.83103e-09)
(8.35331e-10 -1.81843e-07 -5.79158e-09)
(-1.07217e-08 -1.80348e-07 -6.2902e-09)
(-5.1197e-09 -1.64024e-07 -5.1197e-09)
)
;

boundaryField
{
    inlet
    {
        type            fixedValue;
        value           uniform (0 0 0);
    }
    outlet
    {
        type            zeroGradient;
    }
    walls
    {
        type            fixedValue;
        value           uniform (0 0 0);
    }
}


// ************************************************************************* //
