/*--------------------------------*- C++ -*----------------------------------*\
| =========                 |                                                 |
| \\      /  F ield         | OpenFOAM: The Open Source CFD Toolbox           |
|  \\    /   O peration     | Version:  5.x                                   |
|   \\  /    A nd           | Web:      www.OpenFOAM.org                      |
|    \\/     M anipulation  |                                                 |
\*---------------------------------------------------------------------------*/
FoamFile
{
    version     2.0;
    format      ascii;
    class       volVectorField;
    location    "0.05";
    object      Us;
}
// * * * * * * * * * * * * * * * * * * * * * * * * * * * * * * * * * * * * * //

dimensions      [0 1 -1 0 0 0 0];

internalField   nonuniform List<vector> 
320
(
(-5.02991e-22 -2.57626e-18 -5.02991e-22)
(-3.70688e-21 -1.89862e-17 -3.70688e-21)
(-3.70319e-21 -1.89673e-17 -3.70319e-21)
(-4.82623e-22 -2.47194e-18 -4.82623e-22)
(-2.90251e-20 -1.48664e-16 -2.90251e-20)
(-2.37764e-19 -1.2178e-15 -2.37764e-19)
(-2.37601e-19 -1.21697e-15 -2.37601e-19)
(-2.80533e-20 -1.43686e-16 -2.80533e-20)
(-1.65571e-18 -8.48034e-15 -1.65571e-18)
(-1.52434e-17 -7.80751e-14 -1.52434e-17)
(-1.52366e-17 -7.80403e-14 -1.52366e-17)
(-1.61141e-18 -8.25347e-15 -1.61141e-18)
(-9.10866e-17 -4.66536e-13 -9.10866e-17)
(-9.57565e-16 -4.90454e-12 -9.57565e-16)
(-9.57308e-16 -4.90323e-12 -9.57308e-16)
(-8.92399e-17 -4.57077e-13 -8.92399e-17)
(-4.77302e-15 -2.44469e-11 -4.77302e-15)
(-5.84958e-14 -2.99609e-10 -5.84958e-14)
(-5.84874e-14 -2.99566e-10 -5.84874e-14)
(-4.70558e-15 -2.41015e-11 -4.70558e-15)
(-2.3347e-13 -1.19581e-09 -2.3347e-13)
(-3.43131e-12 -1.75748e-08 -3.43131e-12)
(-3.43109e-12 -1.75737e-08 -3.43109e-12)
(-2.31494e-13 -1.18568e-09 -2.31494e-13)
(-1.02797e-11 -5.26513e-08 -1.02797e-11)
(-1.88746e-10 -9.66736e-07 -1.88746e-10)
(-1.88742e-10 -9.66715e-07 -1.88742e-10)
(-1.02431e-11 -5.2464e-08 -1.02431e-11)
(-3.77259e-10 -1.93228e-06 -3.77259e-10)
(-9.23129e-09 -4.72817e-05 -9.23129e-09)
(-9.23126e-09 -4.72815e-05 -9.23126e-09)
(-3.77232e-10 -1.93214e-06 -3.77232e-10)
(-9.23471e-09 -4.72992e-05 -9.23471e-09)
(-3.38742e-07 -0.001735 -3.38742e-07)
(-3.38742e-07 -0.001735 -3.38742e-07)
(-9.23469e-09 -4.72991e-05 -9.23469e-09)
(-3.77e-10 -1.93095e-06 -3.77e-10)
(-9.22785e-09 -4.72641e-05 -9.22785e-09)
(-9.22787e-09 -4.72642e-05 -9.22787e-09)
(-3.77035e-10 -1.93113e-06 -3.77035e-10)
(-8.5112e-12 -4.35935e-08 -8.5112e-12)
(-1.87719e-10 -9.61477e-07 -1.87719e-10)
(-1.86901e-10 -9.57285e-07 -1.86901e-10)
(-7.63495e-12 -3.91054e-08 -7.63495e-12)
(-1.14754e-13 -5.87759e-10 -1.14754e-13)
(-2.51359e-12 -1.28743e-08 -2.51359e-12)
(-2.53486e-12 -1.29833e-08 -2.53486e-12)
(-1.38065e-13 -7.07152e-10 -1.38065e-13)
(-1.54711e-15 -7.92415e-12 -1.54711e-15)
(-3.36566e-14 -1.72386e-10 -3.36566e-14)
(-3.43729e-14 -1.76054e-10 -3.43729e-14)
(-2.34043e-15 -1.19874e-11 -2.34043e-15)
(-2.08601e-17 -1.06843e-13 -2.08601e-17)
(-4.50676e-16 -2.30831e-12 -4.50676e-16)
(-4.66041e-16 -2.38701e-12 -4.66041e-16)
(-3.80868e-17 -1.95076e-13 -3.80868e-17)
(-2.81287e-19 -1.44072e-15 -2.81287e-19)
(-6.03498e-18 -3.09105e-14 -6.03498e-18)
(-6.31799e-18 -3.23601e-14 -6.31799e-18)
(-6.02574e-19 -3.08632e-15 -6.02574e-19)
(-3.79336e-21 -1.94292e-17 -3.79336e-21)
(-8.08173e-20 -4.13937e-16 -8.08173e-20)
(-8.56414e-20 -4.38646e-16 -8.56414e-20)
(-9.33868e-21 -4.78317e-17 -9.33868e-21)
(-5.11609e-23 -2.62041e-19 -5.11609e-23)
(-1.08231e-21 -5.54346e-18 -1.08231e-21)
(-1.16075e-21 -5.94525e-18 -1.16075e-21)
(-1.42467e-22 -7.29702e-19 -1.42467e-22)
(-6.90068e-25 -3.53445e-21 -6.90068e-25)
(-1.44949e-23 -7.42412e-20 -1.44949e-23)
(-1.57307e-23 -8.05709e-20 -1.57307e-23)
(-2.14656e-24 -1.09945e-20 -2.14656e-24)
(-9.30868e-27 -4.76781e-23 -9.30868e-27)
(-1.94132e-25 -9.94323e-22 -1.94132e-25)
(-2.13163e-25 -1.0918e-21 -2.13163e-25)
(-3.20187e-26 -1.63996e-22 -3.20187e-26)
(-1.28579e-28 -6.58568e-25 -1.28579e-28)
(-2.64682e-27 -1.35567e-23 -2.64682e-27)
(-2.93974e-27 -1.5057e-23 -2.93974e-27)
(-4.82648e-28 -2.47207e-24 -4.82648e-28)
(-3.70688e-21 -1.89862e-17 -3.70688e-21)
(-3.02838e-20 -1.5511e-16 -3.02838e-20)
(-3.02437e-20 -1.54905e-16 -3.02437e-20)
(-3.56033e-21 -1.82356e-17 -3.56033e-21)
(-2.37764e-19 -1.2178e-15 -2.37764e-19)
(-2.18666e-18 -1.11998e-14 -2.18666e-18)
(-2.18475e-18 -1.11901e-14 -2.18475e-18)
(-2.3033e-19 -1.17972e-15 -2.3033e-19)
(-1.52434e-17 -7.80751e-14 -1.52434e-17)
(-1.60101e-16 -8.20022e-13 -1.60101e-16)
(-1.60015e-16 -8.19581e-13 -1.60015e-16)
(-1.48847e-17 -7.6238e-14 -1.48847e-17)
(-9.57565e-16 -4.90454e-12 -9.57565e-16)
(-1.17263e-14 -6.00609e-11 -1.17263e-14)
(-1.17228e-14 -6.0043e-11 -1.17228e-14)
(-9.4194e-16 -4.82451e-12 -9.4194e-16)
(-5.84958e-14 -2.99609e-10 -5.84958e-14)
(-8.59175e-13 -4.4006e-09 -8.59175e-13)
(-8.59054e-13 -4.39998e-09 -8.59054e-13)
(-5.79234e-14 -2.96677e-10 -5.79234e-14)
(-3.43131e-12 -1.75748e-08 -3.43131e-12)
(-6.29736e-11 -3.22544e-07 -6.29736e-11)
(-6.29704e-11 -3.22528e-07 -6.29704e-11)
(-3.41681e-12 -1.75005e-08 -3.41681e-12)
(-1.88746e-10 -9.66736e-07 -1.88746e-10)
(-4.61736e-09 -2.36496e-05 -4.61736e-09)
(-4.61731e-09 -2.36494e-05 -4.61731e-09)
(-1.88687e-10 -9.66437e-07 -1.88687e-10)
(-9.23129e-09 -4.72817e-05 -9.23129e-09)
(-3.38679e-07 -0.00173468 -3.38679e-07)
(-3.38679e-07 -0.00173468 -3.38679e-07)
(-9.23129e-09 -4.72817e-05 -9.23129e-09)
(-3.38742e-07 -0.001735 -3.38742e-07)
(-2.48499e-05 -0.127278 -2.48499e-05)
(-2.48499e-05 -0.127278 -2.48499e-05)
(-3.38742e-07 -0.001735 -3.38742e-07)
(-9.22785e-09 -4.72641e-05 -9.22785e-09)
(-3.38616e-07 -0.00173436 -3.38616e-07)
(-3.38616e-07 -0.00173436 -3.38616e-07)
(-9.22789e-09 -4.72642e-05 -9.22789e-09)
(-1.87719e-10 -9.61477e-07 -1.87719e-10)
(-4.61705e-09 -2.3648e-05 -4.61705e-09)
(-4.61558e-09 -2.36405e-05 -4.61558e-09)
(-1.86157e-10 -9.53478e-07 -1.86157e-10)
(-2.51359e-12 -1.28743e-08 -2.51359e-12)
(-6.12973e-11 -3.13958e-07 -6.12973e-11)
(-6.20581e-11 -3.17855e-07 -6.20581e-11)
(-3.33745e-12 -1.7094e-08 -3.33745e-12)
(-3.36566e-14 -1.72386e-10 -3.36566e-14)
(-8.13804e-13 -4.16821e-09 -8.13804e-13)
(-8.34259e-13 -4.27298e-09 -8.34259e-13)
(-5.60915e-14 -2.87294e-10 -5.60915e-14)
(-4.50676e-16 -2.30831e-12 -4.50676e-16)
(-1.08044e-14 -5.53392e-11 -1.08044e-14)
(-1.12134e-14 -5.74337e-11 -1.12134e-14)
(-9.0496e-16 -4.63511e-12 -9.0496e-16)
(-6.03498e-18 -3.09105e-14 -6.03498e-18)
(-1.43446e-16 -7.34716e-13 -1.43446e-16)
(-1.50698e-16 -7.71859e-13 -1.50698e-16)
(-1.41941e-17 -7.27004e-14 -1.41941e-17)
(-8.08173e-20 -4.13937e-16 -8.08173e-20)
(-1.9045e-18 -9.75462e-15 -1.9045e-18)
(-2.02496e-18 -1.03716e-14 -2.02496e-18)
(-2.18076e-19 -1.11696e-15 -2.18076e-19)
(-1.08231e-21 -5.54346e-18 -1.08231e-21)
(-2.52857e-20 -1.29511e-16 -2.52857e-20)
(-2.72058e-20 -1.39345e-16 -2.72058e-20)
(-3.298e-21 -1.6892e-17 -3.298e-21)
(-1.44949e-23 -7.42412e-20 -1.44949e-23)
(-3.35718e-22 -1.71951e-18 -3.35718e-22)
(-3.65468e-22 -1.87188e-18 -3.65468e-22)
(-4.92582e-23 -2.52295e-19 -4.92582e-23)
(-1.94132e-25 -9.94323e-22 -1.94132e-25)
(-4.45738e-24 -2.28302e-20 -4.45738e-24)
(-4.90883e-24 -2.51425e-20 -4.90883e-24)
(-7.28324e-25 -3.7304e-21 -7.28324e-25)
(-2.64682e-27 -1.35567e-23 -2.64682e-27)
(-5.99917e-26 -3.07271e-22 -5.99917e-26)
(-6.68256e-26 -3.42273e-22 -6.68256e-26)
(-1.08373e-26 -5.55074e-23 -1.08373e-26)
(-3.70319e-21 -1.89673e-17 -3.70319e-21)
(-3.02437e-20 -1.54905e-16 -3.02437e-20)
(-3.0034e-20 -1.53831e-16 -3.0034e-20)
(-3.36862e-21 -1.72537e-17 -3.36862e-21)
(-2.37601e-19 -1.21697e-15 -2.37601e-19)
(-2.18475e-18 -1.11901e-14 -2.18475e-18)
(-2.17385e-18 -1.11342e-14 -2.17385e-18)
(-2.20273e-19 -1.12821e-15 -2.20273e-19)
(-1.52366e-17 -7.80403e-14 -1.52366e-17)
(-1.60015e-16 -8.19581e-13 -1.60015e-16)
(-1.59478e-16 -8.16827e-13 -1.59478e-16)
(-1.43842e-17 -7.36745e-14 -1.43842e-17)
(-9.57308e-16 -4.90323e-12 -9.57308e-16)
(-1.17228e-14 -6.0043e-11 -1.17228e-14)
(-1.16989e-14 -5.99207e-11 -1.16989e-14)
(-9.19563e-16 -4.7099e-12 -9.19563e-16)
(-5.84874e-14 -2.99566e-10 -5.84874e-14)
(-8.59054e-13 -4.39998e-09 -8.59054e-13)
(-8.58171e-13 -4.39546e-09 -8.58171e-13)
(-5.70934e-14 -2.92426e-10 -5.70934e-14)
(-3.43109e-12 -1.75737e-08 -3.43109e-12)
(-6.29704e-11 -3.22528e-07 -6.29704e-11)
(-6.29487e-11 -3.22416e-07 -6.29487e-11)
(-3.39665e-12 -1.73973e-08 -3.39665e-12)
(-1.88742e-10 -9.66715e-07 -1.88742e-10)
(-4.61731e-09 -2.36494e-05 -4.61731e-09)
(-4.61732e-09 -2.36494e-05 -4.61732e-09)
(-1.88729e-10 -9.6665e-07 -1.88729e-10)
(-9.23126e-09 -4.72815e-05 -9.23126e-09)
(-3.38679e-07 -0.00173468 -3.38679e-07)
(-3.38679e-07 -0.00173468 -3.38679e-07)
(-9.23129e-09 -4.72817e-05 -9.23129e-09)
(-3.38742e-07 -0.001735 -3.38742e-07)
(-2.48499e-05 -0.127278 -2.48499e-05)
(-2.48499e-05 -0.127278 -2.48499e-05)
(-3.38742e-07 -0.001735 -3.38742e-07)
(-9.22787e-09 -4.72642e-05 -9.22787e-09)
(-3.38616e-07 -0.00173436 -3.38616e-07)
(-3.38616e-07 -0.00173436 -3.38616e-07)
(-9.22787e-09 -4.72641e-05 -9.22787e-09)
(-1.86901e-10 -9.57285e-07 -1.86901e-10)
(-4.61558e-09 -2.36405e-05 -4.61558e-09)
(-4.6171e-09 -2.36483e-05 -4.6171e-09)
(-1.88569e-10 -9.65832e-07 -1.88569e-10)
(-2.53486e-12 -1.29833e-08 -2.53486e-12)
(-6.20581e-11 -3.17855e-07 -6.20581e-11)
(-6.28782e-11 -3.22055e-07 -6.28782e-11)
(-3.42377e-12 -1.75362e-08 -3.42377e-12)
(-3.43729e-14 -1.76054e-10 -3.43729e-14)
(-8.34259e-13 -4.27298e-09 -8.34259e-13)
(-8.56024e-13 -4.38446e-09 -8.56024e-13)
(-5.82653e-14 -2.98429e-10 -5.82653e-14)
(-4.66041e-16 -2.38701e-12 -4.66041e-16)
(-1.12134e-14 -5.74337e-11 -1.12134e-14)
(-1.16502e-14 -5.96708e-11 -1.16502e-14)
(-9.51681e-16 -4.87441e-12 -9.51681e-16)
(-6.31799e-18 -3.23601e-14 -6.31799e-18)
(-1.50698e-16 -7.71859e-13 -1.50698e-16)
(-1.58504e-16 -8.1184e-13 -1.58504e-16)
(-1.51094e-17 -7.73887e-14 -1.51094e-17)
(-8.56414e-20 -4.38646e-16 -8.56414e-20)
(-2.02496e-18 -1.03716e-14 -2.02496e-18)
(-2.15584e-18 -1.1042e-14 -2.15584e-18)
(-2.34941e-19 -1.20334e-15 -2.34941e-19)
(-1.16075e-21 -5.94525e-18 -1.16075e-21)
(-2.72058e-20 -1.39345e-16 -2.72058e-20)
(-2.93131e-20 -1.50138e-16 -2.93131e-20)
(-3.59538e-21 -1.84151e-17 -3.59538e-21)
(-1.57307e-23 -8.05709e-20 -1.57307e-23)
(-3.65468e-22 -1.87188e-18 -3.65468e-22)
(-3.98456e-22 -2.04085e-18 -3.98456e-22)
(-5.43314e-23 -2.78279e-19 -5.43314e-23)
(-2.13163e-25 -1.0918e-21 -2.13163e-25)
(-4.90883e-24 -2.51425e-20 -4.90883e-24)
(-5.41473e-24 -2.77337e-20 -5.41473e-24)
(-8.12664e-25 -4.16238e-21 -8.12664e-25)
(-2.93974e-27 -1.5057e-23 -2.93974e-27)
(-6.68256e-26 -3.42273e-22 -6.68256e-26)
(-7.45657e-26 -3.81917e-22 -7.45657e-26)
(-1.22309e-26 -6.26451e-23 -1.22309e-26)
(-4.82623e-22 -2.47194e-18 -4.82623e-22)
(-3.56033e-21 -1.82356e-17 -3.56033e-21)
(-3.36862e-21 -1.72537e-17 -3.36862e-21)
(-2.54377e-22 -1.30289e-18 -2.54377e-22)
(-2.80533e-20 -1.43686e-16 -2.80533e-20)
(-2.3033e-19 -1.17972e-15 -2.3033e-19)
(-2.20273e-19 -1.12821e-15 -2.20273e-19)
(-1.62163e-20 -8.30583e-17 -1.62163e-20)
(-1.61141e-18 -8.25347e-15 -1.61141e-18)
(-1.48847e-17 -7.6238e-14 -1.48847e-17)
(-1.43842e-17 -7.36745e-14 -1.43842e-17)
(-1.02859e-18 -5.26832e-15 -1.02859e-18)
(-8.92399e-17 -4.57077e-13 -8.92399e-17)
(-9.4194e-16 -4.82451e-12 -9.4194e-16)
(-9.19563e-16 -4.7099e-12 -9.19563e-16)
(-6.34255e-17 -3.24858e-13 -6.34255e-17)
(-4.70558e-15 -2.41015e-11 -4.70558e-15)
(-5.79234e-14 -2.96677e-10 -5.79234e-14)
(-5.70934e-14 -2.92426e-10 -5.70934e-14)
(-3.75391e-15 -1.92271e-11 -3.75391e-15)
(-2.31494e-13 -1.18568e-09 -2.31494e-13)
(-3.41681e-12 -1.75005e-08 -3.41681e-12)
(-3.39665e-12 -1.73973e-08 -3.39665e-12)
(-2.08215e-13 -1.06645e-09 -2.08215e-13)
(-1.02431e-11 -5.2464e-08 -1.02431e-11)
(-1.88687e-10 -9.66437e-07 -1.88687e-10)
(-1.88729e-10 -9.6665e-07 -1.88729e-10)
(-1.02554e-11 -5.25271e-08 -1.02554e-11)
(-3.77232e-10 -1.93214e-06 -3.77232e-10)
(-9.23129e-09 -4.72817e-05 -9.23129e-09)
(-9.23129e-09 -4.72817e-05 -9.23129e-09)
(-3.77279e-10 -1.93238e-06 -3.77279e-10)
(-9.23469e-09 -4.72991e-05 -9.23469e-09)
(-3.38742e-07 -0.001735 -3.38742e-07)
(-3.38742e-07 -0.001735 -3.38742e-07)
(-9.23471e-09 -4.72992e-05 -9.23471e-09)
(-3.77035e-10 -1.93113e-06 -3.77035e-10)
(-9.22789e-09 -4.72642e-05 -9.22789e-09)
(-9.22787e-09 -4.72641e-05 -9.22787e-09)
(-3.77026e-10 -1.93108e-06 -3.77026e-10)
(-7.63495e-12 -3.91054e-08 -7.63495e-12)
(-1.86157e-10 -9.53478e-07 -1.86157e-10)
(-1.88569e-10 -9.65832e-07 -1.88569e-10)
(-1.02685e-11 -5.2594e-08 -1.02685e-11)
(-1.38065e-13 -7.07152e-10 -1.38065e-13)
(-3.33745e-12 -1.7094e-08 -3.33745e-12)
(-3.42377e-12 -1.75362e-08 -3.42377e-12)
(-2.33091e-13 -1.19386e-09 -2.33091e-13)
(-2.34043e-15 -1.19874e-11 -2.34043e-15)
(-5.60915e-14 -2.87294e-10 -5.60915e-14)
(-5.82653e-14 -2.98429e-10 -5.82653e-14)
(-4.76124e-15 -2.43865e-11 -4.76124e-15)
(-3.80868e-17 -1.95076e-13 -3.80868e-17)
(-9.0496e-16 -4.63511e-12 -9.0496e-16)
(-9.51681e-16 -4.87441e-12 -9.51681e-16)
(-9.07603e-17 -4.64864e-13 -9.07603e-17)
(-6.02574e-19 -3.08632e-15 -6.02574e-19)
(-1.41941e-17 -7.27004e-14 -1.41941e-17)
(-1.51094e-17 -7.73887e-14 -1.51094e-17)
(-1.64753e-18 -8.43845e-15 -1.64753e-18)
(-9.33868e-21 -4.78317e-17 -9.33868e-21)
(-2.18076e-19 -1.11696e-15 -2.18076e-19)
(-2.34941e-19 -1.20334e-15 -2.34941e-19)
(-2.88354e-20 -1.47692e-16 -2.88354e-20)
(-1.42467e-22 -7.29702e-19 -1.42467e-22)
(-3.298e-21 -1.6892e-17 -3.298e-21)
(-3.59538e-21 -1.84151e-17 -3.59538e-21)
(-4.90614e-22 -2.51287e-18 -4.90614e-22)
(-2.14656e-24 -1.09945e-20 -2.14656e-24)
(-4.92582e-23 -2.52295e-19 -4.92582e-23)
(-5.43314e-23 -2.78279e-19 -5.43314e-23)
(-8.16111e-24 -4.18003e-20 -8.16111e-24)
(-3.20187e-26 -1.63996e-22 -3.20187e-26)
(-7.28324e-25 -3.7304e-21 -7.28324e-25)
(-8.12664e-25 -4.16238e-21 -8.12664e-25)
(-1.33275e-25 -6.82618e-22 -1.33275e-25)
(-4.82648e-28 -2.47207e-24 -4.82648e-28)
(-1.08373e-26 -5.55074e-23 -1.08373e-26)
(-1.22309e-26 -6.26451e-23 -1.22309e-26)
(-2.17734e-27 -1.11521e-23 -2.17734e-27)
)
;

boundaryField
{
    inlet
    {
        type            zeroGradient;
    }
    outlet
    {
        type            zeroGradient;
    }
    walls
    {
        type            zeroGradient;
    }
}


// ************************************************************************* //
