/*--------------------------------*- C++ -*----------------------------------*\
| =========                 |                                                 |
| \\      /  F ield         | OpenFOAM: The Open Source CFD Toolbox           |
|  \\    /   O peration     | Version:  5.x                                   |
|   \\  /    A nd           | Web:      www.OpenFOAM.org                      |
|    \\/     M anipulation  |                                                 |
\*---------------------------------------------------------------------------*/
FoamFile
{
    version     2.0;
    format      ascii;
    class       volVectorField;
    location    "0.03";
    object      U;
}
// * * * * * * * * * * * * * * * * * * * * * * * * * * * * * * * * * * * * * //

dimensions      [0 1 -1 0 0 0 0];

internalField   nonuniform List<vector> 
1553
(
(7.1887e-08 6.66032e-08 -0.000394128)
(1.8724e-06 6.25587e-08 -0.000394441)
(1.94094e-06 7.31401e-08 -0.000393547)
(3.16145e-06 7.3269e-08 -0.000394278)
(3.05413e-06 8.37399e-08 -0.000392514)
(6.78373e-08 1.86706e-06 -0.00039444)
(1.8706e-06 1.86529e-06 -0.000394755)
(1.94082e-06 1.86514e-06 -0.00039386)
(3.16177e-06 1.86446e-06 -0.00039459)
(3.0551e-06 1.85782e-06 -0.000392825)
(7.83919e-08 1.93634e-06 -0.000393548)
(1.87048e-06 1.93624e-06 -0.000393861)
(1.94011e-06 1.93553e-06 -0.000392968)
(3.15413e-06 1.93592e-06 -0.000393697)
(3.04739e-06 1.92789e-06 -0.000391941)
(7.85303e-08 3.15674e-06 -0.000394278)
(1.86978e-06 3.157e-06 -0.00039459)
(1.9405e-06 3.14938e-06 -0.000393696)
(3.15413e-06 3.14936e-06 -0.000394423)
(3.04692e-06 3.1309e-06 -0.000392666)
(8.90179e-08 3.05072e-06 -0.000392516)
(1.86312e-06 3.05166e-06 -0.000392827)
(1.93248e-06 3.04396e-06 -0.000391942)
(3.13564e-06 3.04348e-06 -0.000392667)
(3.02859e-06 3.02514e-06 -0.000390928)
(2.53963e-07 2.49187e-07 4.17972e-05)
(1.28753e-06 2.62729e-07 4.19306e-05)
(1.55961e-06 2.74373e-07 4.2241e-05)
(2.0975e-06 2.80051e-07 4.25017e-05)
(1.58079e-06 2.84327e-07 4.29208e-05)
(2.67521e-07 1.28283e-06 4.19304e-05)
(1.29754e-06 1.29281e-06 4.20651e-05)
(1.56526e-06 1.29423e-06 4.2374e-05)
(2.10077e-06 1.29727e-06 4.26345e-05)
(1.58147e-06 1.29043e-06 4.3052e-05)
(2.79196e-07 1.55565e-06 4.22406e-05)
(1.29893e-06 1.56126e-06 4.23738e-05)
(1.56406e-06 1.56006e-06 4.26771e-05)
(2.0937e-06 1.56098e-06 4.29364e-05)
(1.57378e-06 1.55234e-06 4.33481e-05)
(2.84903e-07 2.09389e-06 4.25011e-05)
(1.30195e-06 2.09717e-06 4.26341e-05)
(1.56497e-06 2.0901e-06 4.29362e-05)
(2.09305e-06 2.08945e-06 4.31945e-05)
(1.57261e-06 2.07394e-06 4.36048e-05)
(2.89155e-07 1.5787e-06 4.29202e-05)
(1.29515e-06 1.57942e-06 4.30517e-05)
(1.55634e-06 1.57173e-06 4.33479e-05)
(2.07754e-06 1.57056e-06 4.36048e-05)
(1.5579e-06 1.55585e-06 4.40083e-05)
(2.23122e-07 2.1725e-07 -0.000261296)
(2.34188e-06 2.12925e-07 -0.000261271)
(2.54311e-06 2.1775e-07 -0.000259942)
(3.88327e-06 2.16968e-07 -0.000259904)
(3.51544e-06 2.22221e-07 -0.000257673)
(2.1878e-07 2.33608e-06 -0.000261272)
(2.33994e-06 2.33414e-06 -0.000261248)
(2.54138e-06 2.32695e-06 -0.00025992)
(3.8819e-06 2.32486e-06 -0.000259882)
(3.51484e-06 2.31075e-06 -0.000257653)
(2.23597e-07 2.53809e-06 -0.000259943)
(2.33275e-06 2.53636e-06 -0.000259921)
(2.53383e-06 2.52881e-06 -0.000258603)
(3.86706e-06 2.52702e-06 -0.000258567)
(3.501e-06 2.51157e-06 -0.000256356)
(2.22822e-07 3.8783e-06 -0.000259905)
(2.33066e-06 3.87693e-06 -0.000259884)
(2.53204e-06 3.86209e-06 -0.000258567)
(3.86465e-06 3.85968e-06 -0.000258531)
(3.49901e-06 3.83274e-06 -0.000256322)
(2.28051e-07 3.51202e-06 -0.000257676)
(2.31655e-06 3.51143e-06 -0.000257655)
(2.51659e-06 3.4976e-06 -0.000256357)
(3.8377e-06 3.4956e-06 -0.000256324)
(3.47343e-06 3.47002e-06 -0.000254146)
(2.77697e-07 2.71652e-07 -7.78226e-05)
(2.64179e-06 2.81865e-07 -7.76353e-05)
(2.92745e-06 2.95089e-07 -7.61352e-05)
(4.36707e-06 3.00342e-07 -7.57772e-05)
(3.85246e-06 3.0623e-07 -7.33773e-05)
(2.87905e-07 2.6358e-06 -7.76359e-05)
(2.649e-06 2.64301e-06 -7.74481e-05)
(2.93147e-06 2.63327e-06 -7.59496e-05)
(4.36872e-06 2.63391e-06 -7.5592e-05)
(3.85208e-06 2.60788e-06 -7.31942e-05)
(3.01149e-07 2.92235e-06 -7.61366e-05)
(2.63926e-06 2.92636e-06 -7.59504e-05)
(2.91835e-06 2.91324e-06 -7.44668e-05)
(4.34167e-06 2.91253e-06 -7.4112e-05)
(3.82579e-06 2.8831e-06 -7.17361e-05)
(3.06403e-07 4.36206e-06 -7.57791e-05)
(2.63988e-06 4.36377e-06 -7.55932e-05)
(2.91764e-06 4.33674e-06 -7.41124e-05)
(4.33857e-06 4.33364e-06 -7.37587e-05)
(3.82189e-06 4.28434e-06 -7.13868e-05)
(3.12206e-07 3.84912e-06 -7.33798e-05)
(2.61395e-06 3.84882e-06 -7.31962e-05)
(2.88823e-06 3.82254e-06 -7.17372e-05)
(4.28927e-06 3.81864e-06 -7.13875e-05)
(3.77527e-06 3.77202e-06 -6.90485e-05)
(4.17702e-07 4.10502e-07 -0.000187473)
(4.02927e-06 4.0689e-07 -0.000187238)
(4.40113e-06 4.08346e-07 -0.000184737)
(6.6415e-06 4.07016e-07 -0.000184284)
(5.96318e-06 4.07851e-07 -0.000180218)
(4.14092e-07 4.02204e-06 -0.000187238)
(4.0263e-06 4.01903e-06 -0.000187003)
(4.39747e-06 3.99527e-06 -0.000184505)
(6.63757e-06 3.99011e-06 -0.000184053)
(5.96027e-06 3.95195e-06 -0.000179991)
(4.15604e-07 4.39496e-06 -0.000184739)
(4.0025e-06 4.39126e-06 -0.000184507)
(4.37222e-06 4.36601e-06 -0.000182036)
(6.59817e-06 4.36029e-06 -0.000181589)
(5.92399e-06 4.31906e-06 -0.000177572)
(4.1428e-07 6.63542e-06 -0.000184287)
(3.99735e-06 6.63148e-06 -0.000184055)
(4.3665e-06 6.59209e-06 -0.000181589)
(6.5906e-06 6.58452e-06 -0.000181143)
(5.91789e-06 6.52068e-06 -0.000177135)
(4.15112e-07 5.95903e-06 -0.000180222)
(3.95918e-06 5.95611e-06 -0.000179995)
(4.32527e-06 5.91983e-06 -0.000177574)
(6.52676e-06 5.91373e-06 -0.000177136)
(5.85847e-06 5.85431e-06 -0.000173201)
(5.23255e-07 5.15034e-07 -0.000141485)
(5.37874e-06 5.22855e-07 -0.000141104)
(5.88134e-06 5.31604e-07 -0.00013768)
(8.88634e-06 5.35795e-07 -0.000136947)
(7.99755e-06 5.36704e-07 -0.000131432)
(5.31039e-07 5.37046e-06 -0.000141105)
(5.38198e-06 5.37378e-06 -0.000140724)
(5.88181e-06 5.33398e-06 -0.000137304)
(8.8833e-06 5.32886e-06 -0.000136573)
(7.99267e-06 5.25357e-06 -0.000131065)
(5.39706e-07 5.87422e-06 -0.000137683)
(5.34225e-06 5.87483e-06 -0.000137306)
(5.83643e-06 5.82947e-06 -0.000133925)
(8.80591e-06 5.82264e-06 -0.000133203)
(7.9203e-06 5.7399e-06 -0.000127751)
(5.43813e-07 8.87959e-06 -0.000136951)
(5.33724e-06 8.87646e-06 -0.000136575)
(5.82962e-06 8.79911e-06 -0.000133204)
(8.79371e-06 8.78688e-06 -0.000132486)
(7.90764e-06 8.65568e-06 -0.000127047)
(5.44874e-07 7.99307e-06 -0.000131436)
(5.2618e-06 7.98803e-06 -0.000131068)
(5.74688e-06 7.91568e-06 -0.000127753)
(8.66248e-06 7.903e-06 -0.000127049)
(7.78547e-06 7.78083e-06 -0.000121696)
(8.04216e-07 7.94601e-07 -0.000164489)
(7.83421e-06 7.92458e-07 -0.000163967)
(8.558e-06 7.88635e-07 -0.000159)
(1.28905e-05 7.85624e-07 -0.000157993)
(1.15889e-05 7.78003e-07 -0.000149947)
(8.02132e-07 7.82431e-06 -0.000163969)
(7.82737e-06 7.81746e-06 -0.000163445)
(8.54826e-06 7.75024e-06 -0.000158485)
(1.28781e-05 7.73432e-06 -0.000157479)
(1.15789e-05 7.63303e-06 -0.000149447)
(7.98395e-07 8.54966e-06 -0.000159003)
(7.76015e-06 8.53991e-06 -0.000158486)
(8.47487e-06 8.46652e-06 -0.000153583)
(1.27733e-05 8.4473e-06 -0.000152592)
(1.14847e-05 8.33637e-06 -0.00014467)
(7.95367e-07 1.28824e-05 -0.000157998)
(7.74423e-06 1.28699e-05 -0.000157482)
(8.45565e-06 1.27651e-05 -0.000152593)
(1.27479e-05 1.27397e-05 -0.000151606)
(1.14647e-05 1.25762e-05 -0.000143709)
(7.87793e-07 1.15833e-05 -0.000149953)
(7.64291e-06 1.15733e-05 -0.000149452)
(8.34473e-06 1.14791e-05 -0.000144672)
(1.25844e-05 1.14591e-05 -0.000143711)
(1.13166e-05 1.1311e-05 -0.000135988)
(1.0608e-06 1.04915e-06 -0.00017871)
(1.08679e-05 1.05698e-06 -0.000177911)
(1.18546e-05 1.05655e-06 -0.000170786)
(1.79403e-05 1.05918e-06 -0.000169255)
(1.62075e-05 1.04432e-06 -0.000157827)
(1.06821e-06 1.08561e-05 -0.000177913)
(1.0866e-05 1.08541e-05 -0.000177114)
(1.1848e-05 1.07507e-05 -0.000170005)
(1.7922e-05 1.073e-05 -0.00016848)
(1.61875e-05 1.05312e-05 -0.000157077)
(1.06786e-06 1.18451e-05 -0.000170791)
(1.07625e-05 1.18383e-05 -0.000170007)
(1.17305e-05 1.17208e-05 -0.000163012)
(1.77207e-05 1.16955e-05 -0.000161521)
(1.60031e-05 1.14782e-05 -0.00015026)
(1.07058e-06 1.79309e-05 -0.000169261)
(1.07417e-05 1.79124e-05 -0.000168484)
(1.17053e-05 1.77112e-05 -0.000161522)
(1.76794e-05 1.76699e-05 -0.000160043)
(1.59638e-05 1.73384e-05 -0.000148828)
(1.05586e-06 1.62012e-05 -0.000157835)
(1.05429e-05 1.6181e-05 -0.000157082)
(1.1488e-05 1.59966e-05 -0.000150263)
(1.73479e-05 1.59573e-05 -0.00014883)
(1.5662e-05 1.56555e-05 -0.000137833)
(1.61038e-06 1.59689e-06 -0.000177351)
(1.57577e-05 1.59478e-06 -0.000176249)
(1.72133e-05 1.57416e-06 -0.000166303)
(2.58515e-05 1.56524e-06 -0.000164201)
(2.32513e-05 1.53124e-06 -0.000148053)
(1.6084e-06 1.57434e-05 -0.000176251)
(1.57352e-05 1.57209e-05 -0.000175154)
(1.7182e-05 1.55243e-05 -0.000165229)
(2.58082e-05 1.5469e-05 -0.000163135)
(2.32156e-05 1.52002e-05 -0.000147035)
(1.5878e-06 1.72017e-05 -0.000166308)
(1.55386e-05 1.71703e-05 -0.000165232)
(1.69614e-05 1.69497e-05 -0.000155397)
(2.55273e-05 1.68841e-05 -0.000153341)
(2.29748e-05 1.65853e-05 -0.000137512)
(1.57887e-06 2.58401e-05 -0.000164207)
(1.54832e-05 2.57968e-05 -0.000163139)
(1.68958e-05 2.55159e-05 -0.000153342)
(2.54437e-05 2.54323e-05 -0.000151304)
(2.2908e-05 2.50048e-05 -0.000135561)
(1.54495e-06 2.32436e-05 -0.000148062)
(1.52145e-05 2.32079e-05 -0.000147042)
(1.6597e-05 2.29671e-05 -0.000137516)
(2.50162e-05 2.29004e-05 -0.000135563)
(2.25346e-05 2.25269e-05 -0.000120221)
(2.18217e-06 2.16643e-06 -0.000219447)
(2.19163e-05 2.16652e-06 -0.000217608)
(2.39024e-05 2.14333e-06 -0.000202901)
(3.61934e-05 2.1386e-06 -0.000199518)
(3.26958e-05 2.07402e-06 -0.000176342)
(2.18286e-06 2.18995e-05 -0.000217613)
(2.18879e-05 2.18708e-05 -0.000215803)
(2.38677e-05 2.1657e-05 -0.000201184)
(3.6119e-05 2.159e-05 -0.000197843)
(3.26254e-05 2.10715e-05 -0.000174764)
(2.15979e-06 2.38889e-05 -0.000202908)
(2.16738e-05 2.38539e-05 -0.000201187)
(2.36215e-05 2.36078e-05 -0.000186954)
(3.56077e-05 2.35265e-05 -0.000183786)
(3.21622e-05 2.29528e-05 -0.000161051)
(2.15514e-06 3.618e-05 -0.000199528)
(2.16068e-05 3.61055e-05 -0.000197848)
(2.35403e-05 3.55942e-05 -0.000183789)
(3.54639e-05 3.54504e-05 -0.000180669)
(3.20347e-05 3.46324e-05 -0.000158084)
(2.09075e-06 3.26869e-05 -0.000176354)
(2.10882e-05 3.26164e-05 -0.000174772)
(2.29666e-05 3.21532e-05 -0.000161056)
(3.46459e-05 3.20257e-05 -0.000158087)
(3.1319e-05 3.131e-05 -0.00013607)
(3.45748e-06 3.4381e-06 -0.000221344)
(3.23043e-05 3.40619e-06 -0.000218614)
(3.53033e-05 3.29452e-06 -0.000198011)
(5.24138e-05 3.24525e-06 -0.000193058)
(4.69153e-05 3.11186e-06 -0.000160366)
(3.4257e-06 3.22829e-05 -0.000218618)
(3.21633e-05 3.21419e-05 -0.000215966)
(3.51424e-05 3.14705e-05 -0.000195537)
(5.2232e-05 3.12008e-05 -0.00019069)
(4.67801e-05 3.04913e-05 -0.000158208)
(3.31396e-06 3.52867e-05 -0.000198019)
(3.14919e-05 3.51257e-05 -0.00019554)
(3.43622e-05 3.43455e-05 -0.000175496)
(5.14344e-05 3.40584e-05 -0.000170878)
(4.6186e-05 3.32654e-05 -0.000139253)
(3.26465e-06 5.23975e-05 -0.000193068)
(3.12221e-05 5.22157e-05 -0.000190696)
(3.40751e-05 5.1418e-05 -0.000170881)
(5.11516e-05 5.11353e-05 -0.00016649)
(4.59642e-05 4.99898e-05 -0.000135167)
(3.13131e-06 4.69049e-05 -0.000160379)
(3.05126e-05 4.67697e-05 -0.000158217)
(3.3282e-05 4.61755e-05 -0.000139259)
(5.00062e-05 4.59538e-05 -0.00013517)
(4.50076e-05 4.49971e-05 -0.000104734)
(4.93707e-06 4.91356e-06 -0.000294333)
(4.52493e-05 4.8348e-06 -0.000290479)
(4.94578e-05 4.6376e-06 -0.000262882)
(7.38443e-05 4.52748e-06 -0.000255547)
(6.60948e-05 4.25262e-06 -0.000209134)
(4.8592e-06 4.52251e-05 -0.000290486)
(4.4969e-05 4.49446e-05 -0.00028663)
(4.91444e-05 4.41721e-05 -0.000259035)
(7.34532e-05 4.37702e-05 -0.000251767)
(6.5809e-05 4.21845e-05 -0.000205577)
(4.66219e-06 4.94387e-05 -0.000262892)
(4.41963e-05 4.9125e-05 -0.000259038)
(4.82834e-05 4.82639e-05 -0.000230885)
(7.18564e-05 4.7726e-05 -0.000223806)
(6.44689e-05 4.59941e-05 -0.000178252)
(4.55206e-06 7.38255e-05 -0.000255561)
(4.37942e-05 7.34341e-05 -0.000251774)
(4.77455e-05 7.18373e-05 -0.000223811)
(7.1183e-05 7.11639e-05 -0.000216798)
(6.40319e-05 6.91571e-05 -0.000171725)
(4.27741e-06 6.60829e-05 -0.000209151)
(4.22085e-05 6.5797e-05 -0.000205587)
(4.60136e-05 6.4457e-05 -0.00017826)
(6.91762e-05 6.40199e-05 -0.000171728)
(6.23959e-05 6.23839e-05 -0.0001282)
(7.32079e-06 7.29177e-06 -0.000303962)
(6.3755e-05 7.26377e-06 -0.000297981)
(7.02353e-05 7.14619e-06 -0.000255594)
(0.000106171 7.03149e-06 -0.000245024)
(9.43444e-05 6.67198e-06 -0.00018092)
(7.2928e-06 6.37237e-05 -0.00029799)
(6.3614e-05 6.35827e-05 -0.000292097)
(7.0005e-05 6.34676e-05 -0.000250205)
(0.000105699 6.29408e-05 -0.000239752)
(9.39801e-05 6.13729e-05 -0.000175982)
(7.17494e-06 7.02115e-05 -0.000255606)
(6.34989e-05 6.99814e-05 -0.000250208)
(6.95934e-05 6.95697e-05 -0.000211313)
(0.000104076 6.90268e-05 -0.000201336)
(9.27249e-05 6.71175e-05 -0.000138755)
(7.0605e-06 0.000106147 -0.000245041)
(6.29723e-05 0.000105675 -0.000239761)
(6.90505e-05 0.000104052 -0.000201341)
(0.000103246 0.000103222 -0.000191972)
(9.20103e-05 0.00010005 -0.000129883)
(6.70151e-06 9.43307e-05 -0.000180939)
(6.14042e-05 9.39664e-05 -0.000175995)
(6.71412e-05 9.27111e-05 -0.000138763)
(0.000100074 9.19966e-05 -0.000129886)
(8.94667e-05 8.9453e-05 -6.99795e-05)
(1.09546e-05 1.09208e-05 -0.000456896)
(9.36174e-05 1.07567e-05 -0.000446943)
(0.000102415 1.00663e-05 -0.000386069)
(0.000148532 9.83855e-06 -0.000368845)
(0.000131674 9.23139e-06 -0.000274956)
(1.07923e-05 9.3581e-05 -0.000446956)
(9.27543e-05 9.27171e-05 -0.00043733)
(0.00010149 8.84531e-05 -0.000377193)
(0.000147688 8.74584e-05 -0.000360403)
(0.000131038 8.43492e-05 -0.00026757)
(1.0102e-05 0.000102388 -0.000386084)
(8.84896e-05 0.000101462 -0.000377196)
(9.7156e-05 9.71284e-05 -0.000320786)
(0.000144427 9.55058e-05 -0.000305037)
(0.000128452 9.20937e-05 -0.000215929)
(9.87428e-06 0.000148505 -0.000368867)
(8.74944e-05 0.000147661 -0.000360413)
(9.55337e-05 0.000144399 -0.000305044)
(0.000142652 0.000142625 -0.000289746)
(0.0001275 0.000137943 -0.000201651)
(9.26787e-06 0.000131659 -0.00027498)
(8.43847e-05 0.000131022 -0.000267583)
(9.21217e-05 0.000128436 -0.00021594)
(0.000137971 0.000127484 -0.000201655)
(0.000123601 0.000123585 -0.000117074)
(1.729e-05 1.72443e-05 -0.000488591)
(0.000134582 1.68959e-05 -0.000472383)
(0.000148333 1.60343e-05 -0.000384417)
(0.000217303 1.54863e-05 -0.000356018)
(0.000190391 1.40599e-05 -0.000213429)
(1.69415e-05 0.000134535 -0.000472401)
(0.000133377 0.00013333 -0.000456685)
(0.000146932 0.000128751 -0.000370054)
(0.00021534 0.000126749 -0.00034243)
(0.000188944 0.000120399 -0.000202399)
(1.60797e-05 0.0001483 -0.000384439)
(0.000128797 0.000146898 -0.000370057)
(0.000141752 0.000141719 -0.000286686)
(0.00020895 0.000139684 -0.000261804)
(0.000183873 0.000133036 -0.000130899)
(1.55313e-05 0.00021727 -0.000356049)
(0.000126795 0.000215306 -0.000342444)
(0.000139717 0.000208915 -0.000261813)
(0.000206655 0.000206621 -0.000237762)
(0.000182107 0.000198922 -0.000112072)
(1.41045e-05 0.000190375 -0.000213463)
(0.000120444 0.000188927 -0.000202417)
(0.000133069 0.000183855 -0.000130912)
(0.000198956 0.00018209 -0.000112077)
(0.000175932 0.000175915 5.31008e-06)
(2.72292e-05 2.71755e-05 -0.000801761)
(0.000197791 2.6527e-05 -0.000773439)
(0.000218779 2.45126e-05 -0.000650199)
(0.000319548 2.35137e-05 -0.000603551)
(0.000277474 2.0361e-05 -0.000409535)
(2.65794e-05 0.000197734 -0.000773459)
(0.000195102 0.000195043 -0.000746714)
(0.000215744 0.000186184 -0.000625891)
(0.00031537 0.000181673 -0.000581352)
(0.000274223 0.000166879 -0.000390451)
(2.4565e-05 0.00021874 -0.000650224)
(0.000186242 0.000215702 -0.000625895)
(0.000205409 0.000205368 -0.000511535)
(0.000300239 0.000200173 -0.000470533)
(0.000262318 0.00018242 -0.000289428)
(2.35665e-05 0.000319508 -0.000603588)
(0.00018173 0.000315328 -0.000581369)
(0.000200214 0.000300199 -0.000470546)
(0.000292418 0.000292377 -0.00043279)
(0.000256051 0.000274175 -0.000256223)
(2.04139e-05 0.000277455 -0.000409577)
(0.000166936 0.000274202 -0.000390473)
(0.000182461 0.000262299 -0.000289445)
(0.000274215 0.000256031 -0.000256229)
(0.000243622 0.000243601 -9.01042e-05)
(4.56264e-05 4.55532e-05 -0.000874284)
(0.000286144 4.36437e-05 -0.00082896)
(0.000318221 4.03547e-05 -0.000647125)
(0.000458011 3.77081e-05 -0.00057378)
(0.000389016 3.31571e-05 -0.000290151)
(4.37155e-05 0.000286074 -0.000828987)
(0.000280946 0.000280876 -0.00078603)
(0.000312293 0.000267417 -0.000609696)
(0.000450822 0.000259768 -0.000539632)
(0.000384369 0.000240506 -0.000263351)
(4.04261e-05 0.000318171 -0.000647159)
(0.000267488 0.000312243 -0.0006097)
(0.000297114 0.000297064 -0.000443714)
(0.000431095 0.000288246 -0.000381437)
(0.000369246 0.000267263 -0.000120627)
(3.77788e-05 0.00045796 -0.000573829)
(0.000259839 0.00045077 -0.000539652)
(0.000288296 0.000431044 -0.000381453)
(0.000421015 0.000420963 -0.000323982)
(0.000362804 0.00039828 -7.47663e-05)
(3.32272e-05 0.000388995 -0.000290206)
(0.000240576 0.000384346 -0.000263378)
(0.000267312 0.000369223 -0.000120651)
(0.000398331 0.000362781 -7.47733e-05)
(0.000345853 0.00034583 0.000141128)
(7.2664e-05 7.25782e-05 -0.00155032)
(0.000424951 6.95706e-05 -0.00146308)
(0.000473954 6.20976e-05 -0.00120288)
(0.000676581 5.78281e-05 -0.00106968)
(0.000567834 4.73677e-05 -0.000671748)
(6.96534e-05 0.000424859 -0.00146311)
(0.000414393 0.000414303 -0.00138369)
(0.000462137 0.000389594 -0.00113232)
(0.000661772 0.000374014 -0.00100876)
(0.000557072 0.000336401 -0.000621963)
(6.21774e-05 0.000473893 -0.00120292)
(0.000389686 0.000462076 -0.00113233)
(0.000433667 0.000433606 -0.00089859)
(0.000623379 0.000415819 -0.000787366)
(0.00052928 0.000371001 -0.000425852)
(5.79072e-05 0.00067652 -0.00106973)
(0.000374105 0.000661708 -0.00100879)
(0.00041588 0.000623315 -0.000787385)
(0.000599156 0.000599091 -0.000689069)
(0.000511126 0.000535977 -0.000343175)
(4.74461e-05 0.000567809 -0.000671816)
(0.00033649 0.000557044 -0.000622001)
(0.000371062 0.000529253 -0.00042588)
(0.000536041 0.000511099 -0.000343186)
(0.000464656 0.000464628 -2.62888e-05)
(0.000132832 0.000132714 -0.00174675)
(0.000633593 0.000123026 -0.00160332)
(0.000711627 0.000110899 -0.00121385)
(0.00098924 9.86445e-05 -0.00100503)
(0.000796728 8.29454e-05 -0.000423061)
(0.000123142 0.000633482 -0.00160336)
(0.000611747 0.000611637 -0.00147229)
(0.000687224 0.00057171 -0.00110545)
(0.000961271 0.000542081 -0.000911514)
(0.000780662 0.000486406 -0.000356475)
(0.000111014 0.000711548 -0.0012139)
(0.000571821 0.000687147 -0.00110546)
(0.000642072 0.000641995 -0.000764964)
(0.000903923 0.000607933 -0.000599676)
(0.000739577 0.00054605 -8.41037e-05)
(9.87578e-05 0.000989161 -0.00100511)
(0.000542193 0.00096119 -0.000911546)
(0.00060801 0.000903842 -0.0005997)
(0.000865307 0.000865225 -0.000453893)
(0.000717091 0.000797912 2.44461e-05)
(8.3056e-05 0.000796697 -0.00042315)
(0.000486516 0.00078063 -0.00035652)
(0.000546126 0.000739545 -8.41411e-05)
(0.000797992 0.000717056 2.44331e-05)
(0.000670238 0.000670204 0.000431761)
(0.000216214 0.000216072 -0.00323226)
(0.000957863 0.000200712 -0.00293891)
(0.00107223 0.000170733 -0.00237403)
(0.0014675 0.000151613 -0.00197603)
(0.00116409 0.00011435 -0.00115573)
(0.000200845 0.00095772 -0.00293895)
(0.000912315 0.000912176 -0.00268745)
(0.00102289 0.000838476 -0.00215765)
(0.00141087 0.000779364 -0.00180342)
(0.00112582 0.000675353 -0.00102179)
(0.000170861 0.00107213 -0.00237409)
(0.000838619 0.0010228 -0.00215767)
(0.000939425 0.000939331 -0.00167527)
(0.00130435 0.000873421 -0.00136426)
(0.00105748 0.000751906 -0.000647677)
(0.000151736 0.0014674 -0.00197612)
(0.000779508 0.00141077 -0.00180347)
(0.000873515 0.00130425 -0.00136429)
(0.00122341 0.00122331 -0.00110545)
(0.00100121 0.00105194 -0.000437413)
(0.00011447 0.00116406 -0.00115584)
(0.000675493 0.00112577 -0.00102186)
(0.000751999 0.00105744 -0.000647725)
(0.00105204 0.00100117 -0.000437434)
(0.000881988 0.000881947 0.000144677)
(0.00042588 0.000425688 -0.00391413)
(0.00149184 0.00037425 -0.00339917)
(0.00167451 0.000327086 -0.00251289)
(0.00220777 0.00027117 -0.00187284)
(0.00163835 0.000216832 -0.000655941)
(0.000374438 0.00149167 -0.00339922)
(0.00139306 0.00139289 -0.00295388)
(0.00157125 0.00127048 -0.00216895)
(0.00209735 0.00115386 -0.00159892)
(0.00158255 0.000994483 -0.000483882)
(0.000327273 0.00167438 -0.00251297)
(0.00127066 0.00157112 -0.00216897)
(0.00143549 0.00143536 -0.00144735)
(0.00193172 0.00130589 -0.000985445)
(0.00147453 0.00113043 4.20268e-05)
(0.000271354 0.00220764 -0.00187295)
(0.00115404 0.00209722 -0.00159897)
(0.00130601 0.0019316 -0.00098548)
(0.00179236 0.00179223 -0.000603841)
(0.00140221 0.0015904 0.000298794)
(0.000217009 0.00163829 -0.000656083)
(0.000994656 0.0015825 -0.000483961)
(0.00113056 0.00147447 4.19666e-05)
(0.00159053 0.00140215 0.00029877)
(0.00126672 0.00126666 0.00106034)
(0.000731179 0.00073095 -0.00725891)
(0.00235913 0.000645825 -0.00617385)
(0.00259851 0.000514866 -0.00487369)
(0.00332479 0.000425788 -0.00364832)
(0.00241228 0.000287021 -0.0019581)
(0.000646043 0.00235891 -0.0061739)
(0.00214261 0.0021424 -0.00532844)
(0.0023778 0.00190402 -0.00417972)
(0.00309623 0.00166675 -0.00315329)
(0.00226986 0.00137329 -0.00159966)
(0.000515077 0.00259835 -0.00487379)
(0.00190424 0.00237765 -0.00417976)
(0.00212288 0.00212273 -0.00316602)
(0.00279397 0.00186844 -0.00229449)
(0.00211106 0.00153452 -0.00090214)
(0.000425989 0.00332463 -0.00364845)
(0.00166698 0.00309607 -0.00315337)
(0.00186859 0.00279381 -0.00229452)
(0.0025079 0.00250774 -0.00162506)
(0.00192703 0.00207048 -0.000384741)
(0.000287208 0.00241222 -0.00195827)
(0.00137351 0.00226979 -0.00159978)
(0.00153466 0.002111 -0.000902219)
(0.00207064 0.00192696 -0.00038478)
(0.00166254 0.00166248 0.000630592)
(0.00150965 0.00150934 -0.00997169)
(0.00387718 0.00121844 -0.00787903)
(0.00420007 0.00102024 -0.00565315)
(0.0051239 0.00076565 -0.00359118)
(0.00337571 0.000575057 -0.00101723)
(0.00121875 0.0038769 -0.0078791)
(0.00338732 0.00338705 -0.00621006)
(0.00374639 0.00297821 -0.0044761)
(0.00467789 0.00250771 -0.00274989)
(0.00317946 0.00205053 -0.000561341)
(0.00102055 0.00419986 -0.00565328)
(0.00297849 0.00374619 -0.00447616)
(0.00332076 0.00332055 -0.0028869)
(0.00419606 0.00283408 -0.00157104)
(0.00290509 0.00234537 0.000447506)
(0.000765945 0.0051237 -0.00359135)
(0.00250798 0.0046777 -0.00274998)
(0.00283428 0.00419586 -0.00157109)
(0.0037025 0.0037023 -0.000572713)
(0.00267627 0.00312335 0.00103147)
(0.00057534 0.00337562 -0.00101745)
(0.0020508 0.00317937 -0.000561483)
(0.00234557 0.002905 0.000447409)
(0.00312356 0.00267618 0.00103142)
(0.0023086 0.0023085 0.00242662)
(0.00282424 0.00282387 -0.0180993)
(0.00667769 0.00231385 -0.0135947)
(0.00688623 0.00169171 -0.0102411)
(0.0079616 0.00126685 -0.00644317)
(0.00505565 0.000743445 -0.00298141)
(0.00231422 0.00667733 -0.0135948)
(0.00554556 0.00554521 -0.0105866)
(0.00583782 0.00467026 -0.00795077)
(0.00701168 0.00368688 -0.00504384)
(0.00451908 0.00283787 -0.00206392)
(0.00169205 0.00688598 -0.0102413)
(0.00467061 0.00583758 -0.00795086)
(0.0050278 0.00502755 -0.00575437)
(0.00612894 0.00404548 -0.0034069)
(0.00418291 0.00312715 -0.000801428)
(0.00126718 0.00796134 -0.00644335)
(0.00368722 0.00701143 -0.00504396)
(0.00404572 0.00612868 -0.00340694)
(0.00511092 0.00511067 -0.00178458)
(0.00357479 0.00405009 0.000320663)
(0.000743741 0.00505552 -0.00298166)
(0.00283822 0.00451896 -0.00206412)
(0.00312739 0.00418279 -0.000801547)
(0.00405035 0.00357467 0.000320594)
(0.00309253 0.00309242 0.00197688)
(0.00601016 0.00600969 -0.0293761)
(0.0117362 0.00422187 -0.0198499)
(0.0113526 0.00330783 -0.0133308)
(0.0123849 0.0021628 -0.00661652)
(0.00694077 0.00149192 -0.00124388)
(0.00422237 0.0117357 -0.01985)
(0.00903162 0.00903121 -0.0130655)
(0.00928957 0.00746524 -0.00914687)
(0.0105659 0.00554402 -0.00402277)
(0.00624923 0.00423075 -2.54118e-05)
(0.00330831 0.0113523 -0.0133311)
(0.00746567 0.00928924 -0.00914697)
(0.00786497 0.00786462 -0.0055471)
(0.00914993 0.00609328 -0.00191653)
(0.00558736 0.00472995 0.00176102)
(0.00216326 0.0123846 -0.00661674)
(0.00554443 0.0105656 -0.00402292)
(0.00609361 0.0091496 -0.00191658)
(0.00743065 0.00743034 0.00054625)
(0.00484336 0.00590188 0.00308343)
(0.00149236 0.00694059 -0.00124419)
(0.00423115 0.00624906 -2.56614e-05)
(0.00473028 0.00558719 0.00176087)
(0.00590221 0.0048432 0.00308334)
(0.00401071 0.00401054 0.00529812)
(0.0123664 0.0123657 -0.0532049)
(0.0227201 0.00909928 -0.0317166)
(0.0201204 0.00587494 -0.0214242)
(0.0200493 0.00385901 -0.00999287)
(0.0105826 0.00196115 -0.0031787)
(0.00909996 0.0227196 -0.0317165)
(0.0162472 0.0162466 -0.0204813)
(0.0148807 0.0124532 -0.0139061)
(0.0161339 0.00838656 -0.00628247)
(0.00863766 0.00584255 -0.00100394)
(0.00587555 0.0201201 -0.0214245)
(0.0124537 0.0148803 -0.0139063)
(0.0122578 0.0122574 -0.00905165)
(0.013438 0.00861426 -0.00333767)
(0.0079633 0.00623588 0.000961645)
(0.00385957 0.020049 -0.00999308)
(0.00838708 0.0161335 -0.00628265)
(0.00861465 0.0134376 -0.00333771)
(0.0101119 0.0101115 8.41166e-05)
(0.00618675 0.00758822 0.00312416)
(0.00196166 0.0105823 -0.00317911)
(0.00584307 0.00863744 -0.00100426)
(0.00623628 0.00796308 0.000961466)
(0.00758863 0.00618655 0.00312404)
(0.00536465 0.00536444 0.00534389)
(0.0275297 0.0275294 -0.101609)
(0.043515 0.0154566 -0.0536397)
(0.0330846 0.0108196 -0.0300151)
(0.0306337 0.00586729 -0.00950573)
(0.013977 0.00366412 0.000781565)
(0.0154574 0.0435143 -0.0536403)
(0.0268374 0.0268368 -0.0243935)
(0.0234931 0.0198377 -0.0157956)
(0.0234705 0.0121994 -0.00233027)
(0.0117033 0.00837055 0.00355963)
(0.0108203 0.0330839 -0.0300157)
(0.0198383 0.0234925 -0.0157958)
(0.0184358 0.0184353 -0.00777899)
(0.0191646 0.0124603 0.000746919)
(0.0100246 0.0088577 0.00625987)
(0.00586798 0.0306332 -0.009506)
(0.0122 0.02347 -0.00233048)
(0.0124608 0.0191641 0.000746875)
(0.0138929 0.0138925 0.00562234)
(0.00798226 0.0102841 0.00856529)
(0.00366478 0.0139766 0.000780985)
(0.00837119 0.0117029 0.00355922)
(0.00885824 0.0100243 0.00625964)
(0.0102846 0.00798197 0.00856514)
(0.00629835 0.00629807 0.0111031)
(0.060851 0.0608483 -0.195331)
(0.0942153 0.0384362 -0.0770596)
(0.0642597 0.0201062 -0.0386635)
(0.0508374 0.011033 -0.00885381)
(0.0211978 0.00473594 0.00192293)
(0.0384379 0.094214 -0.0770583)
(0.0540638 0.0540625 -0.0346466)
(0.0369424 0.0346745 -0.0172932)
(0.0354855 0.0186361 -0.00114063)
(0.0147369 0.0113217 0.0057327)
(0.0201076 0.0642597 -0.0386639)
(0.0346757 0.0369418 -0.0172936)
(0.0288001 0.0287995 -0.00726271)
(0.0274771 0.0165676 0.00307566)
(0.0136474 0.0112422 0.00823667)
(0.0110339 0.0508371 -0.00885397)
(0.0186368 0.0354849 -0.00114085)
(0.0165682 0.0274764 0.00307565)
(0.0179317 0.0179311 0.00818533)
(0.00923427 0.0124327 0.0110155)
(0.00473678 0.0211973 0.0019223)
(0.0113225 0.0147364 0.00573225)
(0.0112428 0.013647 0.00823642)
(0.0124333 0.00923391 0.0110153)
(0.00797588 0.00797552 0.0129227)
(0.156515 0.15652 -0.417849)
(0.201682 0.0589721 -0.151579)
(0.101064 0.0322444 -0.0442825)
(0.0712067 0.0135819 0.00340175)
(0.0251658 0.00746341 0.0144824)
(0.0589729 0.201681 -0.151584)
(0.0864966 0.0864971 -0.0211445)
(0.0570208 0.0512137 -0.00714097)
(0.0464963 0.0241211 0.0146876)
(0.0188547 0.0146825 0.0184109)
(0.0322449 0.101062 -0.0442852)
(0.0512149 0.0570201 -0.00714121)
(0.038815 0.0388141 0.00551985)
(0.0346642 0.0217897 0.0165098)
(0.0153789 0.0141416 0.0197793)
(0.0135829 0.071206 0.00340252)
(0.0241218 0.0464958 0.0146875)
(0.0217905 0.0346634 0.0165098)
(0.0218339 0.0218332 0.0208432)
(0.0109299 0.0149714 0.0213853)
(0.00746432 0.0251649 0.0144812)
(0.0146835 0.0188541 0.0184103)
(0.0141424 0.0153783 0.0197789)
(0.0149721 0.0109295 0.0213851)
(0.0082742 0.00827374 0.0215159)
(0.470317 0.470316 -1.37203)
(0.582982 0.155329 -0.295886)
(0.175006 0.0578565 0.00784323)
(0.109293 0.0223761 0.0303583)
(0.0327926 0.00865446 0.0265071)
(0.155338 0.582977 -0.2959)
(0.187424 0.18742 -0.0217333)
(0.0721228 0.0843492 0.0180259)
(0.0610222 0.0317114 0.0297083)
(0.0186801 0.0166143 0.0268478)
(0.0578601 0.174999 0.00784145)
(0.0843532 0.072122 0.0180256)
(0.0524523 0.0524515 0.0260042)
(0.0417296 0.0227214 0.0285157)
(0.0170768 0.0142161 0.0274115)
(0.0223769 0.109294 0.0303575)
(0.0317115 0.0610213 0.0297081)
(0.0227221 0.0417286 0.0285157)
(0.0228031 0.0228024 0.0290618)
(0.00983855 0.0141675 0.0269836)
(0.00865593 0.0327901 0.0265064)
(0.016616 0.0186793 0.0268474)
(0.0142171 0.017076 0.0274113)
(0.0141685 0.009838 0.0269835)
(0.0081331 0.00813254 0.0259517)
(0.00392139 0.00389367 -5.24563)
(1.51345 0.202453 0.177304)
(0.109984 0.042822 0.197612)
(0.0863524 0.0129614 0.0900747)
(0.0214688 0.00779405 0.0659271)
(0.202069 1.51348 0.17734)
(0.267544 0.267521 0.212411)
(0.0691334 0.0672802 0.123149)
(0.0547702 0.0222032 0.0675891)
(0.016137 0.0156014 0.0562365)
(0.0428242 0.109987 0.197613)
(0.0672832 0.069132 0.123149)
(0.0487074 0.048706 0.0889196)
(0.0360258 0.0211319 0.0608434)
(0.0143309 0.0142851 0.0475548)
(0.0129629 0.086353 0.0900734)
(0.0222047 0.0547696 0.067589)
(0.0211328 0.0360248 0.0608432)
(0.0202968 0.0202959 0.0473843)
(0.00885492 0.0135121 0.0416485)
(0.00779543 0.0214681 0.0659269)
(0.015603 0.0161362 0.0562364)
(0.0142862 0.0143302 0.0475546)
(0.0135131 0.0088543 0.0416484)
(0.00722191 0.0072213 0.0349439)
(0.00111103 0.00109326 -5.29698)
(-0.817034 -0.0718728 -0.0999268)
(-0.0266431 -0.0187626 0.16561)
(-0.0221946 -4.1203e-05 0.0849252)
(0.00807204 -0.00106657 0.0669302)
(-0.0718784 -0.817045 -0.0999167)
(-0.0866804 -0.0866823 0.169889)
(-0.0106332 -0.0248187 0.114369)
(-0.00493005 0.00275046 0.0745278)
(0.00711516 -0.00174433 0.0575418)
(-0.0187605 -0.0266443 0.165611)
(-0.0248157 -0.0106343 0.114369)
(-0.00885174 -0.00885284 0.0881674)
(0.000565497 0.00266479 0.0638335)
(0.00348958 -0.000363659 0.0509099)
(-3.99817e-05 -0.0221945 0.0849262)