FoamFile
{version 2.0; format ascii;class Cloud<passiveParticle>; location 0;object  positions;}
1
(
( 0.049995 0.00847734 0.049995 ) 0 
)
