FoamFile
{version 2.0; format ascii;class vectorField; location 0;object  v;}
1
(
( -6.16527e-05 -0.128975 -6.16527e-05 )  
)
