FoamFile
{version 2.0; format ascii;class Cloud<passiveParticle>; location 0;object  positions;}
2
(
( 0.499998 0.499998 3.37397 ) 0 
( 0.499998 0.499997 3.03573 ) 0 
)
