/*--------------------------------*- C++ -*----------------------------------*\
| =========                 |                                                 |
| \\      /  F ield         | OpenFOAM: The Open Source CFD Toolbox           |
|  \\    /   O peration     | Version:  5.x                                   |
|   \\  /    A nd           | Web:      www.OpenFOAM.org                      |
|    \\/     M anipulation  |                                                 |
\*---------------------------------------------------------------------------*/
FoamFile
{
    version     2.0;
    format      ascii;
    class       volScalarField;
    location    "0.11";
    object      Ksl;
}
// * * * * * * * * * * * * * * * * * * * * * * * * * * * * * * * * * * * * * //

dimensions      [1 -3 -1 0 0 0 0];

internalField   nonuniform List<scalar> 
320
(
7.55301e-05
0.000719599
0.00046074
2.25326e-05
0.00129982
0.016564
0.00875959
0.000565142
0.0197382
0.359277
0.159152
0.00994573
0.337462
3.00501
1.30289
0.1725
1.73148
3.13038
1.50652
0.848987
0.0812924
1.11
0.599347
0.0419936
0.00184645
0.0347324
0.0171273
0.000908978
3.8366e-05
0.000709404
0.000349452
2.07541e-05
7.77734e-07
1.26698e-05
6.42935e-06
4.74987e-07
0
-2.70738e-21
-1.17494e-21
0
0
0
0
0
0
0
0
0
0
0
0
0
0
0
0
0
0
0
0
0
0
0
0
0
0
0
0
0
0
0
0
0
0
0
0
0
0
0
0
0
0.000719599
0.00286664
0.00352124
0.0013565
0.016564
0.1042
0.0946937
0.0194575
0.359277
14.4884
1.80537
0.304552
3.00501
3.29374
1.55609
1.4418
3.13038
3.19696
1.51208
1.48256
1.11
4.78222
1.78214
0.584963
0.0347324
0.172355
0.228787
0.0145262
0.000709404
0.00223591
0.00257695
0.000289837
1.26698e-05
3.57525e-05
3.93106e-05
5.88171e-06
-2.70738e-21
7.78646e-07
5.92855e-07
-1.37201e-21
0
-4.20101e-22
0
0
0
0
0
0
0
0
0
0
0
0
0
0
0
0
0
0
0
0
0
0
0
0
0
0
0
0
0
0
0
0
0
0
0
0
0
0
0.00046074
0.00352124
0.00439447
0.000189205
0.00875959
0.0946937
0.0897685
0.00595325
0.159152
1.80537
0.959284
0.117651
1.30289
1.55609
1.03308
0.849503
1.50652
1.51208
1.01079
0.99855
0.599347
1.78214
1.11924
0.409563
0.0171273
0.228787
0.326144
0.0108262
0.000349452
0.00257695
0.00288067
0.000217864
6.42935e-06
3.93106e-05
4.37543e-05
4.09756e-06
-1.17494e-21
5.92855e-07
3.87114e-07
-1.22923e-21
0
0
0
0
0
0
0
0
0
0
0
0
0
0
0
0
0
0
0
0
0
0
0
0
0
0
0
0
0
0
0
0
0
0
0
0
0
0
0
0
2.25326e-05
0.0013565
0.000189205
0
0.000565142
0.0194575
0.00595325
0.000297223
0.00994573
0.304552
0.117651
0.00654796
0.1725
1.4418
0.849503
0.115345
0.848987
1.48256
0.99855
0.574625
0.0419936
0.584963
0.409563
0.0292555
0.000908978
0.0145262
0.0108262
0.000626584
2.07541e-05
0.000289837
0.000217864
1.42611e-05
4.74987e-07
5.88171e-06
4.09756e-06
-3.61861e-21
0
-1.37201e-21
-1.22923e-21
0
0
0
0
0
0
0
0
0
0
0
0
0
0
0
0
0
0
0
0
0
0
0
0
0
0
0
0
0
0
0
0
0
0
0
0
0
0
0
0
0
)
;

boundaryField
{
    inlet
    {
        type            zeroGradient;
    }
    outlet
    {
        type            zeroGradient;
    }
    walls
    {
        type            zeroGradient;
    }
}


// ************************************************************************* //
