/*--------------------------------*- C++ -*----------------------------------*\
| =========                 |                                                 |
| \\      /  F ield         | OpenFOAM: The Open Source CFD Toolbox           |
|  \\    /   O peration     | Version:  5.x                                   |
|   \\  /    A nd           | Web:      www.OpenFOAM.org                      |
|    \\/     M anipulation  |                                                 |
\*---------------------------------------------------------------------------*/
FoamFile
{
    version     2.0;
    format      ascii;
    class       volScalarField;
    location    "0.11";
    object      p;
}
// * * * * * * * * * * * * * * * * * * * * * * * * * * * * * * * * * * * * * //

dimensions      [0 2 -2 0 0 0 0];

internalField   nonuniform List<scalar> 
320
(
-5.00527e-08
7.23559e-08
-3.04988e-08
-1.04305e-07
-2.89607e-07
1.52388e-07
-1.96799e-07
-4.83458e-07
-7.49355e-07
8.99205e-07
-2.79449e-07
-1.19648e-06
-3.2033e-06
-7.09737e-07
-2.3047e-06
-3.66175e-06
-8.53725e-06
-6.22815e-06
-7.80679e-06
-8.03796e-06
-1.51296e-05
-1.71034e-05
-1.58804e-05
-1.39026e-05
-1.72678e-05
-1.96707e-05
-1.79038e-05
-1.68683e-05
-1.79948e-05
-1.9107e-05
-1.81346e-05
-1.79625e-05
-1.8551e-05
-1.92256e-05
-1.85913e-05
-1.86121e-05
-1.9147e-05
-1.9673e-05
-1.92675e-05
-1.92068e-05
-1.95027e-05
-1.9845e-05
-1.96347e-05
-1.95496e-05
-1.96248e-05
-1.9812e-05
-1.9673e-05
-1.96568e-05
-1.97684e-05
-1.98608e-05
-1.98059e-05
-1.97912e-05
-1.97395e-05
-1.97851e-05
-1.97484e-05
-1.97492e-05
-1.98382e-05
-1.98623e-05
-1.98478e-05
-1.98456e-05
-1.97743e-05
-1.97846e-05
-1.97753e-05
-1.97768e-05
-1.98447e-05
-1.98508e-05
-1.98471e-05
-1.98469e-05
-1.97942e-05
-1.97968e-05
-1.97937e-05
-1.97947e-05
-1.9833e-05
-1.98347e-05
-1.98344e-05
-1.98338e-05
-1.98109e-05
-1.98134e-05
-1.98123e-05
-1.98112e-05
7.23559e-08
3.03589e-07
1.36313e-07
2.11736e-08
1.52388e-07
1.23759e-06
4.7084e-07
-1.37048e-07
8.99205e-07
4.52994e-06
2.08487e-06
1.12074e-07
-7.09737e-07
1.07635e-05
4.26517e-06
-1.85352e-06
-6.22815e-06
3.74978e-06
-3.34168e-06
-5.78961e-06
-1.71034e-05
-2.79031e-05
-2.20266e-05
-1.47967e-05
-1.96707e-05
-3.007e-05
-2.2816e-05
-1.90636e-05
-1.9107e-05
-2.16335e-05
-1.92208e-05
-1.91362e-05
-1.92256e-05
-2.0502e-05
-1.92667e-05
-1.92506e-05
-1.9673e-05
-2.02717e-05
-1.96225e-05
-1.96806e-05
-1.9845e-05
-2.01453e-05
-1.98193e-05
-1.98597e-05
-1.9812e-05
-2.00269e-05
-1.98228e-05
-1.98448e-05
-1.98608e-05
-1.99529e-05
-1.98736e-05
-1.98794e-05
-1.97851e-05
-1.98392e-05
-1.97856e-05
-1.97954e-05
-1.98623e-05
-1.98864e-05
-1.98676e-05
-1.98694e-05
-1.97846e-05
-1.97967e-05
-1.97836e-05
-1.97859e-05
-1.98508e-05
-1.98565e-05
-1.98526e-05
-1.98537e-05
-1.97968e-05
-1.97996e-05
-1.97962e-05
-1.97964e-05
-1.98347e-05
-1.98362e-05
-1.98358e-05
-1.98359e-05
-1.98134e-05
-1.9816e-05
-1.98147e-05
-1.98134e-05
-3.04988e-08
1.36313e-07
5.57737e-08
-8.23017e-08
-1.96799e-07
4.7084e-07
-6.80814e-08
-4.06322e-07
-2.79449e-07
2.08487e-06
8.94826e-07
-7.4911e-07
-2.3047e-06
4.26517e-06
1.48242e-06
-2.82767e-06
-7.80679e-06
-3.34168e-06
-5.51829e-06
-7.27683e-06
-1.58804e-05
-2.20266e-05
-1.96785e-05
-1.44622e-05
-1.79038e-05
-2.2816e-05
-2.04761e-05
-1.73602e-05
-1.81346e-05
-1.92208e-05
-1.81877e-05
-1.80987e-05
-1.85913e-05
-1.92667e-05
-1.8635e-05
-1.86186e-05
-1.92675e-05
-1.96225e-05
-1.92852e-05
-1.92905e-05
-1.96347e-05
-1.98193e-05
-1.96716e-05
-1.96701e-05
-1.9673e-05
-1.98228e-05
-1.96924e-05
-1.9697e-05
-1.98059e-05
-1.98736e-05
-1.98305e-05
-1.98213e-05
-1.97484e-05
-1.97856e-05
-1.97476e-05
-1.97554e-05
-1.98478e-05
-1.98676e-05
-1.98571e-05
-1.98535e-05
-1.97753e-05
-1.97836e-05
-1.97729e-05
-1.97771e-05
-1.98471e-05
-1.98526e-05
-1.98507e-05
-1.98493e-05
-1.97937e-05
-1.97962e-05
-1.9793e-05
-1.97947e-05
-1.98344e-05
-1.98358e-05
-1.98353e-05
-1.98344e-05
-1.98123e-05
-1.98147e-05
-1.98138e-05
-1.98127e-05
-1.04305e-07
2.11736e-08
-8.23017e-08
-1.52072e-07
-4.83458e-07
-1.37048e-07
-4.06322e-07
-6.33792e-07
-1.19648e-06
1.12074e-07
-7.4911e-07
-1.48073e-06
-3.66175e-06
-1.85352e-06
-2.82767e-06
-3.8763e-06
-8.03796e-06
-5.78961e-06
-7.27683e-06
-7.781e-06
-1.39026e-05
-1.47967e-05
-1.44622e-05
-1.32035e-05
-1.68683e-05
-1.90636e-05
-1.73602e-05
-1.64682e-05
-1.79625e-05
-1.91362e-05
-1.80987e-05
-1.78387e-05
-1.86121e-05
-1.92506e-05
-1.86186e-05
-1.85979e-05
-1.92068e-05
-1.96806e-05
-1.92905e-05
-1.92177e-05
-1.95496e-05
-1.98597e-05
-1.96701e-05
-1.95755e-05
-1.96568e-05
-1.98448e-05
-1.9697e-05
-1.96737e-05
-1.97912e-05
-1.98794e-05
-1.98213e-05
-1.98043e-05
-1.97492e-05
-1.97954e-05
-1.97554e-05
-1.97554e-05
-1.98456e-05
-1.98694e-05
-1.98535e-05
-1.98504e-05
-1.97768e-05
-1.97859e-05
-1.97771e-05
-1.97779e-05
-1.98469e-05
-1.98537e-05
-1.98493e-05
-1.98488e-05
-1.97947e-05
-1.97964e-05
-1.97947e-05
-1.97948e-05
-1.98338e-05
-1.98359e-05
-1.98344e-05
-1.98342e-05
-1.98112e-05
-1.98134e-05
-1.98127e-05
-1.98113e-05
)
;

boundaryField
{
    inlet
    {
        type            zeroGradient;
    }
    outlet
    {
        type            totalPressure;
        rho             rho;
        psi             none;
        gamma           1;
        p0              uniform 0;
        value           nonuniform List<scalar> 
16
(
-5.24103e-13
0
-5.71271e-13
-1.40968e-12
0
0
0
-5.83063e-14
-5.71271e-13
0
-5.97018e-13
-1.37976e-12
-1.40968e-12
-5.83063e-14
-1.37976e-12
-2.63574e-12
)
;
    }
    walls
    {
        type            zeroGradient;
    }
}


// ************************************************************************* //
