/*--------------------------------*- C++ -*----------------------------------*\
| =========                 |                                                 |
| \\      /  F ield         | OpenFOAM: The Open Source CFD Toolbox           |
|  \\    /   O peration     | Version:  5.x                                   |
|   \\  /    A nd           | Web:      www.OpenFOAM.org                      |
|    \\/     M anipulation  |                                                 |
\*---------------------------------------------------------------------------*/
FoamFile
{
    version     2.0;
    format      ascii;
    class       surfaceScalarField;
    location    "0.11";
    object      phi;
}
// * * * * * * * * * * * * * * * * * * * * * * * * * * * * * * * * * * * * * //

dimensions      [0 3 -1 0 0 0 0];

internalField   nonuniform List<scalar> 
784
(
-1.96116e-12
9.02021e-12
-1.96116e-12
2.5687e-12
-8.2573e-12
-3.70248e-12
2.81333e-12
6.6352e-12
-2.72319e-12
1.45616e-11
-1.91254e-12
-7.56376e-12
2.41477e-11
-7.56376e-12
8.79548e-12
-8.91868e-12
-1.56979e-11
9.66946e-12
1.63546e-11
-1.05934e-11
3.06811e-11
-6.45004e-12
-2.29568e-11
7.00612e-11
-2.29568e-11
2.13534e-11
-2.73683e-12
-5.04921e-11
2.4475e-11
4.94007e-11
-3.61677e-11
7.49505e-11
-1.97944e-11
-4.0185e-11
1.50431e-10
-4.0185e-11
3.22363e-11
6.27415e-11
-1.379e-10
4.36262e-11
1.19366e-10
-8.13554e-11
1.53866e-10
-3.52893e-11
-1.05032e-10
3.60494e-10
-1.05032e-10
6.83829e-11
3.25351e-10
-4.36024e-10
1.04581e-10
3.49932e-10
-2.66765e-10
3.50147e-10
-9.16999e-11
-8.41115e-11
5.28717e-10
-8.41115e-11
5.51942e-11
5.11644e-10
-3.25599e-10
9.2309e-11
5.16155e-10
-2.03337e-10
5.19911e-10
-7.7455e-11
-1.60611e-11
5.60839e-10
-1.60611e-11
7.89593e-12
4.59345e-10
2.83414e-11
2.67468e-11
5.09804e-10
-1.24998e-11
5.6202e-10
-1.53618e-11
2.88976e-11
5.03044e-10
2.88976e-11
-2.30267e-11
3.65207e-10
1.46063e-10
-2.44485e-11
4.45103e-10
6.61228e-11
5.13393e-10
2.41789e-11
4.36587e-11
4.15727e-10
4.36587e-11
-6.10421e-11
2.78581e-10
1.91327e-10
-5.09974e-11
3.83614e-10
5.14437e-11
4.30215e-10
3.21803e-11
8.19698e-11
2.51787e-10
8.19698e-11
-6.12362e-11
1.41324e-10
2.80463e-10
-9.30523e-11
2.3097e-10
1.8446e-10
2.64128e-10
7.30343e-11
7.26542e-11
1.06479e-10
7.26542e-11
-2.79733e-11
2.94248e-11
2.12527e-10
-7.88813e-11
7.78019e-11
2.04077e-10
1.13552e-10
7.16953e-11
2.58535e-11
5.47719e-11
2.58535e-11
-1.78138e-11
7.76821e-12
6.5324e-11
-2.96279e-11
3.3054e-11
5.65619e-11
5.92929e-11
2.46309e-11
1.75521e-11
1.96677e-11
1.75521e-11
-7.84318e-12
-2.89942e-13
3.34534e-11
-1.97174e-11
1.16074e-11
3.33209e-11
2.22889e-11
1.72866e-11
4.68968e-12
1.02883e-11
4.68968e-12
-4.18901e-12
-1.72251e-12
1.03113e-11
-5.93149e-12
4.5297e-12
8.82018e-12
1.1915e-11
4.44238e-12
3.55732e-12
3.1737e-12
3.55732e-12
-2.03427e-12
-8.77316e-13
4.7464e-12
-4.35823e-12
1.8474e-12
5.00624e-12
4.0037e-12
3.55306e-12
7.02075e-13
1.76954e-12
7.02075e-13
-1.01125e-12
-7.93861e-13
1.62986e-12
-1.0618e-12
5.31836e-13
1.36611e-12
2.35011e-12
5.9179e-13
6.68719e-13
4.32094e-13
6.68719e-13
-4.81372e-13
-3.05023e-13
6.61244e-13
-9.87253e-13
3.07524e-13
7.30188e-13
6.5664e-13
7.06217e-13
1.0385e-13
2.24388e-13
1.0385e-13
-2.58419e-13
-2.07844e-13
2.65086e-13
-1.86395e-13
2.92376e-14
2.06261e-13
4.12352e-13
5.78947e-14
1.25129e-13
-2.5873e-14
1.25129e-13
-1.20413e-13
-7.52062e-14
1.1291e-13
-2.4896e-13
3.33191e-14
1.24473e-13
2.30158e-14
1.40381e-13
-1.29339e-14
-1.29339e-14
-8.30301e-14
-5.09695e-15
-3.75568e-14
-1.21461e-14
-1.45398e-14
-3.70248e-12
-8.2573e-12
2.5687e-12
3.81492e-12
-4.44029e-11
3.81492e-12
4.35728e-12
-1.71005e-11
2.61482e-12
2.52991e-14
2.39171e-12
-1.56979e-11
-8.91868e-12
8.79548e-12
1.50435e-11
-1.05886e-10
1.50435e-11
1.80942e-11
-4.13762e-11
1.06316e-11
4.49073e-12
7.17868e-12
-5.04921e-11
-2.73683e-12
2.13534e-11
3.94974e-11
-2.85865e-10
3.94974e-11
5.27107e-11
-1.12713e-10
2.1956e-11
2.04662e-11
1.69407e-11
-1.379e-10
6.27415e-11
3.22363e-11
9.01966e-11
-7.42057e-10
9.01966e-11
1.24133e-10
-2.75877e-10
4.78726e-11
8.22989e-11
2.70107e-11
-4.36024e-10
3.25351e-10
6.83829e-11
2.4049e-10
-2.09509e-09
2.4049e-10
4.16434e-10
-8.18915e-10
1.00328e-10
3.53825e-10
5.32088e-11
-3.25599e-10
5.11644e-10
5.51942e-11
1.90394e-10
-3.12707e-09
1.90394e-10
3.59877e-10
-1.27242e-09
8.06896e-11
5.90392e-10
4.58539e-11
2.83414e-11
4.59345e-10
7.89593e-12
1.33532e-13
-3.07065e-09
1.33532e-13
1.08144e-11
-1.30247e-09
6.86194e-12
5.79911e-10
5.93371e-12
1.46063e-10
3.65207e-10
-2.30267e-11
-8.00476e-11
-2.61843e-09
-8.00476e-11
-1.18466e-10
-1.16247e-09
-3.54573e-11
5.05758e-10
-2.01335e-11
1.91327e-10
2.78581e-10
-6.10421e-11
-1.78741e-10
-1.8783e-09
-1.78741e-10
-2.07355e-10
-9.58264e-10
-1.24147e-10
3.86371e-10
-5.57876e-11
2.80463e-10
1.41324e-10
-6.12362e-11
-1.80801e-10
-9.55771e-10
-1.80801e-10
-3.1472e-10
-5.5033e-10
-8.95544e-11
1.93853e-10
-4.91686e-11
2.12527e-10
2.94248e-11
-2.79733e-11
-7.95134e-11
-3.7169e-10
-7.95134e-11
-2.28158e-10
-1.96312e-10
-1.29749e-12
5.46557e-11
-1.72648e-11
6.5324e-11
7.76821e-12
-1.78138e-11
-3.92965e-11
-1.62449e-10
-3.92965e-11
-7.37227e-11
-9.03594e-11
-1.49644e-11
2.01868e-11
-1.46229e-11
3.34534e-11
-2.89942e-13
-7.84318e-12
-1.60982e-11
-6.3346e-11
-1.60982e-11
-3.79358e-11
-3.18164e-11
-3.38455e-12
5.45399e-12
-5.91647e-12
1.03113e-11
-1.72251e-12
-4.18901e-12
-7.86586e-12
-2.69917e-11
-7.86586e-12
-1.23315e-11
-1.45989e-11
-3.9317e-12
1.34289e-12
-3.77802e-12
4.7464e-12
-8.77316e-13
-2.03427e-12
-3.09138e-12
-1.13162e-11
-3.09138e-12
-5.96333e-12
-5.33029e-12
-1.39038e-12
7.24583e-13
-1.79196e-12
1.62986e-12
-7.93861e-13
-1.01125e-12
-1.75746e-12
-4.54158e-12
-1.75746e-12
-2.28782e-12
-2.42867e-12
-1.00515e-12
-1.20795e-13
-8.50654e-13
6.61244e-13
-3.05023e-13
-4.81372e-13
-5.62966e-13
-2.09317e-12
-5.62966e-13
-9.51981e-13
-8.90034e-13
-4.19435e-13
1.58941e-13
-5.255e-13
2.65086e-13
-2.07844e-13
-2.58419e-13
-4.27721e-13
-7.07556e-13
-4.27721e-13
-4.60381e-13
-3.7639e-13
-2.74719e-13
-5.45254e-14
-1.89017e-13
1.1291e-13
-7.52062e-14
-1.20413e-13
-1.27071e-13
-2.27579e-13
-1.27071e-13
-2.23162e-13
-2.51646e-14
-1.30653e-13
1.57523e-14
-1.53058e-13
-5.09695e-15
-8.30301e-14
-1.18881e-13
-1.18881e-13
-7.3065e-14
-8.31249e-14
-7.1857e-14
-2.72319e-12
6.6352e-12
2.81333e-12
2.61482e-12
-1.71005e-11
4.35728e-12
3.86556e-12
-1.17375e-12
3.86556e-12
1.27765e-11
2.64474e-12
-1.05934e-11
1.63546e-11
9.66946e-12
1.06316e-11
-4.13762e-11
1.80942e-11
1.1861e-11
-3.63247e-12
1.1861e-11
2.34091e-11
8.40703e-12
-3.61677e-11
4.94007e-11
2.4475e-11
2.1956e-11
-1.12713e-10
5.27107e-11
4.04561e-11
-4.06326e-11
4.04561e-11
5.89253e-11
2.18806e-11
-8.13554e-11
1.19366e-10
4.36262e-11
4.78726e-11
-2.75877e-10
1.24133e-10
7.81991e-11
-1.01286e-10
7.81991e-11
1.2537e-10
3.87656e-11
-2.66765e-10
3.49932e-10
1.04581e-10
1.00328e-10
-8.18915e-10
4.16434e-10
2.67685e-10
-4.35999e-10
2.67685e-10
3.53767e-10
9.24962e-11
-2.03337e-10
5.16155e-10
9.2309e-11
8.06896e-11
-1.27242e-09
3.59877e-10
2.21834e-10
-7.18287e-10
2.21834e-10
5.38767e-10
8.26879e-11
-1.24998e-11
5.09804e-10
2.67468e-11
6.86194e-12
-1.30247e-09
1.08144e-11
2.34587e-11
-7.51481e-10
2.34587e-11
5.44818e-10
2.3341e-11
6.61228e-11
4.45103e-10
-2.44485e-11
-3.54573e-11
-1.16247e-09
-1.18466e-10
-5.91128e-11
-7.0417e-10
-5.91128e-11
4.8734e-10
-2.1768e-11
5.14437e-11
3.83614e-10
-5.09974e-11
-1.24147e-10
-9.58264e-10
-2.07355e-10
-7.86198e-11
-7.95224e-10
-7.86198e-11
3.93737e-10
-4.08047e-11
1.8446e-10
2.3097e-10
-9.30523e-11
-8.95544e-11
-5.5033e-10
-3.1472e-10
-2.03693e-10
-5.66948e-10
-2.03693e-10
2.22213e-10
-8.13365e-11
2.04077e-10
7.78019e-11
-7.88813e-11
-1.29749e-12
-1.96312e-10
-2.28158e-10
-1.98073e-10
-1.73398e-10
-1.98073e-10
8.12522e-11
-7.43772e-11
5.65619e-11
3.3054e-11
-2.96279e-11
-1.49644e-11
-9.03594e-11
-7.37227e-11
-5.85035e-11
-8.63193e-11
-5.85035e-11
3.56002e-11
-2.74744e-11
3.33209e-11
1.16074e-11
-1.97174e-11
-3.38455e-12
-3.18164e-11
-3.79358e-11
-3.45227e-11
-2.40429e-11
-3.45227e-11
1.42166e-11
-1.90556e-11
8.82018e-12
4.5297e-12
-5.93149e-12
-3.9317e-12
-1.45989e-11
-1.23315e-11
-9.89912e-12
-1.2108e-11
-9.89912e-12
6.15602e-12
-5.6166e-12
5.00624e-12
1.8474e-12
-4.35823e-12
-1.39038e-12
-5.33029e-12
-5.96333e-12
-5.93108e-12
-3.02663e-12
-5.93108e-12
2.77921e-12
-4.34623e-12
1.36611e-12
5.31836e-13
-1.0618e-12
-1.00515e-12
-2.42867e-12
-2.28782e-12
-1.68504e-12
-1.66684e-12
-1.68504e-12
1.20744e-12
-9.63924e-13
7.30188e-13
3.07524e-13
-9.87253e-13
-4.19435e-13
-8.90034e-13
-9.51981e-13
-1.14036e-12
-2.24997e-13
-1.14036e-12
5.62907e-13
-1.02132e-12
2.06261e-13
2.92376e-14
-1.86395e-13
-2.74719e-13
-3.7639e-13
-4.60381e-13
-2.84628e-13
-2.05177e-13
-2.84628e-13
2.4124e-13
-1.51979e-13
1.24473e-13
3.33191e-14
-2.4896e-13
-1.30653e-13
-2.51646e-14
-2.23162e-13
-2.69771e-13
7.30593e-14
-2.69771e-13
8.22295e-14
-2.63825e-13
-1.21461e-14
-3.75568e-14
-8.31249e-14
-7.3065e-14
-4.65984e-14
-4.65984e-14
-3.62327e-14
-1.91254e-12
1.45616e-11
2.39171e-12
2.52991e-14
2.64474e-12
1.27765e-11
1.92763e-11
-6.45004e-12
3.06811e-11
7.17868e-12
4.49073e-12
8.40703e-12
2.34091e-11
3.60903e-11
-1.97944e-11
7.49505e-11
1.69407e-11
2.04662e-11
2.18806e-11
5.89253e-11
7.98515e-11
-3.52893e-11
1.53866e-10
2.70107e-11
8.22989e-11
3.87656e-11
1.2537e-10
1.57383e-10
-9.16999e-11
3.50147e-10
5.32088e-11
3.53825e-10
9.24962e-11
3.53767e-10
3.42375e-10
-7.7455e-11
5.19911e-10
4.58539e-11
5.90392e-10
8.26879e-11
5.38767e-10
5.07751e-10
-1.53618e-11
5.6202e-10
5.93371e-12
5.79911e-10
2.3341e-11
5.44818e-10
5.54433e-10
2.41789e-11
5.13393e-10
-2.01335e-11
5.05758e-10
-2.1768e-11
4.8734e-10
5.10897e-10
3.21803e-11
4.30215e-10
-5.57876e-11
3.86371e-10
-4.08047e-11
3.93737e-10
4.29288e-10
7.30343e-11
2.64128e-10
-4.91686e-11
1.93853e-10
-8.13365e-11
2.22213e-10
2.66615e-10
7.16953e-11
1.13552e-10
-1.72648e-11
5.46557e-11
-7.43772e-11
8.12522e-11
1.1786e-10
2.46309e-11
5.92929e-11
-1.46229e-11
2.01868e-11
-2.74744e-11
3.56002e-11
6.29114e-11
1.72866e-11
2.22889e-11
-5.91647e-12
5.45399e-12
-1.90556e-11
1.42166e-11
2.48002e-11
4.44238e-12
1.1915e-11
-3.77802e-12
1.34289e-12
-5.6166e-12
6.15602e-12
1.3567e-11
3.55306e-12
4.0037e-12
-1.79196e-12
7.24583e-13
-4.34623e-12
2.77921e-12
4.87458e-12
5.9179e-13
2.35011e-12
-8.50654e-13
-1.20795e-13
-9.63924e-13
1.20744e-12
2.94674e-12
7.06217e-13
6.5664e-13
-5.255e-13
1.58941e-13
-1.02132e-12
5.62907e-13
9.04085e-13
5.78947e-14
4.12352e-13
-1.89017e-13
-5.45254e-14
-1.51979e-13
2.4124e-13
6.00122e-13
1.40381e-13
2.30158e-14
-1.53058e-13
1.57523e-14
-2.63825e-13
8.22295e-14
7.24659e-14
-1.45398e-14
-7.1857e-14
-3.62327e-14
)
;

boundaryField
{
    inlet
    {
        type            calculated;
        value           uniform 0;
    }
    outlet
    {
        type            calculated;
        value           nonuniform List<scalar> 
16
(
-5.09789e-12
7.42991e-12
-4.15664e-12
-9.83569e-12
7.42991e-12
2.93681e-11
1.12202e-11
2.77308e-14
-4.15664e-12
1.12202e-11
-1.32774e-12
-9.16395e-12
-9.83569e-12
2.77308e-14
-9.16395e-12
-1.39868e-11
)
;
    }
    walls
    {
        type            calculated;
        value           nonuniform List<scalar> 
320
(
2.82315e-28
2.33075e-25
1.55971e-22
9.792e-20
1.22996e-17
1.56262e-20
4.74062e-24
1.31568e-27
3.56251e-31
0
0
0
0
0
0
0
0
0
0
0
3.28598e-26
4.36744e-23
5.21892e-20
2.13675e-17
8.17298e-16
7.84385e-18
3.27854e-21
8.94437e-25
2.13377e-28
-6.08901e-46
0
0
0
0
0
0
0
0
0
0
1.99921e-26
2.22268e-23
2.25319e-20
9.14721e-18
3.93466e-16
4.2356e-18
1.63791e-21
4.52138e-25
1.12533e-28
-2.78089e-46
0
0
0
0
0
0
0
0
0
0
2.78926e-29
4.03803e-26
3.91537e-23
3.32751e-20
6.03187e-18
8.07331e-21
3.54662e-24
1.46087e-27
5.65462e-31
0
0
0
0
0
0
0
0
0
0
0
-2.78926e-29
-4.03803e-26
-3.91537e-23
-3.32751e-20
-6.03187e-18
-8.07331e-21
-3.54662e-24
-1.46087e-27
-5.65462e-31
0
0
0
0
0
0
0
0
0
0
0
-2.45856e-26
-2.5511e-23
-2.93197e-20
-1.01894e-17
-3.87279e-16
-4.10828e-18
-2.05719e-21
-7.3566e-25
-2.50831e-28
9.43517e-46
0
0
0
0
0
0
0
0
0
0
-3.29965e-27
-7.60731e-24
-1.11815e-20
-6.00444e-18
-2.6086e-16
-2.91409e-18
-1.57329e-21
-5.74663e-25
-1.83877e-28
9.0054e-46
0
0
0
0
0
0
0
0
0
0
0
-1.06755e-26
-1.72635e-23
-2.23222e-20
-4.08386e-18
-8.49237e-21
-4.95315e-24
-2.55814e-27
1.32554e-44
0
0
0
0
0
0
0
0
0
0
0
2.82315e-28
2.33075e-25
1.55971e-22
9.792e-20
1.22996e-17
1.56262e-20
4.74062e-24
1.31568e-27
3.56251e-31
0
0
0
0
0
0
0
0
0
0
0
3.28598e-26
4.36744e-23
5.21892e-20
2.13675e-17
8.17298e-16
7.84385e-18
3.27854e-21
8.94437e-25
2.13377e-28
-6.08901e-46
0
0
0
0
0
0
0
0
0
0
1.99921e-26
2.22268e-23
2.25319e-20
9.14721e-18
3.93466e-16
4.2356e-18
1.63791e-21
4.52138e-25
1.12533e-28
-2.78089e-46
0
0
0
0
0
0
0
0
0
0
2.78926e-29
4.03803e-26
3.91537e-23
3.32751e-20
6.03187e-18
8.07331e-21
3.54662e-24
1.46087e-27
5.65462e-31
0
0
0
0
0
0
0
0
0
0
0
-2.78926e-29
-4.03803e-26
-3.91537e-23
-3.32751e-20
-6.03187e-18
-8.07331e-21
-3.54662e-24
-1.46087e-27
-5.65462e-31
0
0
0
0
0
0
0
0
0
0
0
-2.45856e-26
-2.5511e-23
-2.93197e-20
-1.01894e-17
-3.87279e-16
-4.10828e-18
-2.05719e-21
-7.3566e-25
-2.50831e-28
9.43517e-46
0
0
0
0
0
0
0
0
0
0
-3.29965e-27
-7.60731e-24
-1.11815e-20
-6.00444e-18
-2.6086e-16
-2.91409e-18
-1.57329e-21
-5.74663e-25
-1.83877e-28
9.0054e-46
0
0
0
0
0
0
0
0
0
0
0
-1.06755e-26
-1.72635e-23
-2.23222e-20
-4.08386e-18
-8.49237e-21
-4.95315e-24
-2.55814e-27
1.32554e-44
0
0
0
0
0
0
0
0
0
0
0
)
;
    }
}


// ************************************************************************* //
