/*--------------------------------*- C++ -*----------------------------------*\
| =========                 |                                                 |
| \\      /  F ield         | OpenFOAM: The Open Source CFD Toolbox           |
|  \\    /   O peration     | Version:  5.x                                   |
|   \\  /    A nd           | Web:      www.OpenFOAM.org                      |
|    \\/     M anipulation  |                                                 |
\*---------------------------------------------------------------------------*/
FoamFile
{
    version     2.0;
    format      ascii;
    class       volVectorField;
    location    "0.11";
    object      U;
}
// * * * * * * * * * * * * * * * * * * * * * * * * * * * * * * * * * * * * * //

dimensions      [0 1 -1 0 0 0 0];

internalField   nonuniform List<vector> 
320
(
(-4.12889e-07 9.3093e-07 -4.12889e-07)
(-2.64339e-08 -1.14618e-06 -7.41427e-07)
(6.6548e-07 7.5597e-07 -5.22528e-07)
(2.32718e-07 1.73894e-06 -3.97202e-07)
(-1.55665e-06 2.12284e-06 -1.55665e-06)
(-1.62698e-07 -1.93239e-06 -2.99529e-06)
(2.34422e-06 1.34682e-06 -2.04556e-06)
(7.33631e-07 3.12141e-06 -1.31653e-06)
(-4.23192e-06 6.83977e-06 -4.23192e-06)
(-8.32709e-07 4.02848e-07 -9.0319e-06)
(5.82451e-06 5.13694e-06 -6.04234e-06)
(1.9249e-06 7.80211e-06 -3.60302e-06)
(-7.65828e-06 1.46646e-05 -7.65828e-06)
(-2.0952e-06 -1.33603e-06 -2.38166e-05)
(1.01557e-05 9.07241e-06 -1.37272e-05)
(3.35302e-06 1.57715e-05 -6.75285e-06)
(-1.95336e-05 3.77132e-05 -1.95336e-05)
(-6.91604e-06 2.47231e-05 -7.88997e-05)
(2.36989e-05 3.37854e-05 -4.451e-05)
(8.53792e-06 3.77301e-05 -1.64157e-05)
(-1.87863e-05 7.07003e-05 -1.87863e-05)
(-6.89699e-06 6.49648e-05 -7.42622e-05)
(2.33335e-05 6.74876e-05 -4.15979e-05)
(7.33412e-06 6.8799e-05 -1.63102e-05)
(-4.52865e-06 9.1002e-05 -4.52865e-06)
(-3.26366e-06 8.60951e-05 3.39609e-06)
(7.37621e-06 8.82934e-05 -3.25555e-06)
(1.82436e-06 8.98701e-05 -4.32019e-06)
(6.29707e-06 8.84146e-05 6.29707e-06)
(3.77083e-07 7.01397e-05 2.90427e-05)
(-5.6123e-06 7.87501e-05 1.33433e-05)
(-2.32548e-06 8.90572e-05 5.1289e-06)
(1.25079e-05 7.68152e-05 1.25079e-05)
(-9.83374e-07 5.29544e-05 4.80652e-05)
(-1.57681e-05 6.9687e-05 2.20352e-05)
(-1.62825e-06 7.89525e-05 1.05995e-05)
(1.7288e-05 5.77492e-05 1.7288e-05)
(6.17616e-06 3.65532e-05 6.06158e-05)
(-2.3578e-05 5.37868e-05 3.63315e-05)
(-7.06434e-06 6.01815e-05 1.50677e-05)
(1.22362e-05 2.41567e-05 1.22362e-05)
(9.00767e-06 9.4164e-06 3.85925e-05)
(-1.68889e-05 2.10047e-05 2.87229e-05)
(-8.05456e-06 2.57599e-05 1.10485e-05)
(4.99375e-06 1.11038e-05 4.99375e-06)
(2.37214e-06 5.91058e-07 1.31864e-05)
(-7.36723e-06 5.24861e-06 9.13967e-06)
(-2.4912e-06 1.18679e-05 4.50527e-06)
(3.06196e-06 5.61316e-06 3.06196e-06)
(2.04579e-06 1.57961e-06 6.30875e-06)
(-4.25444e-06 4.56909e-06 4.93305e-06)
(-2.08169e-06 6.23201e-06 2.81401e-06)
(9.38322e-07 1.28649e-06 9.38322e-07)
(3.71816e-07 -1.60205e-06 2.16854e-06)
(-1.53706e-06 -3.54531e-07 1.50206e-06)
(-4.66783e-07 1.5651e-06 8.55917e-07)
(6.50602e-07 1.57096e-06 6.50602e-07)
(3.71452e-07 8.68054e-07 9.40168e-07)
(-9.42838e-07 1.4995e-06 7.99307e-07)
(-4.76045e-07 1.76829e-06 6.20978e-07)
(1.62484e-07 -3.13146e-07 1.62484e-07)
(2.64619e-08 -1.02091e-06 3.70224e-07)
(-3.0654e-07 -7.17431e-07 2.55073e-07)
(-6.01714e-08 -2.11034e-07 1.27866e-07)
(1.25382e-07 7.11342e-07 1.25382e-07)
(6.36641e-08 6.52009e-07 1.37837e-07)
(-1.98287e-07 7.93644e-07 1.28141e-07)
(-1.16198e-07 7.66499e-07 1.33196e-07)
(3.09397e-08 -4.97913e-07 3.09397e-08)
(-5.02461e-09 -6.86024e-07 6.84302e-08)
(-6.50841e-08 -6.30333e-07 4.61943e-08)
(-2.12981e-09 -4.62771e-07 1.78688e-08)
(2.454e-08 5.23872e-07 2.454e-08)
(1.04531e-08 5.7506e-07 2.46031e-08)
(-4.59157e-08 6.08631e-07 2.51267e-08)
(-2.93092e-08 5.31745e-07 2.79899e-08)
(-1.24016e-08 -5.1577e-07 -1.24016e-08)
(5.94896e-09 -5.79615e-07 -1.01044e-08)
(-2.81681e-08 -5.8117e-07 -1.51386e-08)
(1.77205e-08 -5.07743e-07 -1.3379e-08)
(-7.41427e-07 -1.14618e-06 -2.64339e-08)
(-1.01013e-07 -5.07023e-06 -1.01013e-07)
(1.02624e-06 -1.88613e-06 -1.13979e-07)
(3.6311e-07 3.52954e-08 -2.99622e-08)
(-2.99529e-06 -1.93239e-06 -1.62698e-07)
(-5.23234e-07 -1.07305e-05 -5.23234e-07)
(4.11679e-06 -4.42221e-06 -3.40631e-07)
(1.48184e-06 -1.47498e-07 -1.74814e-07)
(-9.0319e-06 4.02848e-07 -8.32709e-07)
(-2.32884e-06 -2.15924e-05 -2.32884e-06)
(1.14874e-05 -7.05282e-06 -2.38161e-06)
(4.38624e-06 2.35269e-06 -8.71928e-07)
(-2.38166e-05 -1.33603e-06 -2.0952e-06)
(-7.52342e-06 -7.61729e-05 -7.52342e-06)
(2.79645e-05 -3.17556e-05 -5.29846e-06)
(1.03343e-05 2.92198e-06 -1.97742e-06)
(-7.88997e-05 2.47231e-05 -6.91604e-06)
(-3.07166e-05 -0.000125686 -3.07166e-05)
(8.86939e-05 -4.22274e-05 -2.47513e-05)
(3.65295e-05 2.82761e-05 -6.6702e-06)
(-7.42622e-05 6.49648e-05 -6.89699e-06)
(-2.79475e-05 -0.000590316 -2.79475e-05)
(8.62269e-05 -0.000249724 -2.29352e-05)
(3.22873e-05 7.32451e-05 -6.62304e-06)
(3.39609e-06 8.60951e-05 -3.26366e-06)
(-3.24036e-07 -0.00045427 -3.24036e-07)
(4.55713e-06 -0.000184966 -4.04757e-06)
(2.59316e-07 0.00010103 -3.07914e-06)
(2.90427e-05 7.01397e-05 3.77083e-07)
(7.96718e-06 -0.00044769 7.96718e-06)
(-2.70571e-05 -0.000195751 3.32633e-06)
(-1.06709e-05 9.18566e-05 2.71149e-07)
(4.80652e-05 5.29544e-05 -9.83374e-07)
(5.79778e-06 -0.000375339 5.79778e-06)
(-5.62651e-05 -0.000167887 -8.32287e-06)
(-1.24615e-05 7.6931e-05 -2.32544e-06)
(6.06158e-05 3.65532e-05 6.17616e-06)
(2.2967e-05 -0.000229925 2.2967e-05)
(-7.59788e-05 -0.000141159 1.89487e-05)
(-2.7725e-05 4.80016e-05 5.81925e-06)
(3.85925e-05 9.4164e-06 9.00767e-06)
(2.56758e-05 -7.96405e-05 2.56758e-05)
(-4.88893e-05 -3.69171e-05 3.37092e-05)
(-2.56663e-05 1.51172e-05 9.99974e-06)
(1.31864e-05 5.91058e-07 2.37214e-06)
(6.07292e-06 -4.16377e-05 6.07292e-06)
(-1.73736e-05 -2.60846e-05 7.70794e-06)
(-7.20156e-06 3.02702e-06 2.48727e-06)
(6.30875e-06 1.57961e-06 2.04579e-06)
(3.63646e-06 -1.10327e-05 3.63646e-06)
(-8.27541e-06 -3.88513e-06 5.1137e-06)
(-4.22335e-06 2.97785e-06 2.22121e-06)
(2.16854e-06 -1.60205e-06 3.71816e-07)
(8.06702e-07 -8.33453e-06 8.06702e-07)
(-3.03304e-06 -5.50675e-06 1.07344e-06)
(-1.13792e-06 -9.23308e-07 3.77246e-07)
(9.40168e-07 8.68054e-07 3.71452e-07)
(4.37796e-07 -1.02726e-06 4.37796e-07)
(-1.31657e-06 2.73361e-07 6.78742e-07)
(-6.62525e-07 1.18948e-06 3.99261e-07)
(3.70224e-07 -1.02091e-06 2.64619e-08)
(8.99133e-08 -2.13844e-06 8.99133e-08)
(-5.85883e-07 -1.65061e-06 1.34235e-07)
(-1.93707e-07 -8.38398e-07 3.07531e-08)
(1.37837e-07 6.52009e-07 6.36641e-08)
(4.89795e-08 4.08538e-07 4.89795e-08)
(-2.06544e-07 6.66761e-07 8.20635e-08)
(-1.14521e-07 7.45045e-07 6.47554e-08)
(6.84302e-08 -6.86024e-07 -5.02461e-09)
(4.2169e-09 -9.11538e-07 4.2169e-09)
(-1.25075e-07 -8.40151e-07 9.53952e-09)
(-3.18394e-08 -6.46455e-07 -3.44363e-09)
(2.46031e-08 5.7506e-07 1.04531e-08)
(6.84242e-09 6.03366e-07 6.84242e-09)
(-4.34417e-08 6.5877e-07 9.84892e-09)
(-2.73735e-08 5.97609e-07 1.0034e-08)
(-1.01044e-08 -5.79615e-07 5.94896e-09)
(6.97614e-09 -6.42847e-07 6.97614e-09)
(-3.97559e-08 -6.50648e-07 9.08724e-09)
(1.88668e-08 -5.75873e-07 6.51896e-09)
(-5.22528e-07 7.5597e-07 6.6548e-07)
(-1.13979e-07 -1.88613e-06 1.02624e-06)
(7.84226e-07 3.12796e-07 7.84226e-07)
(3.45387e-07 1.61852e-06 6.19755e-07)
(-2.04556e-06 1.34682e-06 2.34422e-06)
(-3.40631e-07 -4.42221e-06 4.11679e-06)
(2.85661e-06 -9.50386e-07 2.85661e-06)
(9.76462e-07 2.40271e-06 1.96326e-06)
(-6.04234e-06 5.13694e-06 5.82451e-06)
(-2.38161e-06 -7.05282e-06 1.14874e-05)
(7.66282e-06 2.35238e-07 7.66282e-06)
(3.60829e-06 6.36967e-06 4.87354e-06)
(-1.37272e-05 9.07241e-06 1.01557e-05)
(-5.29846e-06 -3.17556e-05 2.79645e-05)
(1.65459e-05 -1.39179e-05 1.65459e-05)
(6.9503e-06 1.07031e-05 8.80694e-06)
(-4.451e-05 3.37854e-05 2.36989e-05)
(-2.47513e-05 -4.22274e-05 8.86939e-05)
(4.96249e-05 -1.2805e-05 4.96249e-05)
(2.69114e-05 3.45925e-05 1.96232e-05)
(-4.15979e-05 6.74876e-05 2.33335e-05)
(-2.29352e-05 -0.000249724 8.62269e-05)
(4.77928e-05 -0.000147191 4.77928e-05)
(2.3779e-05 6.93448e-05 1.9737e-05)
(-3.25555e-06 8.82934e-05 7.37621e-06)
(-4.04757e-06 -0.000184966 4.55713e-06)
(7.6802e-06 -9.927e-05 7.6802e-06)
(2.64374e-06 9.26448e-05 6.34812e-06)
(1.33433e-05 7.87501e-05 -5.6123e-06)
(3.32633e-06 -0.000195751 -2.70571e-05)
(-1.1825e-05 -0.000118444 -1.1825e-05)
(-5.8759e-06 8.49502e-05 -4.76166e-06)
(2.20352e-05 6.9687e-05 -1.57681e-05)
(-8.32287e-06 -0.000167887 -5.62651e-05)
(-2.73548e-05 -0.000101059 -2.73548e-05)
(1.50131e-06 7.69284e-05 -1.29753e-05)
(3.63315e-05 5.37868e-05 -2.3578e-05)
(1.89487e-05 -0.000141159 -7.59788e-05)
(-4.51374e-05 -0.000155887 -4.51374e-05)
(-2.03744e-05 4.98992e-05 -1.96736e-05)
(2.87229e-05 2.10047e-05 -1.68889e-05)
(3.37092e-05 -3.69171e-05 -4.88893e-05)
(-3.39632e-05 -2.61474e-05 -3.39632e-05)
(-2.91782e-05 2.2061e-05 -1.47271e-05)
(9.13967e-06 5.24861e-06 -7.36723e-06)
(7.70794e-06 -2.60846e-05 -1.73736e-05)
(-1.18652e-05 -2.73364e-05 -1.18652e-05)
(-7.41499e-06 5.3557e-06 -6.51915e-06)
(4.93305e-06 4.56909e-06 -4.25444e-06)
(5.1137e-06 -3.88513e-06 -8.27541e-06)
(-6.02562e-06 -1.6674e-06 -6.02562e-06)
(-4.859e-06 5.24401e-06 -3.85378e-06)
(1.50206e-06 -3.54531e-07 -1.53706e-06)
(1.07344e-06 -5.50675e-06 -3.03304e-06)
(-2.16032e-06 -5.22259e-06 -2.16032e-06)
(-1.17529e-06 -1.32826e-07 -1.41539e-06)
(7.99307e-07 1.4995e-06 -9.42838e-07)
(6.78742e-07 2.73361e-07 -1.31657e-06)
(-1.06788e-06 7.97291e-07 -1.06788e-06)
(-7.89679e-07 1.74183e-06 -8.96932e-07)
(2.55073e-07 -7.17431e-07 -3.0654e-07)
(1.34235e-07 -1.65061e-06 -5.85883e-07)
(-4.10159e-07 -1.50359e-06 -4.10159e-07)
(-1.72518e-07 -6.15273e-07 -2.65614e-07)
(1.28141e-07 7.93644e-07 -1.98287e-07)
(8.20635e-08 6.66761e-07 -2.06544e-07)
(-2.02635e-07 7.92566e-07 -2.02635e-07)
(-1.4875e-07 8.57553e-07 -2.10557e-07)
(4.61943e-08 -6.30333e-07 -6.50841e-08)
(9.53952e-09 -8.40151e-07 -1.25075e-07)
(-8.39608e-08 -8.0648e-07 -8.39608e-08)
(-1.7931e-08 -5.89158e-07 -4.96833e-08)
(2.51267e-08 6.08631e-07 -4.59157e-08)
(9.84892e-09 6.5877e-07 -4.34417e-08)
(-4.82636e-08 6.94393e-07 -4.82636e-08)
(-3.37098e-08 6.17873e-07 -5.23945e-08)
(-1.51386e-08 -5.8117e-07 -2.81681e-08)
(9.08724e-09 -6.50648e-07 -3.97559e-08)
(-3.19403e-08 -6.52047e-07 -3.19403e-08)
(1.93576e-08 -5.70425e-07 -2.62606e-08)
(-3.97202e-07 1.73894e-06 2.32718e-07)
(-2.99622e-08 3.52954e-08 3.6311e-07)
(6.19755e-07 1.61852e-06 3.45387e-07)
(2.20472e-07 2.43272e-06 2.20472e-07)
(-1.31653e-06 3.12141e-06 7.33631e-07)
(-1.74814e-07 -1.47498e-07 1.48184e-06)
(1.96326e-06 2.40271e-06 9.76462e-07)
(6.63297e-07 3.92746e-06 6.63297e-07)
(-3.60302e-06 7.80211e-06 1.9249e-06)
(-8.71928e-07 2.35269e-06 4.38624e-06)
(4.87354e-06 6.36967e-06 3.60829e-06)
(1.79624e-06 8.67646e-06 1.79624e-06)
(-6.75285e-06 1.57715e-05 3.35302e-06)
(-1.97742e-06 2.92198e-06 1.03343e-05)
(8.80694e-06 1.07031e-05 6.9503e-06)
(3.1645e-06 1.67262e-05 3.1645e-06)
(-1.64157e-05 3.77301e-05 8.53792e-06)
(-6.6702e-06 2.82761e-05 3.65295e-05)
(1.96232e-05 3.45925e-05 2.69114e-05)
(8.16361e-06 3.77938e-05 8.16361e-06)
(-1.63102e-05 6.8799e-05 7.33412e-06)
(-6.62304e-06 7.32451e-05 3.22873e-05)
(1.9737e-05 6.93448e-05 2.3779e-05)
(7.33295e-06 6.70214e-05 7.33295e-06)
(-4.32019e-06 8.98701e-05 1.82436e-06)
(-3.07914e-06 0.00010103 2.59316e-07)
(6.34812e-06 9.26448e-05 2.64374e-06)
(2.08985e-06 8.79894e-05 2.08985e-06)
(5.1289e-06 8.90572e-05 -2.32548e-06)
(2.71149e-07 9.18566e-05 -1.06709e-05)
(-4.76166e-06 8.49502e-05 -5.8759e-06)
(-2.0024e-06 8.79415e-05 -2.0024e-06)
(1.05995e-05 7.89525e-05 -1.62825e-06)
(-2.32544e-06 7.6931e-05 -1.24615e-05)
(-1.29753e-05 7.69284e-05 1.50131e-06)
(-9.39519e-07 7.87557e-05 -9.39519e-07)
(1.50677e-05 6.01815e-05 -7.06434e-06)
(5.81925e-06 4.80016e-05 -2.7725e-05)
(-1.96736e-05 4.98992e-05 -2.03744e-05)
(-6.97108e-06 6.00203e-05 -6.97108e-06)
(1.10485e-05 2.57599e-05 -8.05456e-06)
(9.99974e-06 1.51172e-05 -2.56663e-05)
(-1.47271e-05 2.2061e-05 -2.91782e-05)
(-8.71649e-06 2.67077e-05 -8.71649e-06)
(4.50527e-06 1.18679e-05 -2.4912e-06)
(2.48727e-06 3.02702e-06 -7.20156e-06)
(-6.51915e-06 5.3557e-06 -7.41499e-06)
(-2.61707e-06 1.24002e-05 -2.61707e-06)
(2.81401e-06 6.23201e-06 -2.08169e-06)
(2.22121e-06 2.97785e-06 -4.22335e-06)
(-3.85378e-06 5.24401e-06 -4.859e-06)
(-2.2469e-06 6.8014e-06 -2.2469e-06)
(8.55917e-07 1.5651e-06 -4.66783e-07)
(3.77246e-07 -9.23308e-07 -1.13792e-06)
(-1.41539e-06 -1.32826e-07 -1.17529e-06)
(-4.88661e-07 1.84886e-06 -4.88661e-07)
(6.20978e-07 1.76829e-06 -4.76045e-07)
(3.99261e-07 1.18948e-06 -6.62525e-07)
(-8.96932e-07 1.74183e-06 -7.89679e-07)
(-5.11761e-07 1.97384e-06 -5.11761e-07)
(1.27866e-07 -2.11034e-07 -6.01714e-08)
(3.07531e-08 -8.38398e-07 -1.93707e-07)
(-2.65614e-07 -6.15273e-07 -1.72518e-07)
(-6.52972e-08 -1.05277e-07 -6.52972e-08)
(1.33196e-07 7.66499e-07 -1.16198e-07)
(6.47554e-08 7.45045e-07 -1.14521e-07)
(-2.10557e-07 8.57553e-07 -1.4875e-07)
(-1.23425e-07 8.24762e-07 -1.23425e-07)
(1.78688e-08 -4.62771e-07 -2.12981e-09)
(-3.44363e-09 -6.46455e-07 -3.18394e-08)
(-4.96833e-08 -5.89158e-07 -1.7931e-08)
(-2.55668e-09 -4.2422e-07 -2.55668e-09)
(2.79899e-08 5.31745e-07 -2.93092e-08)
(1.0034e-08 5.97609e-07 -2.73735e-08)
(-5.23945e-08 6.17873e-07 -3.37098e-08)
(-3.13477e-08 5.39481e-07 -3.13477e-08)
(-1.3379e-08 -5.07743e-07 1.77205e-08)
(6.51896e-09 -5.75873e-07 1.88668e-08)
(-2.62606e-08 -5.70425e-07 1.93576e-08)
(1.66947e-08 -4.96678e-07 1.66947e-08)
)
;

boundaryField
{
    inlet
    {
        type            fixedValue;
        value           uniform (0 0 0);
    }
    outlet
    {
        type            zeroGradient;
    }
    walls
    {
        type            fixedValue;
        value           uniform (0 0 0);
    }
}


// ************************************************************************* //
