/*--------------------------------*- C++ -*----------------------------------*\
| =========                 |                                                 |
| \\      /  F ield         | OpenFOAM: The Open Source CFD Toolbox           |
|  \\    /   O peration     | Version:  5.x                                   |
|   \\  /    A nd           | Web:      www.OpenFOAM.org                      |
|    \\/     M anipulation  |                                                 |
\*---------------------------------------------------------------------------*/
FoamFile
{
    version     2.0;
    format      ascii;
    class       volVectorField;
    location    "0.11";
    object      Us;
}
// * * * * * * * * * * * * * * * * * * * * * * * * * * * * * * * * * * * * * //

dimensions      [0 1 -1 0 0 0 0];

internalField   nonuniform List<vector> 
320
(
(-6.04742e-15 -2.51551e-11 -6.04742e-15)
(-7.3764e-14 -3.06831e-10 -7.3764e-14)
(-7.00924e-14 -2.91558e-10 -7.00924e-14)
(-2.00279e-15 -8.33086e-12 -2.00279e-15)
(-2.90574e-13 -1.20868e-09 -2.90574e-13)
(-4.26598e-12 -1.77449e-08 -4.26598e-12)
(-4.10535e-12 -1.70768e-08 -4.10535e-12)
(-1.15786e-13 -4.81628e-10 -1.15786e-13)
(-1.28051e-11 -5.32645e-08 -1.28051e-11)
(-2.35031e-10 -9.77644e-07 -2.35031e-10)
(-2.29061e-10 -9.52809e-07 -2.29061e-10)
(-6.37941e-12 -2.6536e-08 -6.37941e-12)
(-4.70225e-10 -1.95597e-06 -4.70225e-10)
(-1.15079e-08 -4.78688e-05 -1.15079e-08)
(-1.13605e-08 -4.72555e-05 -1.13605e-08)
(-3.12595e-10 -1.30028e-06 -3.12595e-10)
(-1.15132e-08 -4.78906e-05 -1.15132e-08)
(-4.22556e-07 -0.00175768 -4.22556e-07)
(-4.2263e-07 -0.00175799 -4.2263e-07)
(-1.15142e-08 -4.78948e-05 -1.15142e-08)
(-3.11496e-10 -1.29571e-06 -3.11496e-10)
(-1.14346e-08 -4.75639e-05 -1.14346e-08)
(-1.14347e-08 -4.75642e-05 -1.14347e-08)
(-3.11541e-10 -1.2959e-06 -3.11541e-10)
(-4.16046e-12 -1.7306e-08 -4.16046e-12)
(-1.52725e-10 -6.3528e-07 -1.52725e-10)
(-1.54725e-10 -6.436e-07 -1.54725e-10)
(-6.32274e-12 -2.63003e-08 -6.32274e-12)
(-5.55708e-14 -2.31154e-10 -5.55708e-14)
(-2.03993e-12 -8.48537e-09 -2.03993e-12)
(-2.09335e-12 -8.70757e-09 -2.09335e-12)
(-1.14065e-13 -4.74467e-10 -1.14065e-13)
(-7.42283e-16 -3.08762e-12 -7.42283e-16)
(-2.72483e-14 -1.13343e-10 -2.72483e-14)
(-2.83185e-14 -1.17795e-10 -2.83185e-14)
(-1.92916e-15 -8.02458e-12 -1.92916e-15)
(-9.91092e-18 -4.12258e-14 -9.91092e-18)
(-3.63883e-16 -1.51362e-12 -3.63883e-16)
(-3.82941e-16 -1.59289e-12 -3.82941e-16)
(-3.13123e-17 -1.30248e-13 -3.13123e-17)
(0 0 0)
(0 0 0)
(0 0 0)
(0 0 0)
(0 0 0)
(0 0 0)
(0 0 0)
(0 0 0)
(0 0 0)
(0 0 0)
(0 0 0)
(0 0 0)
(0 0 0)
(0 0 0)
(0 0 0)
(0 0 0)
(0 0 0)
(0 0 0)
(0 0 0)
(0 0 0)
(0 0 0)
(0 0 0)
(0 0 0)
(0 0 0)
(0 0 0)
(0 0 0)
(0 0 0)
(0 0 0)
(0 0 0)
(0 0 0)
(0 0 0)
(0 0 0)
(0 0 0)
(0 0 0)
(0 0 0)
(0 0 0)
(0 0 0)
(0 0 0)
(0 0 0)
(0 0 0)
(-7.3764e-14 -3.06831e-10 -7.3764e-14)
(-1.08046e-12 -4.49432e-09 -1.08046e-12)
(-1.03959e-12 -4.32429e-09 -1.03959e-12)
(-2.92773e-14 -1.21783e-10 -2.92773e-14)
(-4.26598e-12 -1.77449e-08 -4.26598e-12)
(-7.83258e-11 -3.25806e-07 -7.83258e-11)
(-7.63329e-11 -3.17517e-07 -7.63329e-11)
(-2.12128e-12 -8.82376e-09 -2.12128e-12)
(-2.35031e-10 -9.77644e-07 -2.35031e-10)
(-5.75342e-09 -2.39321e-05 -5.75342e-09)
(-5.67927e-09 -2.36237e-05 -5.67927e-09)
(-1.55764e-10 -6.47923e-07 -1.55764e-10)
(-1.15079e-08 -4.78688e-05 -1.15079e-08)
(-4.22474e-07 -0.00175734 -4.22474e-07)
(-4.22478e-07 -0.00175735 -4.22478e-07)
(-1.14357e-08 -4.75685e-05 -1.14357e-08)
(-4.22556e-07 -0.00175768 -4.22556e-07)
(-3.10061e-05 -0.128974 -3.10061e-05)
(-3.10061e-05 -0.128974 -3.10061e-05)
(-4.22708e-07 -0.00175831 -4.22708e-07)
(-1.14346e-08 -4.75639e-05 -1.14346e-08)
(-4.22625e-07 -0.00175796 -4.22625e-07)
(-4.22555e-07 -0.00175768 -4.22555e-07)
(-1.13636e-08 -4.72684e-05 -1.13636e-08)
(-1.52725e-10 -6.3528e-07 -1.52725e-10)
(-5.60883e-09 -2.33307e-05 -5.60883e-09)
(-5.68033e-09 -2.36281e-05 -5.68033e-09)
(-2.29129e-10 -9.53094e-07 -2.29129e-10)
(-2.03993e-12 -8.48537e-09 -2.03993e-12)
(-7.44372e-11 -3.09632e-07 -7.44372e-11)
(-7.63469e-11 -3.17575e-07 -7.63469e-11)
(-4.10661e-12 -1.7082e-08 -4.10661e-12)
(-2.72483e-14 -1.13343e-10 -2.72483e-14)
(-9.87893e-13 -4.10927e-09 -9.87893e-13)
(-1.02598e-12 -4.26772e-09 -1.02598e-12)
(-6.89985e-14 -2.87009e-10 -6.89985e-14)
(-3.63883e-16 -1.51362e-12 -3.63883e-16)
(-1.31085e-14 -5.45266e-11 -1.31085e-14)
(-1.3783e-14 -5.73324e-11 -1.3783e-14)
(-1.11264e-15 -4.62818e-12 -1.11264e-15)
(0 0 0)
(0 0 0)
(0 0 0)
(0 0 0)
(0 0 0)
(0 0 0)
(0 0 0)
(0 0 0)
(0 0 0)
(0 0 0)
(0 0 0)
(0 0 0)
(0 0 0)
(0 0 0)
(0 0 0)
(0 0 0)
(0 0 0)
(0 0 0)
(0 0 0)
(0 0 0)
(0 0 0)
(0 0 0)
(0 0 0)
(0 0 0)
(0 0 0)
(0 0 0)
(0 0 0)
(0 0 0)
(0 0 0)
(0 0 0)
(0 0 0)
(0 0 0)
(0 0 0)
(0 0 0)
(0 0 0)
(0 0 0)
(0 0 0)
(0 0 0)
(0 0 0)
(0 0 0)
(-7.00924e-14 -2.91558e-10 -7.00924e-14)
(-1.03959e-12 -4.32429e-09 -1.03959e-12)
(-1.00103e-12 -4.16391e-09 -1.00103e-12)
(-2.81711e-14 -1.17182e-10 -2.81711e-14)
(-4.10535e-12 -1.70768e-08 -4.10535e-12)
(-7.63329e-11 -3.17517e-07 -7.63329e-11)
(-7.44378e-11 -3.09634e-07 -7.44378e-11)
(-2.06745e-12 -8.59983e-09 -2.06745e-12)
(-2.29061e-10 -9.52809e-07 -2.29061e-10)
(-5.67927e-09 -2.36237e-05 -5.67927e-09)
(-5.60881e-09 -2.33306e-05 -5.60881e-09)
(-1.53768e-10 -6.3962e-07 -1.53768e-10)
(-1.13605e-08 -4.72555e-05 -1.13605e-08)
(-4.22478e-07 -0.00175735 -4.22478e-07)
(-4.22623e-07 -0.00175796 -4.22623e-07)
(-1.14368e-08 -4.75727e-05 -1.14368e-08)
(-4.2263e-07 -0.00175799 -4.2263e-07)
(-3.10061e-05 -0.128974 -3.10061e-05)
(-3.10061e-05 -0.128974 -3.10061e-05)
(-4.2271e-07 -0.00175832 -4.2271e-07)
(-1.14347e-08 -4.75642e-05 -1.14347e-08)
(-4.22555e-07 -0.00175768 -4.22555e-07)
(-4.22627e-07 -0.00175797 -4.22627e-07)
(-1.15122e-08 -4.78865e-05 -1.15122e-08)
(-1.54725e-10 -6.436e-07 -1.54725e-10)
(-5.68033e-09 -2.36281e-05 -5.68033e-09)
(-5.75553e-09 -2.39409e-05 -5.75553e-09)
(-2.3512e-10 -9.78014e-07 -2.3512e-10)
(-2.09335e-12 -8.70757e-09 -2.09335e-12)
(-7.63469e-11 -3.17575e-07 -7.63469e-11)
(-7.8355e-11 -3.25928e-07 -7.8355e-11)
(-4.26763e-12 -1.77518e-08 -4.26763e-12)
(-2.83185e-14 -1.17795e-10 -2.83185e-14)
(-1.02598e-12 -4.26772e-09 -1.02598e-12)
(-1.06637e-12 -4.43569e-09 -1.06637e-12)
(-7.2605e-14 -3.0201e-10 -7.2605e-14)
(-3.82941e-16 -1.59289e-12 -3.82941e-16)
(-1.3783e-14 -5.73324e-11 -1.3783e-14)
(-1.45053e-14 -6.03369e-11 -1.45053e-14)
(-1.18532e-15 -4.9305e-12 -1.18532e-15)
(0 0 0)
(0 0 0)
(0 0 0)
(0 0 0)
(0 0 0)
(0 0 0)
(0 0 0)
(0 0 0)
(0 0 0)
(0 0 0)
(0 0 0)
(0 0 0)
(0 0 0)
(0 0 0)
(0 0 0)
(0 0 0)
(0 0 0)
(0 0 0)
(0 0 0)
(0 0 0)
(0 0 0)
(0 0 0)
(0 0 0)
(0 0 0)
(0 0 0)
(0 0 0)
(0 0 0)
(0 0 0)
(0 0 0)
(0 0 0)
(0 0 0)
(0 0 0)
(0 0 0)
(0 0 0)
(0 0 0)
(0 0 0)
(0 0 0)
(0 0 0)
(0 0 0)
(0 0 0)
(-2.00279e-15 -8.33086e-12 -2.00279e-15)
(-2.92773e-14 -1.21783e-10 -2.92773e-14)
(-2.81711e-14 -1.17182e-10 -2.81711e-14)
(-8.03725e-16 -3.3432e-12 -8.03725e-16)
(-1.15786e-13 -4.81628e-10 -1.15786e-13)
(-2.12128e-12 -8.82376e-09 -2.12128e-12)
(-2.06745e-12 -8.59983e-09 -2.06745e-12)
(-5.82035e-14 -2.42105e-10 -5.82035e-14)
(-6.37941e-12 -2.6536e-08 -6.37941e-12)
(-1.55764e-10 -6.47923e-07 -1.55764e-10)
(-1.53768e-10 -6.3962e-07 -1.53768e-10)
(-4.27236e-12 -1.77714e-08 -4.27236e-12)
(-3.12595e-10 -1.30028e-06 -3.12595e-10)
(-1.14357e-08 -4.75685e-05 -1.14357e-08)
(-1.14368e-08 -4.75727e-05 -1.14368e-08)
(-3.13608e-10 -1.30449e-06 -3.13608e-10)
(-1.15142e-08 -4.78948e-05 -1.15142e-08)
(-4.22708e-07 -0.00175831 -4.22708e-07)
(-4.2271e-07 -0.00175832 -4.2271e-07)
(-1.15175e-08 -4.79085e-05 -1.15175e-08)
(-3.11541e-10 -1.2959e-06 -3.11541e-10)
(-1.13636e-08 -4.72684e-05 -1.13636e-08)
(-1.15122e-08 -4.78865e-05 -1.15122e-08)
(-4.70401e-10 -1.9567e-06 -4.70401e-10)
(-6.32274e-12 -2.63003e-08 -6.32274e-12)
(-2.29129e-10 -9.53094e-07 -2.29129e-10)
(-2.3512e-10 -9.78014e-07 -2.3512e-10)
(-1.28099e-11 -5.32846e-08 -1.28099e-11)
(-1.14065e-13 -4.74467e-10 -1.14065e-13)
(-4.10661e-12 -1.7082e-08 -4.10661e-12)
(-4.26763e-12 -1.77518e-08 -4.26763e-12)
(-2.90685e-13 -1.20914e-09 -2.90685e-13)
(-1.92916e-15 -8.02458e-12 -1.92916e-15)
(-6.89985e-14 -2.87009e-10 -6.89985e-14)
(-7.2605e-14 -3.0201e-10 -7.2605e-14)
(-5.93613e-15 -2.46921e-11 -5.93613e-15)
(-3.13123e-17 -1.30248e-13 -3.13123e-17)
(-1.11264e-15 -4.62818e-12 -1.11264e-15)
(-1.18532e-15 -4.9305e-12 -1.18532e-15)
(-1.13103e-16 -4.70466e-13 -1.13103e-16)
(0 0 0)
(0 0 0)
(0 0 0)
(0 0 0)
(0 0 0)
(0 0 0)
(0 0 0)
(0 0 0)
(0 0 0)
(0 0 0)
(0 0 0)
(0 0 0)
(0 0 0)
(0 0 0)
(0 0 0)
(0 0 0)
(0 0 0)
(0 0 0)
(0 0 0)
(0 0 0)
(0 0 0)
(0 0 0)
(0 0 0)
(0 0 0)
(0 0 0)
(0 0 0)
(0 0 0)
(0 0 0)
(0 0 0)
(0 0 0)
(0 0 0)
(0 0 0)
(0 0 0)
(0 0 0)
(0 0 0)
(0 0 0)
(0 0 0)
(0 0 0)
(0 0 0)
(0 0 0)
)
;

boundaryField
{
    inlet
    {
        type            zeroGradient;
    }
    outlet
    {
        type            zeroGradient;
    }
    walls
    {
        type            zeroGradient;
    }
}


// ************************************************************************* //
