/*--------------------------------*- C++ -*----------------------------------*\
| =========                 |                                                 |
| \\      /  F ield         | OpenFOAM: The Open Source CFD Toolbox           |
|  \\    /   O peration     | Version:  5.x                                   |
|   \\  /    A nd           | Web:      www.OpenFOAM.org                      |
|    \\/     M anipulation  |                                                 |
\*---------------------------------------------------------------------------*/
FoamFile
{
    version     2.0;
    format      ascii;
    class       volScalarField;
    location    "0.063";
    object      phiIB;
}
// * * * * * * * * * * * * * * * * * * * * * * * * * * * * * * * * * * * * * //

dimensions      [0 2 -1 0 0 0 0];

internalField   nonuniform List<scalar> 
1602
(
-0.000126798
-0.000126744
-0.000126742
-0.000126721
-0.000126723
-0.000126798
-0.000126743
-0.00012674
-0.000126719
-0.000126722
-0.000126814
-0.000126759
-0.000126756
-0.000126735
-0.000126737
-0.000126817
-0.000126761
-0.000126758
-0.000126737
-0.000126739
-0.000126861
-0.000126806
-0.000126803
-0.000126782
-0.000126784
-0.000255132
-0.000255116
-0.000255105
-0.000255096
-0.000255092
-0.000255131
-0.000255115
-0.000255105
-0.000255095
-0.000255092
-0.000255137
-0.00025512
-0.00025511
-0.000255101
-0.000255098
-0.000255143
-0.000255127
-0.000255116
-0.000255107
-0.000255104
-0.000255151
-0.000255135
-0.000255125
-0.000255116
-0.000255112
-0.000595105
-0.000595034
-0.000595013
-0.000594981
-0.000594976
-0.000595106
-0.000595035
-0.000595013
-0.000594981
-0.000594976
-0.00059513
-0.000595058
-0.000595036
-0.000595004
-0.000594998
-0.000595145
-0.000595074
-0.000595052
-0.00059502
-0.000595014
-0.000595202
-0.00059513
-0.000595108
-0.000595076
-0.00059507
-0.000771362
-0.000771296
-0.000771267
-0.000771234
-0.000771226
-0.000771363
-0.000771297
-0.000771268
-0.000771235
-0.000771226
-0.000771387
-0.000771321
-0.000771292
-0.000771259
-0.00077125
-0.000771408
-0.000771342
-0.000771313
-0.00077128
-0.00077127
-0.000771459
-0.000771393
-0.000771364
-0.000771331
-0.000771321
-0.00108781
-0.0010877
-0.00108766
-0.00108761
-0.0010876
-0.00108782
-0.00108771
-0.00108767
-0.00108761
-0.0010876
-0.00108786
-0.00108775
-0.00108771
-0.00108765
-0.00108764
-0.00108789
-0.00108778
-0.00108774
-0.00108769
-0.00108767
-0.00108799
-0.00108787
-0.00108783
-0.00108778
-0.00108776
-0.0012888
-0.00128866
-0.0012886
-0.00128853
-0.00128852
-0.00128881
-0.00128867
-0.00128861
-0.00128854
-0.00128852
-0.00128886
-0.00128872
-0.00128867
-0.0012886
-0.00128858
-0.00128891
-0.00128877
-0.00128871
-0.00128864
-0.00128862
-0.00128902
-0.00128889
-0.00128883
-0.00128876
-0.00128874
-0.00158311
-0.00158291
-0.00158283
-0.00158273
-0.00158271
-0.00158313
-0.00158293
-0.00158284
-0.00158275
-0.00158272
-0.00158321
-0.00158301
-0.00158293
-0.00158283
-0.00158281
-0.00158328
-0.00158308
-0.001583
-0.0015829
-0.00158287
-0.00158345
-0.00158325
-0.00158317
-0.00158307
-0.00158305
-0.00180219
-0.00180192
-0.00180181
-0.00180168
-0.00180165
-0.00180221
-0.00180194
-0.00180183
-0.0018017
-0.00180167
-0.00180233
-0.00180205
-0.00180195
-0.00180181
-0.00180178
-0.00180242
-0.00180214
-0.00180204
-0.00180191
-0.00180187
-0.00180266
-0.00180239
-0.00180228
-0.00180215
-0.00180212
-0.00207973
-0.00207934
-0.00207919
-0.00207901
-0.00207896
-0.00207976
-0.00207937
-0.00207922
-0.00207903
-0.00207899
-0.00207993
-0.00207954
-0.00207939
-0.0020792
-0.00207916
-0.00208006
-0.00207967
-0.00207952
-0.00207933
-0.00207929
-0.00208039
-0.00208002
-0.00207987
-0.00207969
-0.00207964
-0.00231067
-0.00231013
-0.00230992
-0.00230967
-0.00230961
-0.00231071
-0.00231017
-0.00230996
-0.00230971
-0.00230965
-0.00231093
-0.0023104
-0.00231019
-0.00230994
-0.00230988
-0.00231111
-0.00231057
-0.00231037
-0.00231012
-0.00231006
-0.00231158
-0.00231106
-0.00231086
-0.00231062
-0.00231056
-0.00257543
-0.00257467
-0.00257438
-0.00257403
-0.00257395
-0.00257549
-0.00257472
-0.00257444
-0.00257409
-0.00257401
-0.0025758
-0.00257505
-0.00257476
-0.00257441
-0.00257433
-0.00257605
-0.0025753
-0.00257502
-0.00257467
-0.00257459
-0.00257671
-0.00257599
-0.00257571
-0.00257537
-0.00257529
-0.00281273
-0.00281168
-0.00281129
-0.00281078
-0.00281067
-0.00281279
-0.00281175
-0.00281136
-0.00281086
-0.00281075
-0.00281321
-0.00281218
-0.00281181
-0.00281133
-0.00281123
-0.00281353
-0.00281252
-0.00281215
-0.00281168
-0.00281158
-0.00281444
-0.00281346
-0.0028131
-0.00281266
-0.00281256
-0.00306624
-0.0030648
-0.00306433
-0.00306373
-0.00306359
-0.00306631
-0.00306488
-0.00306441
-0.00306381
-0.00306368
-0.00306687
-0.00306546
-0.00306499
-0.00306438
-0.00306425
-0.00306728
-0.00306588
-0.00306542
-0.00306481
-0.00306469
-0.00306854
-0.00306719
-0.00306674
-0.00306615
-0.00306603
-0.00330442
-0.00330259
-0.00330219
-0.00330138
-0.0033013
-0.00330443
-0.00330261
-0.0033022
-0.00330142
-0.00330133
-0.00330506
-0.00330327
-0.00330286
-0.00330217
-0.0033021
-0.00330545
-0.00330367
-0.00330322
-0.00330253
-0.00330245
-0.00330703
-0.00330533
-0.0033049
-0.00330424
-0.00330416
-0.00354401
-0.00354202
-0.00354242
-0.00354268
-0.00354323
-0.0035439
-0.00354185
-0.0035421
-0.0035422
-0.00354261
-0.00354457
-0.00354242
-0.00354246
-0.00354207
-0.0035423
-0.00354477
-0.00354254
-0.00354236
-0.00354177
-0.00354185
-0.00354684
-0.00354463
-0.00354438
-0.00354369
-0.0035437
-0.00377307
-0.0037714
-0.00377338
-0.00377793
-0.00378139
-0.00377261
-0.00377073
-0.00377232
-0.00377513
-0.0037778
-0.00377296
-0.00377091
-0.00377184
-0.00377225
-0.00377316
-0.00377259
-0.00377026
-0.00377086
-0.00377065
-0.00377116
-0.00377472
-0.00377241
-0.00377272
-0.00377235
-0.00377267
-0.00398207
-0.00398165
-0.00398534
-0.00398641
-0.00398746
-0.00398084
-0.00397969
-0.00398274
-0.0039847
-0.00398608
-0.00398113
-0.00397851
-0.00398002
-0.00398264
-0.00398495
-0.0039803
-0.00397727
-0.00397844
-0.00397954
-0.00398122
-0.00398382
-0.00398007
-0.00398082
-0.00398045
-0.00398138
-0.0041657
-0.00416202
-0.00416143
-0.00415879
-0.0041578
-0.00416531
-0.00416195
-0.00416149
-0.00415898
-0.00415817
-0.00416672
-0.00416262
-0.00416305
-0.00416116
-0.0041605
-0.00416745
-0.0041623
-0.00416243
-0.00416142
-0.00416096
-0.00417436
-0.00416708
-0.00416614
-0.00416451
-0.00416442
-0.00429761
-0.0042875
-0.00428149
-0.00427427
-0.00427039
-0.00429747
-0.00428879
-0.00428335
-0.00427659
-0.00427312
-0.00430239
-0.00429376
-0.0042894
-0.00428266
-0.0042797
-0.00430712
-0.00429615
-0.00429328
-0.00428766
-0.00428542
-0.00431883
-0.00430659
-0.00430138
-0.00429592
-0.00429538
-0.00440469
-0.00438493
-0.00437069
-0.00435738
-0.00434746
-0.0044054
-0.0043879
-0.0043754
-0.00436357
-0.00435576
-0.00441282
-0.00439589
-0.00438505
-0.00437429
-0.00436803
-0.00442041
-0.00440355
-0.00439517
-0.00438614
-0.00438175
-0.00443459
-0.00441964
-0.00441133
-0.00440289
-0.00440087
-0.00445797
-0.00442437
-0.00440064
-0.00437996
-0.00436336
-0.00446092
-0.00442979
-0.00440889
-0.00439072
-0.00437777
-0.00447078
-0.0044427
-0.00442444
-0.00440744
-0.00439711
-0.00447962
-0.00445646
-0.00444173
-0.00442746
-0.0044201
-0.00449799
-0.00447862
-0.00446885
-0.00445764
-0.00445274
-0.00450747
-0.00446631
-0.00443038
-0.00440713
-0.00438193
-0.0045107
-0.00447489
-0.00444571
-0.00442668
-0.00440487
-0.00452197
-0.00448793
-0.00446336
-0.00444404
-0.00442652
-0.00453319
-0.00450609
-0.00448695
-0.00447233
-0.00446174
-0.00455663
-0.00453186
-0.00451957
-0.00450664
-0.00450142
-0.00452204
-0.00446476
-0.00443471
-0.00441949
-0.00441863
-0.00452273
-0.00447204
-0.00444471
-0.00442743
-0.00441614
-0.00452862
-0.00448628
-0.00446222
-0.00444287
-0.00443009
-0.0045337
-0.0045012
-0.00448525
-0.00446928
-0.00445951
-0.00456178
-0.00453207
-0.00452581
-0.00451813
-0.00451516
-0.00454237
-0.00447503
-0.00440012
-0.00434387
-0.00420583
-0.00454618
-0.00449577
-0.00444171
-0.00441272
-0.0043411
-0.0045542
-0.00450801
-0.0044667
-0.00443993
-0.00439597
-0.00456424
-0.004529
-0.00450744
-0.00449367
-0.00447102
-0.00459651
-0.00456226
-0.00455139
-0.00454152
-0.00453596
-0.00454922
-0.0044973
-0.00448839
-0.00451964
-0.00476994
-0.00454401
-0.00449684
-0.00448425
-0.00449501
-0.00451138
-0.00454423
-0.0044918
-0.0044819
-0.00448245
-0.00448234
-0.00454156
-0.00449833
-0.00449107
-0.00449442
-0.00449109
-0.00457494
-0.00453912
-0.00454074
-0.00453848
-0.00454104
-0.00448892
-0.00437387
-0.00417405
-0.00399369
-0.00292924
-0.00450144
-0.00441673
-0.00432644
-0.0042821
-0.0039857
-0.00451104
-0.00443082
-0.00436878
-0.00432461
-0.00416883
-0.00453129
-0.00447596
-0.00443102
-0.00441515
-0.00437084
-0.00457682
-0.0045284
-0.00450753
-0.00449536
-0.00448029
-0.00449105
-0.00440073
-0.00437974
-0.00428898
-0.00453021
-0.00447888
-0.00440844
-0.00441411
-0.00447043
-0.00427579
-0.00448252
-0.00440441
-0.00438639
-0.00441589
-0.00438243
-0.00447621
-0.00441855
-0.00440416
-0.00440754
-0.00439463
-0.00452592
-0.00447275
-0.00447831
-0.00447292
-0.00448375
-0.00443101
-0.00423952
-0.00421738
-0.00414894
-0.00314647
-0.00442023
-0.00428163
-0.00417409
-0.0039302
-0.0039404
-0.00442532
-0.00431963
-0.00423978
-0.00417008
-0.00420465
-0.00444614
-0.00437796
-0.00432008
-0.00427861
-0.00423256
-0.00449054
-0.00444236
-0.00442086
-0.00441336
-0.00441977
-0.00445472
-0.00434644
-0.00455035
-0.00435825
-0.000879764
-0.00437273
-0.00430117
-0.0043559
-0.00421586
-0.0038335
-0.00437965
-0.0043069
-0.00437533
-0.00435562
-0.00457347
-0.00434737
-0.00430297
-0.00430794
-0.00430378
-0.00435426
-0.00439689
-0.00434359
-0.00437658
-0.00436929
-0.00445666
-0.00442218
-0.00414838
-0.00428196
-0.00387026
-0.00439456
-0.00433203
-0.0042336
-0.00414493
-0.0039611
-0.00436115
-0.00433233
-0.00425554
-0.00428591
-0.00414287
-0.0042834
-0.00433311
-0.00429337
-0.00425675
-0.00423215
-0.00414838
-0.00434747
-0.00433
-0.00432949
-0.00432718
-0.00441219
-0.0042272
-0.00402105
-0.00400078
-0.00295753
-0.00275306
-0.00413957
-0.00403964
-0.00402764
-0.00385363
-0.00391591
-0.00416666
-0.00408521
-0.00414738
-0.00402182
-0.00400408
-0.00413219
-0.00410427
-0.00408709
-0.00403833
-0.00401536
-0.00417404
-0.00413073
-0.00416606
-0.00413373
-0.00422136
-0.00415103
-0.00411453
-0.00408574
-0.00296536
-0.00273762
-0.00412338
-0.00413574
-0.00402814
-0.00373087
-0.00335545
-0.00414182
-0.00413188
-0.0041295
-0.00402749
-0.00408362
-0.00414912
-0.00416786
-0.00413286
-0.00413456
-0.00410972
-0.00415311
-0.0041474
-0.00413929
-0.00411752
-0.00414024
-0.00398314
-0.00398055
-0.00418767
-0.00425481
-0.0070223
-0.00391692
-0.00393898
-0.00404678
-0.00403645
-0.00443004
-0.00393095
-0.00394127
-0.00404897
-0.00405491
-0.00420384
-0.00389015
-0.00391537
-0.00394095
-0.00393946
-0.00397859
-0.00389503
-0.00389044
-0.0039315
-0.00391886
-0.00398412
-0.00406755
-0.00402503
-0.00420952
-0.00438235
-0.0046636
-0.00399557
-0.00396846
-0.00407345
-0.00363635
-0.00428748
-0.00401141
-0.00402508
-0.00416057
-0.00408649
-0.00422863
-0.00398791
-0.00401538
-0.00402575
-0.00397083
-0.00401973
-0.00397797
-0.00398643
-0.00400918
-0.00399387
-0.00406099
-0.00354338
-0.00351337
-0.00353303
-0.00345273
-0.00347746
-0.00353074
-0.0035541
-0.00359133
-0.00369278
-0.00346836
-0.00354482
-0.00355692
-0.00359974
-0.00359856
-0.00354585
-0.00352245
-0.00354621
-0.00355742
-0.00355953
-0.00351986
-0.00352733
-0.00352461
-0.0035482
-0.00353803
-0.00355048
-0.00359212
-0.00360773
-0.00368052
-0.00384831
-0.00391359
-0.00358178
-0.00360397
-0.00362329
-0.00368481
-0.0038439
-0.00358079
-0.00359924
-0.00361731
-0.00362462
-0.00368442
-0.00357341
-0.00359499
-0.00360102
-0.00360839
-0.00361555
-0.00356728
-0.00357282
-0.00358099
-0.0035837
-0.00359534
-0.00270794
-0.00268331
-0.00265371
-0.00266095
-0.00257902
-0.00272105
-0.00270884
-0.00268676
-0.00270458
-0.0026608
-0.00273871
-0.00272427
-0.00270156
-0.00269128
-0.0026574
-0.00273995
-0.00273999
-0.0027244
-0.00271273
-0.00268607
-0.00274926
-0.00274208
-0.00274109
-0.00272707
-0.00271336
-0.00234316
-0.00237603
-0.00244887
-0.00253861
-0.0025866
-0.00234134
-0.00236824
-0.00241694
-0.00249237
-0.00254048
-0.00233975
-0.00235497
-0.00237328
-0.00241651
-0.00244943
-0.00233811
-0.00235078
-0.0023559
-0.00236879
-0.00237595
-0.00233692
-0.0023377
-0.00233969
-0.00234095
-0.00234245
-0.00103517
-0.00104838
-0.00106504
-0.00106517
-0.001041
-0.00103043
-0.0010381
-0.00107145
-0.00107767
-0.00106384
-0.00102897
-0.0010277
-0.00105104
-0.00107288
-0.00106539
-0.0010295
-0.00102534
-0.0010271
-0.00103823
-0.00104754
-0.00103548
-0.00103033
-0.00102933
-0.00103173
-0.00103577
-0.000575487
-0.000605093
-0.000660785
-0.000754695
-0.000821898
-0.000570509
-0.000594341
-0.000623914
-0.000696889
-0.000755462
-0.00056691
-0.000579257
-0.000593793
-0.00062361
-0.000661142
-0.000563349
-0.000573056
-0.00057925
-0.000594302
-0.00060531
-0.000562271
-0.000563589
-0.000566927
-0.000570613
-0.000575508
-0.00239505
-0.00361024
-0.00272732
-0.00262452
-0.000357764
-0.00295193
-0.00264253
-0.000240217
-0.0040035
-0.00281943
-0.00558261
-0.00481945
-0.0042169
-0.00556757
-0.00552948
-0.00481654
-0.00702995
-0.00415686
-0.00661163
-0.00322143
-0.00418339
-0.00445988
-0.00320893
-0.00475732
-0.00369449
-0.00336981
-0.00322101
-0.00371303
-0.00382789
-0.00390315
-0.00444307
-0.00288682
-0.00374782
-0.00319653
-0.00291467
-0.00317664
-0.00318543
-0.00240693
-0.00334379
-0.00341622
-0.00352224
-0.00353471
-0.00413799
-0.00370882
-0.00435373
-0.0035976
-0.00380299
-0.00368433
-0.00367426
-0.00418115
-0.0037258
-0.00389812
-0.00367345
-0.0038206
-0.00368211
-0.00360798
-0.00363799
-0.0025611
-0.00348359
-0.00373946
-0.0035329
-0.00349158
-0.00347483
-0.00365933
-0.00256915
-0.00348512
-0.00374207
-0.0035628
-0.00350293
-0.00349822
-0.00520747
-0.00613571
-0.00535743
-0.00535311
-0.00417977
-0.00571061
-0.00570957
-0.00485662
-0.00425047
-0.0044395
-0.00395338
-0.00483881
-0.00371245
-0.00430288
-0.00485015
-0.00424864
-0.00424607
-0.00428495
-0.00486025
-0.0036866
-0.00393688
-0.00557061
-0.00545209
-0.00651279
-0.00342143
-0.00501845
-0.00532657
-0.00598317
-0.00558134
-0.005455
-0.00652232
-0.00344208
-0.00501818
-0.00533372
-0.0059945
-0.000121491
-0.00327519
-0.000910286
-0.00508435
-0.00399872
-0.00392891
-0.00514012
-0.00350311
-0.00397117
-0.00399232
-0.00392346
-0.00407635
-0.00365062
-0.00366851
-0.00401675
-0.00419593
-0.00434584
-0.00394994
-0.00419787
-0.00381047
-0.00407299
-0.00402837
-0.00423284
-0.00436409
-0.0039912
-0.00420563
-0.00382977
-0.00410805
-0.00558571
-0.00413424
-0.00419736
-0.00419492
-0.00470815
-0.00470459
-0.0055168
-0.00517541
-0.00422259
-0.00422934
-0.00321855
-0.00496808
-0.00418132
-0.00418989
-0.00591029
-0.00568149
-0.00568266
-0.00593105
-0.00584787
-0.00594082
-0.00594377
-0.00580352
-0.00599743
-0.00681961
-0.00612882
-0.00609206
-0.00577023
-0.00606735
-0.00580824
-0.00599731
-0.00681919
-0.00612647
-0.00608929
-0.00576892
-0.00607366
-0.00422389
-0.0042501
-0.00445504
-0.0045049
-0.00368369
-0.00409057
-0.00411103
-0.00438425
-0.00394991
-0.00382049
-0.00399213
-0.00431783
-0.0040443
-0.00402113
-0.00439401
-0.0039648
-0.00438255
-0.00402524
-0.00438457
-0.00405802
-0.00404696
-0.00421071
-0.0044758
-0.00441538
-0.00373994
-0.00405677
-0.00401235
-0.00392343
-0.00422504
-0.00452046
-0.00443952
-0.00376192
-0.00409274
-0.00403162
-0.00395743
-0.00625548
-0.00531255
-0.0053026
-0.00450048
-0.00680113
-0.00494598
-0.00494225
-0.00454764
-0.00501082
-0.00451881
-0.00515445
-0.00606396
-0.00548827
-0.00490014
-0.00459099
-0.00503093
-0.0045283
-0.0051656
-0.00609745
-0.00549422
-0.00493202
-0.0044187
-0.00442706
-0.00542075
-0.00605257
-0.0041082
-0.00458021
-0.0045781
-0.00418019
-0.00400787
-0.00403802
-0.0040869
-0.004075
-0.00378985
-0.0040841
-0.00409161
-0.00363081
-0.00505692
-0.00505843
-0.00531383
-0.00392549
-0.00392332
-0.00255128
-0.00357815
-0.00338034
-0.0042717
-0.00469758
-0.00411543
-0.00431847
-0.00253547
-0.00355801
-0.00294382
-0.0043173
-0.0046923
-0.00410549
-0.00425811
-0.00470643
-0.00252509
-0.00554441
-0.00507528
-0.00316942
-0.00587811
-0.00494149
-0.0046968
-0.00255679
-0.00554624
-0.0050716
-0.00316688
-0.00586305
-0.00496559
-0.00480551
-0.00471872
-0.00559259
-0.00462337
-0.0049979
-0.00394799
-0.00410096
-0.00470521
-0.00480255
-0.00558294
-0.0046234
-0.00499478
-0.00394398
-0.00408854
-0.00154964
-0.00378679
-0.00316317
0.000839409
0.00383844
-0.00277468
0.000747737
-0.00382466
-0.000894553
-0.000898814
-0.00252588
-0.00151769
-0.00313995
-0.00315202
-0.00526606
-0.00302645
-0.00184407
-0.00386569
-0.00270354
-0.00350638
-0.00436169
-0.00528046
-0.00304054
-0.00186359
-0.00387688
-0.00274092
-0.00351259
-0.00438369
-0.00420426
-0.00411638
-0.0040655
-0.00428312
-0.00425481
-0.00411904
-0.00437494
-0.00423583
-0.00415728
-0.00409382
-0.00431796
-0.00426775
-0.0041484
-0.00439336
-0.00328505
-0.00396553
-0.00509218
-0.00508718
-0.00450588
-0.00450867
-0.00637888
-0.00504559
-0.00353729
-0.0035317
-0.00348382
-0.00177612
-0.00430857
-0.00429919
-0.0045603
-0.00431249
-0.00439045
-0.00450023
-0.00477996
-0.00426032
-0.00407342
-0.00456944
-0.00431412
-0.00439538
-0.00450232
-0.00478765
-0.00426829
-0.00408009
-0.00197759
-0.0011836
-0.0013464
-0.00185424
-0.00226531
-0.00191015
-0.00186158
-0.00418616
-0.00402154
-0.00422272
-0.00418228
-0.00432135
-0.00412241
-0.00419258
-0.00431878
-0.00399414
-0.00414726
-0.00413806
-0.0042547
-0.0042456
-0.00401467
-0.00433215
-0.00400295
-0.00415548
-0.00414513
-0.00426618
-0.0042547
-0.00402219
-0.00187486
0.000251518
-0.00300389
-0.00163008
-0.000414034
-0.00269468
-0.00189805
-0.00183173
0.000208647
-0.00301959
-0.00170152
-0.000475779
-0.00275659
-0.0019157
-0.00462523
-0.00426702
-0.00477912
-0.00433045
-0.00412947
-0.0038704
-0.00372073
-0.00462149
-0.00477118
-0.00425918
-0.0043117
-0.00413509
-0.0038726
-0.00372175
0.00328973
0.0032726
0.00181831
0.00314286
0.00676275
0.00352181
0.00350925
-0.00369339
-0.00405563
-0.00392599
-0.00336153
-0.00115002
-0.00394589
-0.00372757
-0.00367235
-0.00406895
-0.00413237
-0.00377262
-0.00107967
-0.00395561
-0.00335638
-0.00397347
-0.00458594
-0.00460955
-0.00398234
-0.00493447
-0.00468427
-0.00420462
-0.00396226
-0.00459646
-0.00461197
-0.00401884
-0.00494445
-0.00473705
-0.00419941
0.00119806
-0.000403231
0.000415728
0.00327911
0.00169143
0.000696798
0.00486041
0.00117037
-0.000302317
9.82746e-05
0.00343531
0.00164702
0.000875561
0.00477106
-0.00171842
-0.00303672
-0.0030603
-0.0034228
-0.00132186
-0.00325386
-0.00326458
-0.00206974
-0.00199826
-0.000589224
0.000332461
-0.00282675
-0.00148376
-0.00146931
-0.00345513
-0.00407373
-0.00372657
-0.00410135
-0.00402081
-0.00395396
-0.00409843
-0.00411102
-0.00448806
-0.00402293
-0.00396048
-0.00420702
-0.00409881
-0.00407274
-0.00410081
-0.00448431
-0.00402458
-0.00395378
-0.00420647
-0.00409603
-0.0040712
-0.00364718
-0.00408942
-0.00415813
-0.00425639
-0.0040329
-0.00437707
-0.00395761
-0.00334845
-0.00235296
-0.000813104
-0.000545321
-0.00145087
-0.00293017
-0.00279269
-0.00362677
-0.00408187
-0.00414813
-0.00424031
-0.0040172
-0.00436169
-0.00394505
-0.00414099
-0.00332877
-0.00402546
-0.00431806
-0.00282621
-0.00438509
-0.00341996
-0.00412285
-0.00327351
-0.00295693
-0.0033536
-0.00283323
-0.00434544
-0.00430279
-0.00290157
-0.00312641
-0.000649791
-0.00307196
-0.00341107
-0.00117585
-0.00265518
-0.00299509
-0.00313292
-0.000636355
-0.00302759
-0.00360326
-0.0011395
-0.00268187
-0.00337505
-0.00234212
-0.00269182
-0.00327237
-0.0026938
-0.00371686
-0.00354058
-0.00228676
-0.00338587
-0.00268543
-0.00324187
-0.00265451
-0.00375103
-0.00355215
-0.00523594
-0.00358826
-0.00452022
-0.00120476
0.000876289
-0.00268355
-0.00119492
0.00332546
-0.00203404
-0.00199283
0.00462531
-0.00153162
0.00430733
0.0042521
0.00202189
-0.00460877
-0.0014655
-0.00215847
-0.00248876
-0.0011027
0.00230844
0.00219548
-0.00461073
-0.0015218
-0.00213631
-0.00269523
-0.00126581
0.00241399
-0.000924324
-0.00648393
-0.00499376
-0.00105798
-0.000595223
-0.00408556
-0.00568285
-0.000804136
-0.0064498
-0.00518297
-0.00100295
-0.000625301
-0.00410286
-0.0056146
)
;

boundaryField
{
    inlet
    {
        type            fixedValue;
        value           uniform 0;
    }
    wall
    {
        type            zeroGradient;
    }
    outlet
    {
        type            fixedValue;
        value           uniform 0;
    }
    procBoundary2to0
    {
        type            processor;
        value           nonuniform List<scalar> 
329
(
-0.000126798
-0.000126745
-0.000126744
-0.000126723
-0.000126725
-0.000255135
-0.000255119
-0.000255108
-0.000255098
-0.000255094
-0.000595108
-0.000595038
-0.000595017
-0.000594985
-0.000594979
-0.000771367
-0.0007713
-0.000771271
-0.000771237
-0.000771228
-0.00108782
-0.00108771
-0.00108767
-0.00108761
-0.0010876
-0.0012888
-0.00128866
-0.00128861
-0.00128854
-0.00128852
-0.00158312
-0.00158292
-0.00158284
-0.00158274
-0.00158271
-0.0018022
-0.00180192
-0.00180182
-0.00180168
-0.00180165
-0.00207974
-0.00207935
-0.0020792
-0.00207901
-0.00207897
-0.00231068
-0.00231014
-0.00230993
-0.00230968
-0.00230962
-0.00257543
-0.00257468
-0.00257439
-0.00257404
-0.00257396
-0.00281274
-0.00281169
-0.0028113
-0.0028108
-0.00281069
-0.00306626
-0.00306482
-0.00306435
-0.00306375
-0.00306362
-0.00330446
-0.00330264
-0.00330223
-0.00330143
-0.00330134
-0.00354409
-0.00354211
-0.0035425
-0.00354275
-0.00354327
-0.00377322
-0.00377155
-0.0037735
-0.00377801
-0.00378143
-0.0039823
-0.00398188
-0.00398557
-0.00398666
-0.00398772
-0.00416605
-0.00416242
-0.00416187
-0.00415933
-0.00415838
-0.00429806
-0.00428804
-0.00428212
-0.00427505
-0.00427126
-0.00440523
-0.00438562
-0.00437152
-0.00435842
-0.00434865
-0.00445861
-0.00442522
-0.00440169
-0.00438132
-0.00436493
-0.0045082
-0.00446731
-0.00443164
-0.00440875
-0.00438383
-0.00452281
-0.00446599
-0.0044363
-0.00442177
-0.00442137
-0.00454317
-0.00447633
-0.00440186
-0.00434639
-0.00420896
-0.00455013
-0.00449911
-0.00449085
-0.004524
-0.00477671
-0.00448964
-0.00437542
-0.00417555
-0.00399602
-0.00293008
-0.00449189
-0.00440354
-0.00438175
-0.00429034
-0.00454193
-0.00443114
-0.0042421
-0.00421884
-0.00415635
-0.00313075
-0.00445465
-0.00434808
-0.00455064
-0.00435873
-0.000889321
-0.00441991
-0.0041482
-0.00427827
-0.00386687
-0.00439539
-0.00422468
-0.00401938
-0.00399913
-0.00295314
-0.00270796
-0.00414884
-0.00411199
-0.0040836
-0.00295768
-0.0027784
-0.00397921
-0.00397901
-0.00418655
-0.00425221
-0.00703332
-0.00406363
-0.00402086
-0.00420003
-0.00431119
-0.00477962
-0.00353906
-0.0035137
-0.00353095
-0.00345581
-0.00350118
-0.00359099
-0.00360557
-0.00367871
-0.0038399
-0.00390919
-0.00270448
-0.00268219
-0.00264963
-0.00266038
-0.0025754
-0.00234015
-0.00237244
-0.00244797
-0.00253732
-0.00258836
-0.00103298
-0.00104637
-0.00106283
-0.00106475
-0.00103917
-0.000573517
-0.000604097
-0.000660402
-0.000754559
-0.000822495
-0.00264035
-0.000419067
-0.00241292
-0.00558426
-0.00481873
-0.000195452
-0.00416891
-0.00660669
-0.00553047
-0.00362039
-0.00337543
-0.00445858
-0.0028914
-0.00375581
-0.00381632
-0.00340693
-0.00351884
-0.00318286
-0.0035855
-0.00379874
-0.00413551
-0.00364014
-0.00346739
-0.00353166
-0.0061403
-0.00571705
-0.00535197
-0.0039538
-0.00482885
-0.00485963
-0.0065103
-0.0059978
-0.00546508
-0.00508204
-0.00398721
-0.000128198
-0.00396588
-0.00364465
-0.00391363
-0.00394768
-0.0040692
-0.00419218
-0.00568587
-0.0059491
-0.00593329
-0.00613933
-0.00608063
-0.00600514
-0.00367546
-0.00408723
-0.00421766
-0.00399248
-0.00431667
-0.00439091
-0.00405493
-0.00392121
-0.00447379
-0.00454201
-0.00489821
-0.00606378
-0.00362925
-0.00392177
-0.00505684
-0.00426709
-0.00469901
-0.00255791
-0.00554363
-0.00493708
-0.00252716
-0.00480594
-0.00409842
-0.00559151
0.000780713
0.00382119
-0.00156317
-0.000911679
-0.00314233
-0.0025234
-0.00386485
-0.00436301
-0.00304223
-0.00428242
-0.0043744
-0.0041144
-0.00116263
-0.00189867
-0.00185154
-0.001614
-0.00187884
0.00024961
-0.00462732
-0.00372039
-0.00426714
0.00673838
0.00341135
0.003244
-0.00335383
-0.00111402
-0.00368627
-0.00494152
-0.00420547
-0.00458223
0.00115265
0.00476539
0.00166697
-0.00228509
-0.00290871
-0.000848609
-0.00431615
-0.00285486
-0.00412169
-0.000668218
-0.00264477
-0.00310758
-0.0033824
-0.00354421
-0.00268871
-0.00118434
0.000918814
-0.00525664
-0.00204539
0.00430328
0.00460325
-0.0021573
0.00237052
-0.00462472
-0.00106449
-0.00568514
-0.00650051
)
;
    }
    procBoundary2to3
    {
        type            processor;
        value           nonuniform List<scalar> 
329
(
-0.00012672
-0.000126719
-0.000126735
-0.000126737
-0.000126781
-0.00025509
-0.000255091
-0.000255096
-0.000255103
-0.000255111
-0.00059497
-0.000594971
-0.000594994
-0.000595009
-0.000595065
-0.00077122
-0.000771222
-0.000771246
-0.000771267
-0.000771317
-0.00108759
-0.00108759
-0.00108763
-0.00108767
-0.00108776
-0.00128851
-0.00128852
-0.00128857
-0.00128862
-0.00128874
-0.0015827
-0.00158271
-0.0015828
-0.00158286
-0.00158304
-0.00180164
-0.00180166
-0.00180177
-0.00180186
-0.00180211
-0.00207895
-0.00207898
-0.00207915
-0.00207928
-0.00207963
-0.0023096
-0.00230964
-0.00230987
-0.00231005
-0.00231054
-0.00257394
-0.00257399
-0.00257431
-0.00257457
-0.00257527
-0.00281066
-0.00281074
-0.00281121
-0.00281156
-0.00281254
-0.00306357
-0.00306366
-0.00306423
-0.00306466
-0.003066
-0.00330127
-0.00330129
-0.00330206
-0.00330241
-0.00330411
-0.00354318
-0.00354256
-0.00354223
-0.00354176
-0.0035436
-0.00378137
-0.00377777
-0.00377306
-0.00377102
-0.00377247
-0.00398723
-0.00398587
-0.00398476
-0.00398102
-0.00398109
-0.00415714
-0.00415755
-0.00415989
-0.00416039
-0.00416383
-0.0042694
-0.00427215
-0.0042787
-0.00428448
-0.00429449
-0.00434607
-0.00435434
-0.00436656
-0.00438036
-0.00439942
-0.00436147
-0.00437581
-0.00439504
-0.00441818
-0.00445079
-0.00437958
-0.00440232
-0.00442382
-0.00445922
-0.00449868
-0.00441516
-0.00441245
-0.00442674
-0.00445631
-0.00451151
-0.00420132
-0.0043352
-0.00439136
-0.00446687
-0.00453119
-0.00476132
-0.00450252
-0.00447681
-0.00448568
-0.00453477
-0.00292185
-0.00396035
-0.00415936
-0.00436018
-0.00447004
-0.00522209
-0.00425638
-0.00437764
-0.00438434
-0.004472
-0.00154338
-0.00369558
-0.00415357
-0.00419784
-0.00440196
-0.00011994
-0.00441904
-0.00454666
-0.00435059
-0.00444802
-0.00385213
-0.00421051
-0.00426876
-0.00413405
-0.00440462
-0.00239338
-0.00408796
-0.0040036
-0.00401099
-0.00421088
-0.000262485
-0.00253153
-0.00408292
-0.0041061
-0.0041346
-0.0055318
-0.00482646
-0.00419937
-0.00397098
-0.00397644
-0.00439827
-0.00422612
-0.00420644
-0.00400659
-0.00404978
-0.00347442
-0.00349052
-0.00353128
-0.00351574
-0.00354172
-0.00392449
-0.00384025
-0.00367938
-0.00361123
-0.0035906
-0.00257494
-0.00266599
-0.00265578
-0.00268624
-0.0027109
-0.00258671
-0.00253963
-0.00244845
-0.00237418
-0.00234016
-0.00104086
-0.00106539
-0.00106567
-0.00104775
-0.00103548
-0.000821388
-0.000754956
-0.000660211
-0.000604501
-0.00057411
-0.00282952
-0.00262823
-0.000296691
-0.00278463
-0.00556831
-0.00482234
-0.00701863
-0.00419868
-0.00660892
-0.00479558
-0.00372128
-0.00338521
-0.00449457
-0.00293921
-0.00374867
-0.00343257
-0.0035607
-0.00320073
-0.00390889
-0.00362157
-0.00386107
-0.00368944
-0.00353695
-0.00359385
-0.00613542
-0.00572157
-0.0053717
-0.00425528
-0.00388939
-0.00486216
-0.00654204
-0.00601078
-0.00546369
-0.000944231
-0.00522701
-0.00402124
-0.00403094
-0.00370303
-0.00394918
-0.00404068
-0.00415604
-0.0042802
-0.00568782
-0.00595259
-0.00593381
-0.00613902
-0.00609048
-0.00600044
-0.00370047
-0.00413955
-0.00428938
-0.00441263
-0.00408307
-0.00443083
-0.00411568
-0.00397269
-0.00455008
-0.00465792
-0.00497459
-0.00615544
-0.00363309
-0.00393076
-0.00506508
-0.00295566
-0.00425024
-0.00468384
-0.00480251
-0.00409748
-0.00559165
-0.005556
-0.0049815
-0.00255702
-0.0032724
0.000735087
0.00384787
-0.000894579
-0.00316804
-0.00253476
-0.00395059
-0.00441155
-0.00303354
-0.00434677
-0.00446172
-0.00421963
-0.00134786
-0.00186889
-0.00185298
-0.00174249
-0.00194622
0.000205325
-0.00461951
-0.00372257
-0.00425593
0.00677859
0.00355988
0.0032954
-0.00412124
-0.0033452
-0.00111314
-0.00497529
-0.00420944
-0.00461354
0.00121415
0.00480712
0.00182677
-0.00241552
-0.0028207
-0.000504434
-0.00294324
-0.00430751
-0.00279904
-0.00337943
-0.0035565
-0.00268834
-0.000628127
-0.0027157
-0.00316701
-0.00449407
-0.00120337
0.000860139
-0.00197513
0.00428018
0.00463751
-0.00198471
0.00249631
-0.00459708
-0.0008246
-0.00555329
-0.00642887
)
;
    }
}


// ************************************************************************* //
