/*--------------------------------*- C++ -*----------------------------------*\
| =========                 |                                                 |
| \\      /  F ield         | OpenFOAM: The Open Source CFD Toolbox           |
|  \\    /   O peration     | Version:  5.x                                   |
|   \\  /    A nd           | Web:      www.OpenFOAM.org                      |
|    \\/     M anipulation  |                                                 |
\*---------------------------------------------------------------------------*/
FoamFile
{
    version     2.0;
    format      ascii;
    class       volScalarField;
    location    "0.08";
    object      p;
}
// * * * * * * * * * * * * * * * * * * * * * * * * * * * * * * * * * * * * * //

dimensions      [0 2 -2 0 0 0 0];

internalField   nonuniform List<scalar> 
160
(
-2.80377e-06
-2.97615e-06
-3.03333e-06
-2.81074e-06
-2.82268e-06
-2.84069e-06
-2.89766e-06
-2.87101e-06
-2.98839e-06
-2.99323e-06
-3.05409e-06
-2.96409e-06
-3.00286e-06
-3.00701e-06
-3.0268e-06
-3.02178e-06
-3.05955e-06
-3.07396e-06
-3.09482e-06
-3.07197e-06
-3.07275e-06
-3.08086e-06
-3.08416e-06
-3.09149e-06
-3.09693e-06
-3.10798e-06
-3.11744e-06
-3.11557e-06
-3.10554e-06
-3.11347e-06
-3.11827e-06
-3.12312e-06
-3.11514e-06
-3.12237e-06
-3.12678e-06
-3.13074e-06
-3.11911e-06
-3.12491e-06
-3.12831e-06
-3.13304e-06
-2.97615e-06
-4.9395e-06
-4.06209e-06
-3.90886e-06
-2.84069e-06
-4.16864e-06
-3.62831e-06
-3.63159e-06
-2.99323e-06
-3.68106e-06
-3.45503e-06
-3.45864e-06
-3.00701e-06
-3.34117e-06
-3.26031e-06
-3.3192e-06
-3.07396e-06
-3.26374e-06
-3.23373e-06
-3.25748e-06
-3.08086e-06
-3.17259e-06
-3.16672e-06
-3.20173e-06
-3.10798e-06
-3.16063e-06
-3.16438e-06
-3.1814e-06
-3.11347e-06
-3.14105e-06
-3.14659e-06
-3.16161e-06
-3.12237e-06
-3.13965e-06
-3.14546e-06
-3.15475e-06
-3.12491e-06
-3.13503e-06
-3.13978e-06
-3.1473e-06
-3.03333e-06
-4.06209e-06
-3.9393e-06
-3.59896e-06
-2.89766e-06
-3.62831e-06
-3.48984e-06
-3.43484e-06
-3.05409e-06
-3.45503e-06
-3.45089e-06
-3.34401e-06
-3.0268e-06
-3.26031e-06
-3.24705e-06
-3.27948e-06
-3.09482e-06
-3.23373e-06
-3.24327e-06
-3.2475e-06
-3.08416e-06
-3.16672e-06
-3.1774e-06
-3.20702e-06
-3.11744e-06
-3.16438e-06
-3.1751e-06
-3.19072e-06
-3.11827e-06
-3.14659e-06
-3.15556e-06
-3.17162e-06
-3.12678e-06
-3.14546e-06
-3.15297e-06
-3.16362e-06
-3.12831e-06
-3.13978e-06
-3.14556e-06
-3.15415e-06
-2.81074e-06
-3.90886e-06
-3.59896e-06
-3.55902e-06
-2.87101e-06
-3.63159e-06
-3.43484e-06
-3.57641e-06
-2.96409e-06
-3.45864e-06
-3.34401e-06
-3.51218e-06
-3.02178e-06
-3.3192e-06
-3.27948e-06
-3.41439e-06
-3.07197e-06
-3.25748e-06
-3.2475e-06
-3.33896e-06
-3.09149e-06
-3.20173e-06
-3.20702e-06
-3.27118e-06
-3.11557e-06
-3.1814e-06
-3.19072e-06
-3.23171e-06
-3.12312e-06
-3.16161e-06
-3.17162e-06
-3.19911e-06
-3.13074e-06
-3.15475e-06
-3.16362e-06
-3.18162e-06
-3.13304e-06
-3.1473e-06
-3.15415e-06
-3.1662e-06
)
;

boundaryField
{
    inlet
    {
        type            zeroGradient;
    }
    outlet
    {
        type            totalPressure;
        rho             rho;
        psi             none;
        gamma           1;
        p0              nonuniform 0();
        value           nonuniform 0();
    }
    walls
    {
        type            zeroGradient;
    }
    procBoundary1to0
    {
        type            processor;
        value           nonuniform List<scalar> 
16
(
-2.4688e-06
-2.70599e-06
-2.77355e-06
-2.54151e-06
-2.70599e-06
-5.50815e-06
-4.31228e-06
-3.99733e-06
-2.77355e-06
-4.31228e-06
-3.81054e-06
-3.36724e-06
-2.54151e-06
-3.99733e-06
-3.36724e-06
-3.33282e-06
)
;
    }
}


// ************************************************************************* //
