/*--------------------------------*- C++ -*----------------------------------*\
| =========                 |                                                 |
| \\      /  F ield         | OpenFOAM: The Open Source CFD Toolbox           |
|  \\    /   O peration     | Version:  5.x                                   |
|   \\  /    A nd           | Web:      www.OpenFOAM.org                      |
|    \\/     M anipulation  |                                                 |
\*---------------------------------------------------------------------------*/
FoamFile
{
    version     2.0;
    format      ascii;
    class       surfaceScalarField;
    location    "0.08";
    object      phi;
}
// * * * * * * * * * * * * * * * * * * * * * * * * * * * * * * * * * * * * * //

dimensions      [0 3 -1 0 0 0 0];

internalField   nonuniform List<scalar> 
384
(
4.71713e-11
1.65579e-11
4.71713e-11
8.78622e-12
-2.06262e-11
4.13578e-10
-4.72286e-11
-1.69031e-11
3.43229e-10
1.23135e-11
9.68741e-11
1.49561e-11
1.35745e-11
1.49561e-11
4.98401e-12
-7.83377e-12
1.39179e-10
-1.1009e-11
-1.10396e-11
1.04018e-10
1.00257e-11
5.06477e-11
1.35011e-11
7.7547e-12
1.35011e-11
3.94755e-12
-4.82518e-13
8.61011e-11
-1.39646e-11
-3.75751e-12
7.00275e-11
7.2065e-12
3.77392e-11
4.64693e-12
5.57129e-12
4.64693e-12
2.15048e-12
9.06972e-14
3.13596e-11
-3.46198e-12
-2.13865e-12
2.58118e-11
5.2045e-12
1.90939e-11
4.30035e-12
3.30999e-12
4.30035e-12
1.45031e-12
1.1281e-12
1.73171e-11
-3.50536e-12
-4.17344e-15
1.53171e-11
3.18023e-12
1.27398e-11
1.7317e-12
2.20571e-12
1.7317e-12
9.47787e-13
7.34321e-13
7.70028e-12
-5.56957e-13
-8.43649e-14
7.31795e-12
2.0146e-12
6.77984e-12
1.47358e-12
1.35166e-12
1.47358e-12
7.50142e-13
6.84832e-13
3.92056e-12
-5.88878e-13
3.05837e-13
3.92251e-12
1.10311e-12
4.1412e-12
7.34781e-13
8.33401e-13
7.34781e-13
5.43485e-13
3.70334e-13
2.09447e-12
1.08246e-13
1.24388e-13
2.24594e-12
5.91052e-13
2.32652e-12
5.92644e-13
4.36572e-13
5.92644e-13
4.34781e-13
2.05351e-13
1.12631e-12
7.95055e-14
9.37527e-14
1.25054e-12
2.57908e-13
1.41895e-12
3.38136e-13
3.38136e-13
3.23607e-13
6.46513e-13
2.20482e-13
7.45574e-13
7.94437e-13
4.13578e-10
-2.06262e-11
8.78622e-12
-4.38862e-11
-5.58611e-10
-4.38862e-11
-3.30758e-10
-3.51686e-10
2.41266e-11
-6.0485e-11
5.1191e-12
1.39179e-10
-7.83377e-12
4.98401e-12
-5.32868e-12
-2.69596e-10
-5.32868e-12
-7.74365e-11
-1.8452e-10
8.95868e-12
-3.93091e-11
9.09145e-12
8.61011e-11
-4.82518e-13
3.94755e-12
2.2715e-12
-1.01937e-10
2.2715e-12
-5.12961e-11
-7.01085e-11
9.18405e-12
-2.29064e-11
8.63166e-12
3.13596e-11
9.06972e-14
2.15048e-12
3.98763e-12
-4.71931e-11
3.98763e-12
-1.08646e-11
-3.51642e-11
5.71982e-12
-1.31335e-11
7.44705e-12
1.73171e-11
1.1281e-12
1.45031e-12
3.07499e-12
-1.87089e-11
3.07499e-12
-6.29011e-12
-1.47036e-11
4.22161e-12
-6.88393e-12
5.6636e-12
7.70028e-12
7.34321e-13
9.47787e-13
2.41546e-12
-8.13932e-12
2.41546e-12
-9.62567e-13
-6.99964e-12
2.99198e-12
-3.75798e-12
3.89742e-12
3.92056e-12
6.84832e-13
7.50142e-13
1.53185e-12
-3.36191e-12
1.53185e-12
-2.77431e-13
-3.20142e-12
1.93357e-12
-1.96402e-12
2.64015e-12
2.09447e-12
3.70334e-13
5.43485e-13
1.11696e-12
-1.40688e-12
1.11696e-12
2.81993e-13
-1.49787e-12
1.37736e-12
-1.07191e-12
1.70875e-12
1.12631e-12
2.05351e-13
4.34781e-13
7.24055e-13
-6.02372e-13
7.24055e-13
2.99034e-13
-7.19036e-13
8.96724e-13
-5.73403e-13
1.14046e-12
6.46513e-13
3.23607e-13
5.12802e-13
5.12802e-13
3.19256e-13
6.17609e-13
7.16717e-13
3.43229e-10
-1.69031e-11
-4.72286e-11
2.41266e-11
-3.51686e-10
-3.30758e-10
-3.10937e-10
-3.46877e-10
-3.10937e-10
-3.62109e-11
-4.35003e-11
1.04018e-10
-1.10396e-11
-1.1009e-11
8.95868e-12
-1.8452e-10
-7.74365e-11
-6.82536e-11
-1.92452e-10
-6.82536e-11
-2.38947e-11
-7.7987e-12
7.00275e-11
-3.75751e-12
-1.39646e-11
9.18405e-12
-7.01085e-11
-5.12961e-11
-5.18607e-11
-7.03626e-11
-5.18607e-11
-1.35338e-11
-4.48975e-12
2.58118e-11
-2.13865e-12
-3.46198e-12
5.71982e-12
-3.51642e-11
-1.08646e-11
-1.10942e-11
-3.67345e-11
-1.10942e-11
-9.03818e-12
3.23807e-12
1.53171e-11
-4.17346e-15
-3.50536e-12
4.22161e-12
-1.47036e-11
-6.29011e-12
-6.47785e-12
-1.53356e-11
-6.47785e-12
-5.42188e-12
2.30659e-12
7.31795e-12
-8.43649e-14
-5.56957e-13
2.99198e-12
-6.99964e-12
-9.62567e-13
-8.25692e-13
-7.70024e-12
-8.25692e-13
-3.52959e-12
2.67213e-12
3.92251e-12
3.05837e-13
-5.88878e-13
1.93357e-12
-3.20142e-12
-2.77431e-13
-6.69171e-14
-3.69925e-12
-6.69171e-14
-2.17473e-12
1.74588e-12
2.24594e-12
1.24388e-13
1.08246e-13
1.37736e-12
-1.49787e-12
2.81993e-13
4.52354e-13
-1.84923e-12
4.52354e-13
-1.36419e-12
1.27986e-12
1.25054e-12
9.37527e-14
7.95056e-14
8.96724e-13
-7.19036e-13
2.99034e-13
4.42952e-13
-9.41691e-13
4.42952e-13
-7.99532e-13
8.54338e-13
7.45574e-13
2.20482e-13
6.17609e-13
3.19256e-13
3.9846e-13
3.9846e-13
5.71532e-13
9.68741e-11
1.23135e-11
5.1191e-12
-6.0485e-11
-4.35003e-11
-3.62109e-11
3.09943e-12
5.06477e-11
1.00257e-11
9.09145e-12
-3.93091e-11
-7.7987e-12
-2.38947e-11
-4.78105e-12
3.77392e-11
7.2065e-12
8.63166e-12
-2.29064e-11
-4.48975e-12
-1.35338e-11
-8.16173e-12
1.90939e-11
5.2045e-12
7.44705e-12
-1.31335e-11
3.23807e-12
-9.03818e-12
-7.62554e-12
1.27398e-11
3.18023e-12
5.6636e-12
-6.88393e-12
2.30659e-12
-5.42188e-12
-6.14752e-12
6.77984e-12
2.0146e-12
3.89742e-12
-3.75798e-12
2.67213e-12
-3.52959e-12
-4.36739e-12
4.1412e-12
1.10311e-12
2.64015e-12
-1.96402e-12
1.74588e-12
-2.17473e-12
-2.90613e-12
2.32652e-12
5.91052e-13
1.70875e-12
-1.07191e-12
1.27986e-12
-1.36419e-12
-1.8449e-12
1.41895e-12
2.57908e-13
1.14046e-12
-5.73403e-13
8.54338e-13
-7.99532e-13
-1.08058e-12
7.94437e-13
7.16717e-13
5.71532e-13
)
;

boundaryField
{
    inlet
    {
        type            calculated;
        value           nonuniform List<scalar> 
16
(
1.69291e-13
5.48434e-15
-5.7593e-14
8.71483e-14
5.48435e-15
-3.34953e-13
-3.97529e-13
-3.24237e-13
-5.7593e-14
-3.97529e-13
-5.03399e-13
-4.51551e-13
8.71484e-14
-3.24237e-13
-4.51551e-13
-5.75973e-13
)
;
    }
    outlet
    {
        type            calculated;
        value           nonuniform 0();
    }
    walls
    {
        type            calculated;
        value           nonuniform List<scalar> 
160
(
-4.07866e-11
-1.34644e-11
-1.05912e-11
-3.55523e-12
-3.16971e-12
-1.17956e-12
-1.04655e-12
-4.75654e-13
-3.94231e-13
-2.04496e-13
-4.25318e-10
-1.41999e-10
-8.38988e-11
-2.94363e-11
-1.55044e-11
-6.52259e-12
-3.14764e-12
-1.58868e-12
-8.03465e-13
-4.32119e-13
-2.93164e-10
-9.38881e-11
-5.93975e-11
-2.18182e-11
-1.24959e-11
-5.73302e-12
-2.97369e-12
-1.62925e-12
-8.64626e-13
-4.91106e-13
-9.37958e-11
-4.73164e-11
-3.42969e-11
-1.64126e-11
-1.04854e-11
-5.25509e-12
-3.06668e-12
-1.63837e-12
-9.57928e-13
-5.08516e-13
-4.7257e-11
-1.20526e-11
-1.45876e-11
-4.14126e-12
-3.73548e-12
-9.16072e-13
-7.51907e-13
-6.78494e-14
-4.83776e-14
1.05319e-13
-2.42813e-10
-5.70562e-11
-3.85912e-11
-8.99071e-12
-5.46348e-12
-1.2061e-12
-5.70328e-13
7.65369e-15
7.90197e-14
1.47807e-13
-2.94667e-10
-6.36796e-11
-4.91002e-11
-1.13808e-11
-6.73713e-12
-1.49269e-12
-5.27506e-13
7.07055e-14
1.64417e-13
1.95662e-13
-3.2559e-11
-3.85846e-12
-2.79941e-12
2.96998e-12
1.56758e-12
1.78206e-12
1.01525e-12
7.49238e-13
4.72175e-13
3.1923e-13
-4.07866e-11
-1.34644e-11
-1.05912e-11
-3.55523e-12
-3.16971e-12
-1.17956e-12
-1.04655e-12
-4.75654e-13
-3.94231e-13
-2.04496e-13
-4.25318e-10
-1.41999e-10
-8.38988e-11
-2.94363e-11
-1.55044e-11
-6.52259e-12
-3.14764e-12
-1.58868e-12
-8.03465e-13
-4.32119e-13
-2.93164e-10
-9.38881e-11
-5.93975e-11
-2.18182e-11
-1.24959e-11
-5.73302e-12
-2.97369e-12
-1.62925e-12
-8.64626e-13
-4.91106e-13
-9.37958e-11
-4.73164e-11
-3.42969e-11
-1.64126e-11
-1.04854e-11
-5.25509e-12
-3.06668e-12
-1.63837e-12
-9.57928e-13
-5.08516e-13
-4.7257e-11
-1.20526e-11
-1.45876e-11
-4.14126e-12
-3.73548e-12
-9.16072e-13
-7.51907e-13
-6.78494e-14
-4.83776e-14
1.05319e-13
-2.42813e-10
-5.70562e-11
-3.85912e-11
-8.99071e-12
-5.46348e-12
-1.2061e-12
-5.70328e-13
7.6537e-15
7.90197e-14
1.47807e-13
-2.94667e-10
-6.36796e-11
-4.91002e-11
-1.13808e-11
-6.73713e-12
-1.49269e-12
-5.27506e-13
7.07055e-14
1.64417e-13
1.95662e-13
-3.2559e-11
-3.85846e-12
-2.79941e-12
2.96998e-12
1.56758e-12
1.78206e-12
1.01525e-12
7.49238e-13
4.72175e-13
3.1923e-13
)
;
    }
    procBoundary1to0
    {
        type            processor;
        value           nonuniform List<scalar> 
16
(
-2.93273e-11
7.07519e-11
2.28526e-11
-1.53633e-11
7.07519e-11
1.47354e-09
9.5766e-10
6.42947e-11
2.28526e-11
9.5766e-10
1.017e-09
6.85604e-11
-1.53633e-11
6.42947e-11
6.85604e-11
-2.4982e-11
)
;
    }
}


// ************************************************************************* //
