/*--------------------------------*- C++ -*----------------------------------*\
| =========                 |                                                 |
| \\      /  F ield         | OpenFOAM: The Open Source CFD Toolbox           |
|  \\    /   O peration     | Version:  5.x                                   |
|   \\  /    A nd           | Web:      www.OpenFOAM.org                      |
|    \\/     M anipulation  |                                                 |
\*---------------------------------------------------------------------------*/
FoamFile
{
    version     2.0;
    format      ascii;
    class       volVectorField;
    location    "0.08";
    object      U;
}
// * * * * * * * * * * * * * * * * * * * * * * * * * * * * * * * * * * * * * //

dimensions      [0 1 -1 0 0 0 0];

internalField   nonuniform List<vector> 
160
(
(6.5599e-06 3.79294e-06 6.5599e-06)
(8.59235e-06 -3.16837e-06 6.84392e-05)
(-6.19828e-06 -6.19576e-07 4.71096e-05)
(-7.60507e-06 2.23896e-06 1.52242e-05)
(2.15787e-06 1.90744e-06 2.15787e-06)
(2.8628e-06 -3.34889e-06 2.29825e-05)
(-1.47552e-06 -4.22717e-06 1.51666e-05)
(-1.93367e-06 1.54084e-06 7.72082e-06)
(1.69554e-06 1.83909e-06 1.69554e-06)
(2.62768e-06 3.08332e-07 1.35599e-05)
(-1.60025e-06 7.44953e-08 9.5829e-06)
(-2.35179e-06 1.33072e-06 5.58516e-06)
(5.69656e-07 7.92933e-07 5.69656e-07)
(9.64778e-07 -4.32513e-07 4.7759e-06)
(-3.55291e-07 -1.04962e-06 3.5371e-06)
(-6.63592e-07 7.94782e-07 2.68474e-06)
(5.09999e-07 7.8705e-07 5.09999e-07)
(7.76363e-07 4.39145e-07 2.51824e-06)
(-3.78085e-07 2.0818e-07 2.02682e-06)
(-6.02188e-07 7.12156e-07 1.7143e-06)
(1.90331e-07 3.22574e-07 1.90331e-07)
(3.30391e-07 -2.05745e-08 1.06176e-06)
(-3.30447e-08 -1.85267e-07 9.33612e-07)
(-1.45125e-07 3.09781e-07 8.62584e-07)
(1.6963e-07 3.12694e-07 1.6963e-07)
(2.59717e-07 2.10928e-07 5.14036e-07)
(-4.05318e-08 1.36398e-07 4.85077e-07)
(-1.20674e-07 2.67358e-07 5.03668e-07)
(7.767e-08 1.35793e-07 7.767e-08)
(1.3508e-07 3.34371e-08 2.59643e-07)
(3.96316e-08 -1.37505e-08 2.66283e-07)
(-9.89692e-09 1.00157e-07 2.6974e-07)
(6.45064e-08 1.0758e-07 6.45064e-08)
(1.04678e-07 6.95528e-08 1.31971e-07)
(3.0318e-08 4.38426e-08 1.42034e-07)
(-6.95762e-09 7.02843e-08 1.58009e-07)
(3.38634e-08 2.78705e-08 3.38634e-08)
(6.1009e-08 1.37911e-09 7.1136e-08)
(4.3394e-08 -8.91333e-09 8.08421e-08)
(1.77836e-08 1.43957e-08 8.41757e-08)
(6.84392e-05 -3.16837e-06 8.59235e-06)
(5.00085e-05 -0.000115211 5.00085e-05)
(-6.07841e-05 -6.83132e-05 5.30851e-05)
(-3.88804e-05 -1.08778e-05 1.17345e-05)
(2.29825e-05 -3.34889e-06 2.8628e-06)
(1.60715e-05 -6.43109e-05 1.60715e-05)
(-1.68553e-05 -4.68663e-05 1.48809e-05)
(-9.12835e-06 -8.70213e-06 6.13991e-06)
(1.35599e-05 3.08332e-07 2.62768e-06)
(1.06798e-05 -1.89254e-05 1.06798e-05)
(-9.5627e-06 -1.23761e-05 1.06417e-05)
(-6.17388e-06 -3.76943e-06 4.80509e-06)
(4.7759e-06 -4.32513e-07 9.64778e-07)
(4.01387e-06 -1.22198e-05 4.01387e-06)
(-2.37589e-06 -9.26011e-06 3.84733e-06)
(-1.42687e-06 -3.21966e-06 2.54937e-06)
(2.51824e-06 4.39145e-07 7.76363e-07)
(2.32474e-06 -3.45824e-06 2.32474e-06)
(-1.11894e-06 -2.56235e-06 2.34498e-06)
(-8.69459e-07 -1.12486e-06 1.79473e-06)
(1.06176e-06 -2.05745e-08 3.30391e-07)
(1.09752e-06 -2.1465e-06 1.09752e-06)
(-1.88868e-07 -1.84018e-06 1.14523e-06)
(-1.86051e-07 -9.32105e-07 1.00531e-06)
(5.14036e-07 2.10928e-07 2.59717e-07)
(5.83777e-07 -6.26675e-07 5.83777e-07)
(-2.29581e-08 -5.67927e-07 6.29113e-07)
(-8.78872e-08 -3.32183e-07 6.42318e-07)
(2.59643e-07 3.34371e-08 1.3508e-07)
(3.30615e-07 -3.67627e-07 3.30615e-07)
(6.80184e-08 -3.76579e-07 3.71944e-07)
(4.19523e-09 -2.51578e-07 3.76588e-07)
(1.31971e-07 6.95528e-08 1.04678e-07)
(1.8549e-07 -1.19933e-07 1.8549e-07)
(6.78615e-08 -1.4352e-07 2.12636e-07)
(1.44815e-08 -1.12168e-07 2.37411e-07)
(7.1136e-08 1.37911e-09 6.1009e-08)
(1.10539e-07 -5.45063e-08 1.10539e-07)
(6.35951e-08 -6.47275e-08 1.2914e-07)
(2.51354e-08 -5.33482e-08 1.36478e-07)
(4.71096e-05 -6.19576e-07 -6.19828e-06)
(5.30851e-05 -6.83132e-05 -6.07841e-05)
(-4.451e-05 -5.7507e-05 -4.451e-05)
(-4.72141e-05 -6.2188e-06 -9.38353e-06)
(1.51666e-05 -4.22717e-06 -1.47552e-06)
(1.48809e-05 -4.68663e-05 -1.68553e-05)
(-1.12975e-05 -5.07394e-05 -1.12975e-05)
(-1.01996e-05 -5.74756e-06 -2.40167e-06)
(9.5829e-06 7.44953e-08 -1.60025e-06)
(1.06417e-05 -1.23761e-05 -9.5627e-06)
(-7.3237e-06 -1.14466e-05 -7.3237e-06)
(-7.87717e-06 -2.21445e-06 -1.37875e-06)
(3.5371e-06 -1.04962e-06 -3.55291e-07)
(3.84733e-06 -9.26011e-06 -2.37589e-06)
(-1.7063e-06 -9.79068e-06 -1.7063e-06)
(-1.81452e-06 -2.25006e-06 2.8769e-07)
(2.02682e-06 2.0818e-07 -3.78085e-07)
(2.34498e-06 -2.56235e-06 -1.11894e-06)
(-8.2782e-07 -2.57524e-06 -8.2782e-07)
(-1.0771e-06 -7.9904e-07 3.1156e-07)
(9.33612e-07 -1.85267e-07 -3.30447e-08)
(1.14523e-06 -1.84018e-06 -1.88868e-07)
(-6.95013e-08 -1.98328e-06 -6.95013e-08)
(-2.32971e-07 -8.44042e-07 4.16898e-07)
(4.85077e-07 1.36398e-07 -4.05318e-08)
(6.29113e-07 -5.67927e-07 -2.29581e-08)
(5.22792e-08 -6.52707e-07 5.22792e-08)
(-8.13113e-08 -3.50161e-07 3.03076e-07)
(2.66283e-07 -1.37505e-08 3.96316e-08)
(3.71944e-07 -3.76579e-07 6.80184e-08)
(1.09326e-07 -4.44152e-07 1.09326e-07)
(1.44891e-08 -3.02812e-07 2.26244e-07)
(1.42034e-07 4.38426e-08 3.0318e-08)
(2.12636e-07 -1.4352e-07 6.78615e-08)
(9.69765e-08 -1.92404e-07 9.69765e-08)
(2.84128e-08 -1.57555e-07 1.5778e-07)
(8.08421e-08 -8.91333e-09 4.3394e-08)
(1.2914e-07 -6.47275e-08 6.35951e-08)
(7.90285e-08 -8.20094e-08 7.90285e-08)
(3.30017e-08 -7.41184e-08 1.04671e-07)
(1.52242e-05 2.23896e-06 -7.60507e-06)
(1.17345e-05 -1.08778e-05 -3.88804e-05)
(-9.38353e-06 -6.2188e-06 -4.72141e-05)
(-5.21733e-06 1.28602e-06 -5.21733e-06)
(7.72082e-06 1.54084e-06 -1.93367e-06)
(6.13991e-06 -8.70213e-06 -9.12835e-06)
(-2.40167e-06 -5.74756e-06 -1.01996e-05)
(-5.89395e-07 -3.69721e-07 -5.89395e-07)
(5.58516e-06 1.33072e-06 -2.35179e-06)
(4.80509e-06 -3.76943e-06 -6.17388e-06)
(-1.37875e-06 -2.21445e-06 -7.87717e-06)
(-4.14699e-07 -1.0427e-06 -4.14699e-07)
(2.68474e-06 7.94782e-07 -6.63592e-07)
(2.54937e-06 -3.21966e-06 -1.42687e-06)
(2.8769e-07 -2.25006e-06 -1.81452e-06)
(5.01838e-07 -1.40432e-06 5.01838e-07)
(1.7143e-06 7.12156e-07 -6.02188e-07)
(1.79473e-06 -1.12486e-06 -8.69459e-07)
(3.1156e-07 -7.9904e-07 -1.0771e-06)
(2.68875e-07 -9.53246e-07 2.68875e-07)
(8.62584e-07 3.09781e-07 -1.45125e-07)
(1.00531e-06 -9.32105e-07 -1.86051e-07)
(4.16898e-07 -8.44042e-07 -2.32971e-07)
(2.97801e-07 -8.81035e-07 2.97801e-07)
(5.03668e-07 2.67358e-07 -1.20674e-07)
(6.42318e-07 -3.32183e-07 -8.78872e-08)
(3.03076e-07 -3.50161e-07 -8.13113e-08)
(1.70535e-07 -4.97501e-07 1.70535e-07)
(2.6974e-07 1.00157e-07 -9.89692e-09)
(3.76588e-07 -2.51578e-07 4.19523e-09)
(2.26244e-07 -3.02812e-07 1.44891e-08)
(1.25306e-07 -3.74454e-07 1.25306e-07)
(1.58009e-07 7.02843e-08 -6.95762e-09)
(2.37411e-07 -1.12168e-07 1.44815e-08)
(1.5778e-07 -1.57555e-07 2.84128e-08)
(7.91024e-08 -2.16848e-07 7.91024e-08)
(8.41757e-08 1.43957e-08 1.77836e-08)
(1.36478e-07 -5.33482e-08 2.51354e-08)
(1.04671e-07 -7.41184e-08 3.30017e-08)
(5.34522e-08 -9.51962e-08 5.34522e-08)
)
;

boundaryField
{
    inlet
    {
        type            fixedValue;
        value           uniform (0 0 0);
    }
    outlet
    {
        type            zeroGradient;
    }
    walls
    {
        type            fixedValue;
        value           uniform (0 0 0);
    }
    procBoundary1to0
    {
        type            processor;
        value           nonuniform List<vector> 
16
(
(5.90386e-06 4.86603e-06 5.90386e-06)
(5.07575e-06 -2.22907e-05 9.72988e-05)
(-3.53479e-06 -7.92693e-06 5.44459e-05)
(-2.28703e-06 2.00077e-06 1.81695e-05)
(9.72988e-05 -2.22907e-05 5.07575e-06)
(5.34541e-05 -0.000343954 5.34541e-05)
(-8.42898e-05 -0.000232165 3.76414e-05)
(-3.70458e-05 -1.18792e-05 1.13014e-05)
(5.44459e-05 -7.92693e-06 -3.53479e-06)
(3.76414e-05 -0.000232165 -8.42898e-05)
(-4.65164e-05 -0.000255226 -4.65164e-05)
(-2.74985e-05 -1.83205e-05 -1.22123e-05)
(1.81695e-05 2.00077e-06 -2.28703e-06)
(1.13014e-05 -1.18792e-05 -3.70458e-05)
(-1.22123e-05 -1.83205e-05 -2.74985e-05)
(-4.84841e-06 6.00256e-06 -4.84841e-06)
)
;
    }
}


// ************************************************************************* //
