/*--------------------------------*- C++ -*----------------------------------*\
| =========                 |                                                 |
| \\      /  F ield         | OpenFOAM: The Open Source CFD Toolbox           |
|  \\    /   O peration     | Version:  5.x                                   |
|   \\  /    A nd           | Web:      www.OpenFOAM.org                      |
|    \\/     M anipulation  |                                                 |
\*---------------------------------------------------------------------------*/
FoamFile
{
    version     2.0;
    format      ascii;
    class       volVectorField;
    location    "0.08";
    object      Us;
}
// * * * * * * * * * * * * * * * * * * * * * * * * * * * * * * * * * * * * * //

dimensions      [0 1 -1 0 0 0 0];

internalField   uniform (0 0 0);

boundaryField
{
    inlet
    {
        type            zeroGradient;
    }
    outlet
    {
        type            zeroGradient;
    }
    walls
    {
        type            zeroGradient;
    }
    procBoundary1to0
    {
        type            processor;
        value           nonuniform List<vector> 
16
(
(-8.88602e-14 -2.30778e-10 -8.88602e-14)
(-3.26254e-12 -8.47312e-09 -3.26254e-12)
(-3.34798e-12 -8.69501e-09 -3.34798e-12)
(-1.82415e-13 -4.73748e-10 -1.82415e-13)
(-3.26254e-12 -8.47312e-09 -3.26254e-12)
(-1.19061e-10 -3.09213e-07 -1.19061e-10)
(-1.22116e-10 -3.17146e-07 -1.22116e-10)
(-6.56813e-12 -1.70581e-08 -6.56813e-12)
(-3.34798e-12 -8.69501e-09 -3.34798e-12)
(-1.22116e-10 -3.17146e-07 -1.22116e-10)
(-1.25328e-10 -3.25487e-07 -1.25328e-10)
(-6.82567e-12 -1.77269e-08 -6.82567e-12)
(-1.82415e-13 -4.73748e-10 -1.82415e-13)
(-6.56813e-12 -1.70581e-08 -6.56813e-12)
(-6.82567e-12 -1.77269e-08 -6.82567e-12)
(-4.649e-13 -1.20739e-09 -4.649e-13)
)
;
    }
}


// ************************************************************************* //
