/*--------------------------------*- C++ -*----------------------------------*\
| =========                 |                                                 |
| \\      /  F ield         | OpenFOAM: The Open Source CFD Toolbox           |
|  \\    /   O peration     | Version:  5.x                                   |
|   \\  /    A nd           | Web:      www.OpenFOAM.org                      |
|    \\/     M anipulation  |                                                 |
\*---------------------------------------------------------------------------*/
FoamFile
{
    version     2.0;
    format      ascii;
    class       volScalarField;
    location    "0.1";
    object      Ksl;
}
// * * * * * * * * * * * * * * * * * * * * * * * * * * * * * * * * * * * * * //

dimensions      [1 -3 -1 0 0 0 0];

internalField   nonuniform List<scalar> 
320
(
0
0
0
0
4.16687e-05
0.000445764
0.000231308
1.73598e-05
0.000729252
0.0100901
0.00508263
0.000338465
0.0126855
0.194303
0.106087
0.00647255
0.186567
1.97531
0.987656
0.0989057
1.44605
3.08345
1.48778
0.718833
0.0731361
1.12717
0.570832
0.0366295
0.00191951
0.0370176
0.0187996
0.000931713
4.19717e-05
0.000692899
0.000358958
2.27228e-05
9.34924e-07
1.18207e-05
6.60324e-06
5.82339e-07
0
0
0
0
0
0
0
0
0
0
0
0
0
0
0
0
0
0
0
0
0
0
0
0
0
0
0
0
0
0
0
0
0
0
0
0
0
0
0
0
0
6.07971e-05
7.56368e-05
0
0.000445764
0.00216394
0.00199433
0.000506439
0.0100901
0.0635371
0.0571578
0.0103833
0.194303
3.40653
1.84621
0.186956
1.97531
3.27021
1.54117
1.08622
3.08345
3.19578
1.50969
1.46125
1.12717
4.44288
1.73288
0.524961
0.0370176
0.1793
0.220803
0.0150131
0.000692899
0.00256101
0.00281061
0.00032079
1.18207e-05
5.51399e-05
4.11284e-05
7.70172e-06
0
1.92682e-06
1.28189e-06
0
0
0
0
0
0
0
0
0
0
0
0
0
0
0
0
0
0
0
0
0
0
0
0
0
0
0
0
0
0
0
0
0
0
0
0
0
0
7.56368e-05
9.29949e-05
0
0.000231308
0.00199433
0.00189213
0.000145758
0.00508263
0.0571578
0.0529961
0.00354174
0.106087
1.84621
1.06186
0.0844223
0.987656
1.54117
1.02343
0.676188
1.48778
1.50969
1.00886
0.986849
0.570832
1.73288
1.09695
0.374729
0.0187996
0.220803
0.263864
0.0117157
0.000358958
0.00281061
0.00311796
0.000229402
6.60324e-06
4.11284e-05
2.60743e-05
5.27812e-06
0
1.28189e-06
1.16338e-06
0
0
0
0
0
0
0
0
0
0
0
0
0
0
0
0
0
0
0
0
0
0
0
0
0
0
0
0
0
0
0
0
0
0
0
0
0
0
0
0
0
1.73598e-05
0.000506439
0.000145758
0
0.000338465
0.0103833
0.00354174
0.000189968
0.00647255
0.186956
0.0844223
0.00440608
0.0989057
1.08622
0.676188
0.0686938
0.718833
1.46125
0.986849
0.492699
0.0366295
0.524961
0.374729
0.0251458
0.000931713
0.0150131
0.0117157
0.000638861
2.27228e-05
0.00032079
0.000229402
1.56252e-05
5.82339e-07
7.70172e-06
5.27812e-06
4.07351e-07
0
0
0
0
0
0
0
0
0
0
0
0
0
0
0
0
0
0
0
0
0
0
0
0
0
0
0
0
0
0
0
0
0
0
0
0
0
0
0
0
)
;

boundaryField
{
    inlet
    {
        type            zeroGradient;
    }
    outlet
    {
        type            zeroGradient;
    }
    walls
    {
        type            zeroGradient;
    }
}


// ************************************************************************* //
