/*--------------------------------*- C++ -*----------------------------------*\
| =========                 |                                                 |
| \\      /  F ield         | OpenFOAM: The Open Source CFD Toolbox           |
|  \\    /   O peration     | Version:  5.x                                   |
|   \\  /    A nd           | Web:      www.OpenFOAM.org                      |
|    \\/     M anipulation  |                                                 |
\*---------------------------------------------------------------------------*/
FoamFile
{
    version     2.0;
    format      ascii;
    class       volScalarField;
    location    "0.1";
    object      p;
}
// * * * * * * * * * * * * * * * * * * * * * * * * * * * * * * * * * * * * * //

dimensions      [0 2 -2 0 0 0 0];

internalField   nonuniform List<scalar> 
320
(
-3.11705e-08
4.0885e-08
-2.34435e-08
-5.00563e-08
-1.66345e-07
1.21721e-07
-1.2395e-07
-2.29013e-07
-4.67898e-07
1.84307e-07
-3.42878e-07
-5.65502e-07
-1.17407e-06
-3.92755e-08
-9.07776e-07
-1.27878e-06
-2.24379e-06
1.75405e-06
-9.03342e-07
-2.52927e-06
-6.97734e-06
-5.76624e-06
-6.66756e-06
-7.03159e-06
-1.29321e-05
-1.57778e-05
-1.40675e-05
-1.27616e-05
-1.60549e-05
-1.81065e-05
-1.6687e-05
-1.58198e-05
-1.71375e-05
-1.79861e-05
-1.72549e-05
-1.70311e-05
-1.77863e-05
-1.83705e-05
-1.79036e-05
-1.77608e-05
-1.81424e-05
-1.85197e-05
-1.82721e-05
-1.81482e-05
-1.82713e-05
-1.84894e-05
-1.83114e-05
-1.82779e-05
-1.84288e-05
-1.85318e-05
-1.84619e-05
-1.84404e-05
-1.83775e-05
-1.84281e-05
-1.83834e-05
-1.83799e-05
-1.85004e-05
-1.85264e-05
-1.85088e-05
-1.85048e-05
-1.84118e-05
-1.84236e-05
-1.84117e-05
-1.84121e-05
-1.85039e-05
-1.851e-05
-1.8506e-05
-1.85053e-05
-1.84352e-05
-1.8438e-05
-1.84338e-05
-1.84347e-05
-1.8487e-05
-1.84888e-05
-1.84885e-05
-1.84876e-05
-1.84575e-05
-1.84598e-05
-1.84587e-05
-1.84576e-05
4.0885e-08
1.69474e-07
6.18289e-08
1.30973e-08
1.21721e-07
6.5451e-07
2.23099e-07
3.15344e-08
1.84307e-07
1.6834e-06
5.69403e-07
8.96989e-09
-3.92755e-08
3.6243e-06
8.76628e-07
-1.7847e-07
1.75405e-06
1.98755e-05
8.84575e-06
7.30834e-07
-5.76624e-06
-2.42625e-06
-5.16473e-06
-5.87572e-06
-1.57778e-05
-3.62996e-05
-2.37059e-05
-1.50068e-05
-1.81065e-05
-2.47341e-05
-2.02389e-05
-1.74895e-05
-1.79861e-05
-1.97402e-05
-1.82112e-05
-1.77705e-05
-1.83705e-05
-1.91738e-05
-1.83498e-05
-1.82733e-05
-1.85197e-05
-1.89135e-05
-1.85074e-05
-1.84846e-05
-1.84894e-05
-1.87589e-05
-1.84902e-05
-1.84911e-05
-1.85318e-05
-1.86444e-05
-1.85403e-05
-1.8536e-05
-1.84281e-05
-1.84935e-05
-1.84257e-05
-1.84313e-05
-1.85264e-05
-1.8555e-05
-1.85313e-05
-1.85303e-05
-1.84236e-05
-1.8437e-05
-1.84206e-05
-1.84215e-05
-1.851e-05
-1.85165e-05
-1.8512e-05
-1.85127e-05
-1.8438e-05
-1.84409e-05
-1.84365e-05
-1.84362e-05
-1.84888e-05
-1.849e-05
-1.84897e-05
-1.84897e-05
-1.84598e-05
-1.84629e-05
-1.84613e-05
-1.84599e-05
-2.34435e-08
6.18289e-08
-6.67657e-09
-4.05375e-08
-1.2395e-07
2.23099e-07
-2.49908e-08
-1.754e-07
-3.42878e-07
5.69403e-07
5.29868e-08
-4.1359e-07
-9.07776e-07
8.76628e-07
-5.70933e-07
-1.01984e-06
-9.03342e-07
8.84575e-06
4.77618e-06
-1.25222e-06
-6.66756e-06
-5.16473e-06
-6.17282e-06
-6.76354e-06
-1.40675e-05
-2.37059e-05
-1.95924e-05
-1.39655e-05
-1.6687e-05
-2.02389e-05
-1.83558e-05
-1.64276e-05
-1.72549e-05
-1.82112e-05
-1.74099e-05
-1.71001e-05
-1.79036e-05
-1.83498e-05
-1.79143e-05
-1.78384e-05
-1.82721e-05
-1.85074e-05
-1.82681e-05
-1.82548e-05
-1.83114e-05
-1.84902e-05
-1.83166e-05
-1.83061e-05
-1.84619e-05
-1.85403e-05
-1.84858e-05
-1.84644e-05
-1.83834e-05
-1.84257e-05
-1.83782e-05
-1.83826e-05
-1.85088e-05
-1.85313e-05
-1.85184e-05
-1.85111e-05
-1.84117e-05
-1.84206e-05
-1.84075e-05
-1.84112e-05
-1.8506e-05
-1.8512e-05
-1.85099e-05
-1.85072e-05
-1.84338e-05
-1.84365e-05
-1.84326e-05
-1.84344e-05
-1.84885e-05
-1.84897e-05
-1.84891e-05
-1.84878e-05
-1.84587e-05
-1.84613e-05
-1.84604e-05
-1.84592e-05
-5.00563e-08
1.30973e-08
-4.05375e-08
-6.4876e-08
-2.29013e-07
3.15344e-08
-1.754e-07
-2.77253e-07
-5.65502e-07
8.96989e-09
-4.1359e-07
-6.38374e-07
-1.27878e-06
-1.7847e-07
-1.01984e-06
-1.40289e-06
-2.52927e-06
7.30834e-07
-1.25222e-06
-2.77053e-06
-7.03159e-06
-5.87572e-06
-6.76354e-06
-7.07335e-06
-1.27616e-05
-1.50068e-05
-1.39655e-05
-1.24724e-05
-1.58198e-05
-1.74895e-05
-1.64276e-05
-1.55712e-05
-1.70311e-05
-1.77705e-05
-1.71001e-05
-1.69025e-05
-1.77608e-05
-1.82733e-05
-1.78384e-05
-1.77052e-05
-1.81482e-05
-1.84846e-05
-1.82548e-05
-1.81329e-05
-1.82779e-05
-1.84911e-05
-1.83061e-05
-1.82671e-05
-1.84404e-05
-1.8536e-05
-1.84644e-05
-1.84406e-05
-1.83799e-05
-1.84313e-05
-1.83826e-05
-1.83782e-05
-1.85048e-05
-1.85303e-05
-1.85111e-05
-1.85062e-05
-1.84121e-05
-1.84215e-05
-1.84112e-05
-1.84108e-05
-1.85053e-05
-1.85127e-05
-1.85072e-05
-1.85062e-05
-1.84347e-05
-1.84362e-05
-1.84344e-05
-1.84344e-05
-1.84876e-05
-1.84897e-05
-1.84878e-05
-1.84876e-05
-1.84576e-05
-1.84599e-05
-1.84592e-05
-1.84576e-05
)
;

boundaryField
{
    inlet
    {
        type            zeroGradient;
    }
    outlet
    {
        type            totalPressure;
        rho             rho;
        psi             none;
        gamma           1;
        p0              uniform 0;
        value           nonuniform List<scalar> 
16
(
-1.86842e-13
0
-2.28577e-13
-6.25702e-13
0
0
0
-2.44158e-14
-2.28577e-13
0
-2.52417e-13
-6.39538e-13
-6.25702e-13
-2.44158e-14
-6.39538e-13
-1.27976e-12
)
;
    }
    walls
    {
        type            zeroGradient;
    }
}


// ************************************************************************* //
