/*--------------------------------*- C++ -*----------------------------------*\
| =========                 |                                                 |
| \\      /  F ield         | OpenFOAM: The Open Source CFD Toolbox           |
|  \\    /   O peration     | Version:  5.x                                   |
|   \\  /    A nd           | Web:      www.OpenFOAM.org                      |
|    \\/     M anipulation  |                                                 |
\*---------------------------------------------------------------------------*/
FoamFile
{
    version     2.0;
    format      ascii;
    class       surfaceScalarField;
    location    "0.1";
    object      phi;
}
// * * * * * * * * * * * * * * * * * * * * * * * * * * * * * * * * * * * * * //

dimensions      [0 3 -1 0 0 0 0];

internalField   nonuniform List<scalar> 
784
(
-1.22736e-12
5.37182e-12
-1.22736e-12
1.77069e-12
-6.03852e-12
-2.21764e-12
1.95319e-12
3.92227e-12
-1.61199e-12
9.54374e-12
-1.20681e-12
-4.93401e-12
1.52398e-11
-4.93401e-12
6.19164e-12
-7.90045e-12
-9.26371e-12
6.49136e-12
1.02571e-11
-6.63449e-12
2.04013e-11
-4.36616e-12
-1.30739e-11
4.13875e-11
-1.30739e-11
1.34081e-11
-5.13761e-12
-2.92448e-11
1.57764e-11
2.74411e-11
-1.95523e-11
4.79191e-11
-1.17415e-11
-3.2075e-11
1.05538e-10
-3.2075e-11
2.75299e-11
2.34187e-11
-8.81613e-11
3.5564e-11
7.47307e-11
-5.53236e-11
1.12202e-10
-2.87184e-11
-7.64355e-11
2.58409e-10
-7.64355e-11
5.26108e-11
2.0109e-10
-3.06717e-10
7.45645e-11
2.37772e-10
-1.84995e-10
2.52511e-10
-6.57449e-11
-9.98099e-11
4.58028e-10
-9.98099e-11
6.41935e-11
4.45831e-10
-4.08746e-10
1.01192e-10
4.5083e-10
-2.50057e-10
4.42126e-10
-8.84226e-11
-4.00531e-11
5.38135e-10
-4.00531e-11
2.01479e-11
4.9276e-10
-1.0713e-10
5.2825e-11
5.04494e-10
-8.6341e-11
5.35989e-10
-4.10379e-11
1.36407e-11
5.10853e-10
1.36407e-11
-1.24075e-11
4.05027e-10
1.13781e-10
-1.05409e-11
4.57799e-10
4.48281e-11
5.17159e-10
8.28936e-12
4.03806e-11
4.30092e-10
4.03806e-11
-5.8454e-11
3.09848e-10
1.94014e-10
-4.67199e-11
4.02695e-10
4.33698e-11
4.4169e-10
2.87486e-11
8.49314e-11
2.60229e-10
8.49314e-11
-6.12093e-11
1.54582e-10
3.01406e-10
-9.46182e-11
2.41651e-10
1.94454e-10
2.71437e-10
7.56346e-11
7.58146e-11
1.086e-10
7.58146e-11
-2.73228e-11
3.14426e-11
2.26277e-10
-8.13706e-11
7.83735e-11
2.17325e-10
1.1529e-10
7.47769e-11
2.60648e-11
5.64707e-11
2.60648e-11
-1.77773e-11
8.59854e-12
6.66862e-11
-2.95851e-11
3.33047e-11
5.68766e-11
6.1138e-11
2.45668e-11
1.83581e-11
1.97544e-11
1.83581e-11
-7.83645e-12
-5.86681e-14
3.48518e-11
-2.0592e-11
1.14089e-11
3.46514e-11
2.25043e-11
1.80418e-11
4.61701e-12
1.05204e-11
4.61701e-12
-4.13144e-12
-1.75935e-12
1.04491e-11
-5.88564e-12
4.32897e-12
8.83412e-12
1.22911e-11
4.32749e-12
3.7007e-12
3.11901e-12
3.7007e-12
-2.05098e-12
-8.09021e-13
4.80135e-12
-4.59184e-12
1.77752e-12
5.09232e-12
4.0062e-12
3.69311e-12
6.69147e-13
1.78071e-12
6.69147e-13
-9.93842e-13
-8.15623e-13
1.66959e-12
-1.0251e-12
4.16815e-13
1.39196e-12
2.43236e-12
5.48742e-13
6.83562e-13
4.13586e-13
6.83562e-13
-4.82113e-13
-2.79902e-13
6.29957e-13
-1.0589e-12
2.92392e-13
7.01212e-13
6.51117e-13
7.22343e-13
9.93878e-14
2.14812e-13
9.93878e-14
-2.46371e-13
-2.13624e-13
2.79481e-13
-1.73748e-13
1.01912e-14
2.09578e-13
4.31548e-13
4.5821e-14
1.1869e-13
-2.25667e-14
1.1869e-13
-1.26142e-13
-6.53799e-14
9.65886e-14
-2.60955e-13
2.84273e-14
1.16578e-13
3.12697e-14
1.39324e-13
-1.12829e-14
-1.12829e-14
-7.98342e-14
3.1729e-15
-4.36473e-14
-7.75829e-15
-1.2377e-14
-2.21764e-12
-6.03852e-12
1.77069e-12
2.49077e-12
-2.7973e-11
2.49077e-12
2.70175e-12
-1.08969e-11
1.88244e-12
-1.40399e-13
1.66522e-12
-9.26371e-12
-7.90045e-12
6.19164e-12
9.76699e-12
-6.60344e-11
9.76699e-12
1.11433e-11
-2.54736e-11
6.56588e-12
1.49955e-12
5.13719e-12
-2.92448e-11
-5.13761e-12
1.34081e-11
2.45077e-11
-1.73539e-10
2.45077e-11
3.10978e-11
-6.67395e-11
1.51235e-11
9.49729e-12
1.13586e-11
-8.81613e-11
2.34187e-11
2.75299e-11
6.39392e-11
-4.7774e-10
6.39392e-11
8.58828e-11
-1.79287e-10
3.52801e-11
4.35248e-11
2.31368e-11
-3.06717e-10
2.0109e-10
5.26108e-11
1.75206e-10
-1.44159e-09
1.75206e-10
2.7594e-10
-5.41932e-10
7.69169e-11
2.13432e-10
4.02879e-11
-4.08746e-10
4.45831e-10
6.41935e-11
2.29179e-10
-2.71744e-09
2.29179e-10
4.09778e-10
-1.06614e-09
9.35542e-11
4.84223e-10
5.05644e-11
-1.0713e-10
4.9276e-10
2.01479e-11
5.85473e-11
-3.04879e-09
5.85473e-11
1.72514e-10
-1.29016e-09
2.3708e-11
5.968e-10
1.88991e-11
1.13781e-10
4.05027e-10
-1.24075e-11
-5.43459e-11
-2.71254e-09
-5.43459e-11
-8.29194e-11
-1.19365e-09
-2.31117e-11
5.32024e-10
-9.85392e-12
1.94014e-10
3.09848e-10
-5.8454e-11
-1.77525e-10
-1.96946e-09
-1.77525e-10
-2.05782e-10
-9.97495e-10
-1.24524e-10
4.08642e-10
-5.3652e-11
3.01406e-10
1.54582e-10
-6.12093e-11
-1.87066e-10
-9.92511e-10
-1.87066e-10
-3.29464e-10
-5.70798e-10
-8.98463e-11
2.03825e-10
-4.9012e-11
2.26277e-10
3.14426e-11
-2.73228e-11
-8.08329e-11
-3.78292e-10
-8.08329e-11
-2.39342e-10
-1.97472e-10
2.50809e-12
5.57185e-11
-1.6458e-11
6.66862e-11
8.59854e-12
-1.77773e-11
-3.96625e-11
-1.65595e-10
-3.96625e-11
-7.37896e-11
-9.20081e-11
-1.44601e-11
2.09527e-11
-1.4457e-11
3.48518e-11
-5.86681e-14
-7.83645e-12
-1.61993e-11
-6.34927e-11
-1.61993e-11
-3.90799e-11
-3.17603e-11
-2.71575e-12
5.68016e-12
-5.7656e-12
1.04491e-11
-1.75935e-12
-4.13144e-12
-7.82102e-12
-2.69523e-11
-7.82102e-12
-1.22911e-11
-1.46962e-11
-3.75984e-12
1.4102e-12
-3.69365e-12
4.80135e-12
-8.09021e-13
-2.05098e-12
-3.06108e-12
-1.12275e-11
-3.06108e-12
-6.05917e-12
-5.3103e-12
-1.29554e-12
8.20957e-13
-1.77682e-12
1.66959e-12
-8.15623e-13
-9.93842e-13
-1.72926e-12
-4.42978e-12
-1.72926e-12
-2.28872e-12
-2.41183e-12
-9.47044e-13
-1.04323e-13
-8.14692e-13
6.29957e-13
-2.79902e-13
-4.82113e-13
-5.4975e-13
-2.07036e-12
-5.4975e-13
-9.5964e-13
-8.91968e-13
-4.08764e-13
1.88707e-13
-5.30327e-13
2.79481e-13
-2.13624e-13
-2.46371e-13
-4.14729e-13
-6.8194e-13
-4.14729e-13
-4.55587e-13
-3.80023e-13
-2.61508e-13
-4.24466e-14
-1.78612e-13
9.65886e-14
-6.53799e-14
-1.26142e-13
-1.24347e-13
-2.40067e-13
-1.24347e-13
-2.27648e-13
-3.78865e-14
-1.22257e-13
1.96125e-14
-1.50384e-13
3.1729e-15
-7.98342e-14
-1.1686e-13
-1.1686e-13
-7.97094e-14
-8.27945e-14
-7.24736e-14
-1.61199e-12
3.92227e-12
1.95319e-12
1.88244e-12
-1.08969e-11
2.70175e-12
2.39114e-12
-3.6422e-14
2.39114e-12
8.33333e-12
1.86104e-12
-6.63449e-12
1.02571e-11
6.49136e-12
6.56588e-12
-2.54736e-11
1.11433e-11
8.34587e-12
-3.59641e-12
8.34587e-12
1.59792e-11
5.8372e-12
-1.95523e-11
2.74411e-11
1.57764e-11
1.51235e-11
-6.67395e-11
3.10978e-11
2.24421e-11
-1.82335e-11
2.24421e-11
3.53553e-11
1.44246e-11
-5.53236e-11
7.47307e-11
3.5564e-11
3.52801e-11
-1.79287e-10
8.58828e-11
5.65453e-11
-6.07639e-11
5.65453e-11
8.34508e-11
3.15867e-11
-1.84995e-10
2.37772e-10
7.45645e-11
7.69169e-11
-5.41932e-10
2.7594e-10
1.79959e-10
-2.66847e-10
1.79959e-10
2.37676e-10
6.60209e-11
-2.50057e-10
4.5083e-10
1.01192e-10
9.35542e-11
-1.06614e-09
4.09778e-10
2.56788e-10
-5.93315e-10
2.56788e-10
4.55489e-10
8.95404e-11
-8.6341e-11
5.04494e-10
5.2825e-11
2.3708e-11
-1.29016e-09
1.72514e-10
1.09301e-10
-7.645e-10
1.09301e-10
5.34074e-10
4.96143e-11
4.48281e-11
4.57799e-10
-1.05409e-11
-2.31117e-11
-1.19365e-09
-8.29194e-11
-3.67834e-11
-7.37157e-10
-3.67834e-11
4.94804e-10
-7.36703e-12
4.33698e-11
4.02695e-10
-4.67199e-11
-1.24524e-10
-9.97495e-10
-2.05782e-10
-6.89932e-11
-8.48218e-10
-6.89932e-11
4.08609e-10
-3.64508e-11
1.94454e-10
2.41651e-10
-9.46182e-11
-8.98463e-11
-5.70798e-10
-3.29464e-10
-2.11326e-10
-6.05259e-10
-2.11326e-10
2.31282e-10
-8.30106e-11
2.17325e-10
7.83735e-11
-8.13706e-11
2.50809e-12
-1.97472e-10
-2.39342e-10
-2.10459e-10
-1.79325e-10
-2.10459e-10
8.14162e-11
-7.70508e-11
5.68766e-11
3.33047e-11
-2.95851e-11
-1.44601e-11
-9.20081e-11
-7.37896e-11
-5.85219e-11
-9.12017e-11
-5.85219e-11
3.57403e-11
-2.7303e-11
3.46514e-11
1.14089e-11
-2.0592e-11
-2.71575e-12
-3.17603e-11
-3.90799e-11
-3.5841e-11
-2.49513e-11
-3.5841e-11
1.4028e-11
-1.98943e-11
8.83412e-12
4.32897e-12
-5.88564e-12
-3.75984e-12
-1.46962e-11
-1.22911e-11
-9.8399e-12
-1.27911e-11
-9.8399e-12
6.00952e-12
-5.51504e-12
5.09232e-12
1.77752e-12
-4.59184e-12
-1.29554e-12
-5.3103e-12
-6.05917e-12
-6.07332e-12
-3.23556e-12
-6.07332e-12
2.7265e-12
-4.56711e-12
1.39196e-12
4.16815e-13
-1.0251e-12
-9.47044e-13
-2.41183e-12
-2.28872e-12
-1.68004e-12
-1.76956e-12
-1.68004e-12
1.15382e-12
-9.2205e-13
7.01212e-13
2.92392e-13
-1.0589e-12
-4.08764e-13
-8.91968e-13
-9.5964e-13
-1.15431e-12
-2.78467e-13
-1.15431e-12
5.51534e-13
-1.08235e-12
2.09578e-13
1.01912e-14
-1.73748e-13
-2.61508e-13
-3.80023e-13
-4.55587e-13
-2.84423e-13
-2.32638e-13
-2.84423e-13
2.23657e-13
-1.35158e-13
1.16578e-13
2.84273e-14
-2.60955e-13
-1.22257e-13
-3.78865e-14
-2.27648e-13
-2.66265e-13
5.5377e-14
-2.66265e-13
8.50093e-14
-2.78001e-13
-7.75829e-15
-4.36473e-14
-8.27945e-14
-7.97094e-14
-5.51059e-14
-5.51059e-14
-4.25699e-14
-1.20681e-12
9.54374e-12
1.66522e-12
-1.40399e-13
1.86104e-12
8.33333e-12
1.31892e-11
-4.36616e-12
2.04013e-11
5.13719e-12
1.49955e-12
5.8372e-12
1.59792e-11
2.48637e-11
-1.17415e-11
4.79191e-11
1.13586e-11
9.49729e-12
1.44246e-11
3.53553e-11
5.37127e-11
-2.87184e-11
1.12202e-10
2.31368e-11
4.35248e-11
3.15867e-11
8.34508e-11
1.16886e-10
-6.57449e-11
2.52511e-10
4.02879e-11
2.13432e-10
6.60209e-11
2.37676e-10
2.48928e-10
-8.84226e-11
4.42126e-10
5.05644e-11
4.84223e-10
8.95404e-11
4.55489e-10
4.28009e-10
-4.10379e-11
5.35989e-10
1.88991e-11
5.968e-10
4.96143e-11
5.34074e-10
5.27237e-10
8.28936e-12
5.17159e-10
-9.85392e-12
5.32024e-10
-7.36703e-12
4.94804e-10
5.12503e-10
2.87486e-11
4.4169e-10
-5.3652e-11
4.08642e-10
-3.64508e-11
4.08609e-10
4.39602e-10
7.56346e-11
2.71437e-10
-4.9012e-11
2.03825e-10
-8.30106e-11
2.31282e-10
2.73581e-10
7.47769e-11
1.1529e-10
-1.6458e-11
5.57185e-11
-7.70508e-11
8.14162e-11
1.19479e-10
2.45668e-11
6.1138e-11
-1.4457e-11
2.09527e-11
-2.7303e-11
3.57403e-11
6.48731e-11
1.80418e-11
2.25043e-11
-5.7656e-12
5.68016e-12
-1.98943e-11
1.4028e-11
2.50846e-11
4.32749e-12
1.22911e-11
-3.69365e-12
1.4102e-12
-5.51504e-12
6.00952e-12
1.40545e-11
3.69311e-12
4.0062e-12
-1.77682e-12
8.20957e-13
-4.56711e-12
2.7265e-12
4.92027e-12
5.48742e-13
2.43236e-12
-8.14692e-13
-1.04323e-13
-9.2205e-13
1.15382e-12
3.07617e-12
7.22343e-13
6.51117e-13
-5.30327e-13
1.88707e-13
-1.08235e-12
5.51534e-13
9.11458e-13
4.5821e-14
4.31548e-13
-1.78612e-13
-4.24466e-14
-1.35158e-13
2.23657e-13
6.41141e-13
1.39324e-13
3.12697e-14
-1.50384e-13
1.96125e-14
-2.78001e-13
8.50093e-14
8.51395e-14
-1.2377e-14
-7.24736e-14
-4.25699e-14
)
;

boundaryField
{
    inlet
    {
        type            calculated;
        value           uniform 0;
    }
    outlet
    {
        type            calculated;
        value           nonuniform List<scalar> 
16
(
-2.91709e-12
5.25811e-12
-2.49278e-12
-6.38374e-12
5.25811e-12
1.85562e-11
7.19146e-12
-2.98809e-14
-2.49278e-12
7.19146e-12
-9.80987e-13
-6.13803e-12
-6.38374e-12
-2.98809e-14
-6.13803e-12
-9.46715e-12
)
;
    }
    walls
    {
        type            calculated;
        value           nonuniform List<scalar> 
320
(
0
1.54587e-28
1.32483e-25
1.01558e-22
5.48476e-20
1.04073e-17
1.42432e-20
4.99294e-24
1.45824e-27
4.33683e-31
0
0
0
0
0
0
0
0
0
0
0
2.02587e-26
2.69542e-23
2.85962e-20
1.42316e-17
8.1562e-16
8.06992e-18
3.5402e-21
8.85106e-25
2.01637e-28
0
0
0
0
0
0
0
0
0
0
0
9.99103e-27
1.30662e-23
1.52166e-20
7.02539e-18
3.93678e-16
4.08712e-18
1.82147e-21
4.7054e-25
1.17063e-28
0
0
0
0
0
0
0
0
0
0
0
2.13871e-29
2.45016e-26
2.58156e-23
1.93297e-20
5.17435e-18
7.13461e-21
3.68311e-24
1.62046e-27
7.02142e-31
0
0
0
0
0
0
0
0
0
0
0
-2.13871e-29
-2.45016e-26
-2.58156e-23
-1.93297e-20
-5.17435e-18
-7.13461e-21
-3.68311e-24
-1.62046e-27
-7.02142e-31
0
0
0
0
0
0
0
0
0
0
0
-9.16002e-27
-1.37926e-23
-1.82353e-20
-7.77757e-18
-3.86735e-16
-3.73536e-18
-2.15405e-21
-8.24908e-25
-3.32689e-28
0
0
0
0
0
0
0
0
0
0
0
-2.53716e-27
-4.58524e-24
-8.12892e-21
-4.8423e-18
-2.61193e-16
-2.7013e-18
-1.7249e-21
-6.13034e-25
-2.39913e-28
0
0
0
0
0
0
0
0
0
0
0
0
-6.91281e-27
-1.17692e-23
-1.34687e-20
-3.54767e-18
-7.39535e-21
-5.1165e-24
-2.83965e-27
-1.5114e-30
0
0
0
0
0
0
0
0
0
0
0
1.54587e-28
1.32483e-25
1.01558e-22
5.48476e-20
1.04073e-17
1.42432e-20
4.99294e-24
1.45824e-27
4.33683e-31
0
0
0
0
0
0
0
0
0
0
0
2.02587e-26
2.69542e-23
2.85962e-20
1.42316e-17
8.1562e-16
8.06992e-18
3.5402e-21
8.85106e-25
2.01637e-28
0
0
0
0
0
0
0
0
0
0
0
9.99103e-27
1.30662e-23
1.52166e-20
7.02539e-18
3.93678e-16
4.08712e-18
1.82147e-21
4.7054e-25
1.17063e-28
0
0
0
0
0
0
0
0
0
0
0
2.13871e-29
2.45016e-26
2.58156e-23
1.93297e-20
5.17435e-18
7.13461e-21
3.68311e-24
1.62046e-27
7.02142e-31
0
0
0
0
0
0
0
0
0
0
0
-2.13871e-29
-2.45016e-26
-2.58156e-23
-1.93297e-20
-5.17435e-18
-7.13461e-21
-3.68311e-24
-1.62046e-27
-7.02142e-31
0
0
0
0
0
0
0
0
0
0
0
-9.16002e-27
-1.37926e-23
-1.82353e-20
-7.77757e-18
-3.86735e-16
-3.73536e-18
-2.15405e-21
-8.24908e-25
-3.32689e-28
0
0
0
0
0
0
0
0
0
0
0
-2.53716e-27
-4.58524e-24
-8.12892e-21
-4.8423e-18
-2.61193e-16
-2.7013e-18
-1.7249e-21
-6.13034e-25
-2.39913e-28
0
0
0
0
0
0
0
0
0
0
0
0
-6.91281e-27
-1.17692e-23
-1.34687e-20
-3.54767e-18
-7.39535e-21
-5.1165e-24
-2.83965e-27
-1.5114e-30
0
0
0
0
0
0
0
0
0
0
)
;
    }
}


// ************************************************************************* //
