/*--------------------------------*- C++ -*----------------------------------*\
| =========                 |                                                 |
| \\      /  F ield         | OpenFOAM: The Open Source CFD Toolbox           |
|  \\    /   O peration     | Version:  5.x                                   |
|   \\  /    A nd           | Web:      www.OpenFOAM.org                      |
|    \\/     M anipulation  |                                                 |
\*---------------------------------------------------------------------------*/
FoamFile
{
    version     2.0;
    format      ascii;
    class       volVectorField;
    location    "0.1";
    object      U;
}
// * * * * * * * * * * * * * * * * * * * * * * * * * * * * * * * * * * * * * //

dimensions      [0 1 -1 0 0 0 0];

internalField   nonuniform List<vector> 
320
(
(-2.61409e-07 5.40574e-07 -2.61409e-07)
(-1.02833e-08 -8.07318e-07 -4.48867e-07)
(4.45884e-07 4.57581e-07 -3.17843e-07)
(1.70517e-07 1.13302e-06 -2.62246e-07)
(-1.01944e-06 1.28642e-06 -1.01944e-06)
(-7.77618e-08 -1.17253e-06 -1.81607e-06)
(1.57463e-06 8.46571e-07 -1.28303e-06)
(4.96763e-07 2.01217e-06 -8.69768e-07)
(-2.56013e-06 3.97519e-06 -2.56013e-06)
(-4.55884e-07 -1.46143e-06 -5.46031e-06)
(3.68756e-06 2.65659e-06 -3.58058e-06)
(1.26995e-06 4.98535e-06 -2.26189e-06)
(-6.22841e-06 1.01657e-05 -6.22841e-06)
(-1.53224e-06 -9.66942e-07 -1.61847e-05)
(8.28737e-06 6.43702e-06 -9.80581e-06)
(2.79239e-06 1.13649e-05 -5.36913e-06)
(-1.32276e-05 2.68018e-05 -1.32276e-05)
(-4.48657e-06 1.24243e-05 -5.0592e-05)
(1.65241e-05 2.2104e-05 -2.86749e-05)
(6.10802e-06 2.73105e-05 -1.11171e-05)
(-1.99648e-05 5.48353e-05 -1.99648e-05)
(-7.17793e-06 4.66406e-05 -8.17166e-05)
(2.42622e-05 5.12581e-05 -4.54077e-05)
(8.22846e-06 5.30603e-05 -1.69639e-05)
(-1.16487e-05 8.21555e-05 -1.16487e-05)
(-5.61429e-06 7.93364e-05 -3.85623e-05)
(1.4627e-05 8.00102e-05 -2.36505e-05)
(4.4667e-06 8.03133e-05 -1.10184e-05)
(2.97777e-06 8.77354e-05 2.97777e-06)
(-6.02735e-07 7.83812e-05 2.02596e-05)
(-1.72306e-06 8.03999e-05 8.32543e-06)
(-1.26654e-06 8.75832e-05 2.02503e-06)
(1.19553e-05 7.9294e-05 1.19553e-05)
(-1.42359e-06 6.05306e-05 4.87589e-05)
(-1.45785e-05 7.34446e-05 2.12866e-05)
(-1.29088e-06 8.06782e-05 1.00172e-05)
(1.78738e-05 6.02584e-05 1.78738e-05)
(6.36692e-06 4.04911e-05 6.45835e-05)
(-2.36645e-05 5.70811e-05 3.79885e-05)
(-7.42087e-06 6.24253e-05 1.55216e-05)
(1.26546e-05 2.46417e-05 1.26546e-05)
(9.42225e-06 9.79272e-06 4.07884e-05)
(-1.70416e-05 2.13751e-05 3.01414e-05)
(-8.60747e-06 2.61708e-05 1.14067e-05)
(4.99903e-06 1.13347e-05 4.99903e-06)
(2.34464e-06 6.10127e-07 1.33772e-05)
(-7.26082e-06 5.08548e-06 9.0973e-06)
(-2.57074e-06 1.20854e-05 4.45064e-06)
(3.17001e-06 5.80512e-06 3.17001e-06)
(2.14295e-06 1.79499e-06 6.50252e-06)
(-4.32382e-06 4.73566e-06 5.04965e-06)
(-2.24525e-06 6.45772e-06 2.89581e-06)
(9.13418e-07 1.2068e-06 9.13418e-07)
(3.61123e-07 -1.74491e-06 2.16656e-06)
(-1.49781e-06 -5.29473e-07 1.47418e-06)
(-4.84153e-07 1.50556e-06 8.1916e-07)
(6.68597e-07 1.65221e-06 6.68597e-07)
(3.89662e-07 9.70851e-07 9.35286e-07)
(-9.6121e-07 1.57595e-06 7.96665e-07)
(-5.1741e-07 1.86536e-06 6.34067e-07)
(1.52968e-07 -3.77844e-07 1.52968e-07)
(2.31153e-08 -1.08986e-06 3.7014e-07)
(-2.94255e-07 -7.92978e-07 2.50109e-07)
(-6.14714e-08 -2.65128e-07 1.16382e-07)
(1.25972e-07 7.52456e-07 1.25972e-07)
(6.69999e-08 6.95415e-07 1.29205e-07)
(-2.01994e-07 8.30871e-07 1.21616e-07)
(-1.27786e-07 8.11918e-07 1.33047e-07)
(2.83375e-08 -5.34986e-07 2.83375e-08)
(-4.29744e-09 -7.15041e-07 6.88484e-08)
(-6.11077e-08 -6.64329e-07 4.41865e-08)
(-2.47714e-09 -4.95572e-07 1.54299e-08)
(2.38743e-08 5.51721e-07 2.38743e-08)
(9.00793e-09 5.9451e-07 2.22092e-08)
(-4.65949e-08 6.25765e-07 2.37635e-08)
(-3.12602e-08 5.58942e-07 2.70969e-08)
(-1.06265e-08 -5.37043e-07 -1.06265e-08)
(4.94399e-09 -5.93932e-07 -6.73845e-09)
(-2.64616e-08 -5.94081e-07 -1.20788e-08)
(1.42874e-08 -5.26667e-07 -1.13439e-08)
(-4.48867e-07 -8.07318e-07 -1.02833e-08)
(-4.61981e-08 -3.17886e-06 -4.61981e-08)
(6.40039e-07 -1.18673e-06 -4.94529e-08)
(2.29674e-07 8.95542e-09 -1.21658e-08)
(-1.81607e-06 -1.17253e-06 -7.77618e-08)
(-2.62089e-07 -6.49747e-06 -2.62089e-07)
(2.57339e-06 -2.5797e-06 -2.45165e-07)
(9.24888e-07 -3.74242e-08 -1.01897e-07)
(-5.46031e-06 -1.46143e-06 -4.55884e-07)
(-1.28837e-06 -1.64988e-05 -1.28837e-06)
(7.02364e-06 -6.15792e-06 -1.06825e-06)
(2.60739e-06 4.79509e-07 -4.69831e-07)
(-1.61847e-05 -9.66942e-07 -1.53224e-06)
(-4.66295e-06 -4.81469e-05 -4.66295e-06)
(1.95092e-05 -1.96542e-05 -3.71794e-06)
(7.25975e-06 2.45639e-06 -1.499e-06)
(-5.0592e-05 1.24243e-05 -4.48657e-06)
(-1.9153e-05 -6.79169e-05 -1.9153e-05)
(5.73188e-05 -2.02901e-05 -1.50683e-05)
(2.36405e-05 1.59924e-05 -4.37477e-06)
(-8.17166e-05 4.66406e-05 -7.17793e-06)
(-3.12913e-05 -0.000398893 -3.12913e-05)
(9.26905e-05 -0.000163417 -2.54513e-05)
(3.64707e-05 4.98743e-05 -6.96044e-06)
(-3.85623e-05 7.93364e-05 -5.61429e-06)
(-1.60569e-05 -0.000507592 -1.60569e-05)
(4.71601e-05 -0.000210048 -1.58717e-05)
(1.66697e-05 9.01285e-05 -5.70947e-06)
(2.02596e-05 7.83812e-05 -6.02735e-07)
(5.5326e-06 -0.000438149 5.5326e-06)
(-1.66832e-05 -0.000190153 1.32267e-06)
(-7.7963e-06 9.69093e-05 -7.27667e-07)
(4.87589e-05 6.05306e-05 -1.42359e-06)
(5.62279e-06 -0.000389045 5.62279e-06)
(-5.54192e-05 -0.00017139 -9.94506e-06)
(-1.20887e-05 8.24819e-05 -2.7453e-06)
(6.45835e-05 4.04911e-05 6.36692e-06)
(2.45747e-05 -0.000240235 2.45747e-05)
(-7.89046e-05 -0.000147762 1.99784e-05)
(-2.93333e-05 5.12815e-05 6.04095e-06)
(4.07884e-05 9.79272e-06 9.42225e-06)
(2.72155e-05 -8.13277e-05 2.72155e-05)
(-5.057e-05 -3.69033e-05 3.61057e-05)
(-2.72859e-05 1.52371e-05 1.04644e-05)
(1.33772e-05 6.10127e-07 2.34464e-06)
(6.0736e-06 -4.2908e-05 6.0736e-06)
(-1.7328e-05 -2.70428e-05 7.70305e-06)
(-7.29816e-06 2.97136e-06 2.45076e-06)
(6.50252e-06 1.79499e-06 2.14295e-06)
(3.77549e-06 -1.07405e-05 3.77549e-06)
(-8.38725e-06 -3.54903e-06 5.35022e-06)
(-4.42187e-06 3.22171e-06 2.3361e-06)
(2.16656e-06 -1.74491e-06 3.61123e-07)
(8.1438e-07 -8.56241e-06 8.1438e-07)
(-2.99951e-06 -5.72913e-06 1.08286e-06)
(-1.16284e-06 -1.04633e-06 3.66295e-07)
(9.35286e-07 9.70851e-07 3.89662e-07)
(4.44987e-07 -8.91965e-07 4.44987e-07)
(-1.30534e-06 3.84107e-07 6.97812e-07)
(-6.87967e-07 1.30627e-06 4.21734e-07)
(3.7014e-07 -1.08986e-06 2.31153e-08)
(9.65707e-08 -2.18025e-06 9.65707e-08)
(-5.79072e-07 -1.70795e-06 1.43137e-07)
(-2.00794e-07 -8.9797e-07 2.82765e-08)
(1.29205e-07 6.95415e-07 6.69999e-08)
(4.71769e-08 4.48679e-07 4.71769e-08)
(-2.00097e-07 6.99228e-07 7.94141e-08)
(-1.1952e-07 7.91866e-07 6.79425e-08)
(6.88484e-08 -7.15041e-07 -4.29744e-09)
(6.90195e-09 -9.19893e-07 6.90195e-09)
(-1.22558e-07 -8.55871e-07 1.17627e-08)
(-3.2521e-08 -6.7174e-07 -4.26552e-09)
(2.22092e-08 5.9451e-07 9.00793e-09)
(5.09866e-09 6.08998e-07 5.09866e-09)
(-4.22471e-08 6.63363e-07 9.2232e-09)
(-2.86995e-08 6.15981e-07 1.04459e-08)
(-6.73845e-09 -5.93932e-07 4.94399e-09)
(6.20586e-09 -6.46219e-07 6.20586e-09)
(-3.76395e-08 -6.53703e-07 7.78882e-09)
(1.44338e-08 -5.87358e-07 5.27981e-09)
(-3.17843e-07 4.57581e-07 4.45884e-07)
(-4.94529e-08 -1.18673e-06 6.40039e-07)
(5.09427e-07 1.68657e-07 5.09427e-07)
(2.2731e-07 1.07251e-06 4.2784e-07)
(-1.28303e-06 8.46571e-07 1.57463e-06)
(-2.45165e-07 -2.5797e-06 2.57339e-06)
(1.83772e-06 -2.00372e-07 1.83772e-06)
(6.90706e-07 1.62503e-06 1.33818e-06)
(-3.58058e-06 2.65659e-06 3.68756e-06)
(-1.06825e-06 -6.15792e-06 7.02364e-06)
(4.74201e-06 -7.78959e-07 4.74201e-06)
(1.98514e-06 3.82825e-06 3.22343e-06)
(-9.80581e-06 6.43702e-06 8.28737e-06)
(-3.71794e-06 -1.96542e-05 1.95092e-05)
(1.20056e-05 -7.6729e-06 1.20056e-05)
(5.21541e-06 7.9239e-06 7.0639e-06)
(-2.86749e-05 2.2104e-05 1.65241e-05)
(-1.50683e-05 -2.02901e-05 5.73188e-05)
(3.24409e-05 -2.68474e-06 3.24409e-05)
(1.70694e-05 2.30953e-05 1.36778e-05)
(-4.54077e-05 5.12581e-05 2.42622e-05)
(-2.54513e-05 -0.000163417 9.26905e-05)
(5.09474e-05 -9.2943e-05 5.09474e-05)
(2.68511e-05 5.1172e-05 2.0185e-05)
(-2.36505e-05 8.00102e-05 1.4627e-05)
(-1.58717e-05 -0.000210048 4.71601e-05)
(2.79142e-05 -0.000118418 2.79142e-05)
(1.44305e-05 8.26837e-05 1.32728e-05)
(8.32543e-06 8.03999e-05 -1.72306e-06)
(1.32267e-06 -0.000190153 -1.66832e-05)
(-6.09301e-06 -0.000117603 -6.09301e-06)
(-3.79715e-06 8.54449e-05 -1.17259e-06)
(2.12866e-05 7.34446e-05 -1.45785e-05)
(-9.94506e-06 -0.00017139 -5.54192e-05)
(-2.56788e-05 -0.00010399 -2.56788e-05)
(3.1909e-06 7.97938e-05 -1.19024e-05)
(3.79885e-05 5.70811e-05 -2.36645e-05)
(1.99784e-05 -0.000147762 -7.89046e-05)
(-4.60145e-05 -0.000168221 -4.60145e-05)
(-2.14288e-05 5.27847e-05 -1.9761e-05)
(3.01414e-05 2.13751e-05 -1.70416e-05)
(3.61057e-05 -3.69033e-05 -5.057e-05)
(-3.49398e-05 -2.5924e-05 -3.49398e-05)
(-3.16595e-05 2.23775e-05 -1.49061e-05)
(9.0973e-06 5.08548e-06 -7.26082e-06)
(7.70305e-06 -2.70428e-05 -1.7328e-05)
(-1.16481e-05 -2.93192e-05 -1.16481e-05)
(-7.53984e-06 5.12634e-06 -6.38163e-06)
(5.04965e-06 4.73566e-06 -4.32382e-06)
(5.35022e-06 -3.54903e-06 -8.38725e-06)
(-6.05792e-06 -1.45895e-06 -6.05792e-06)
(-5.14731e-06 5.42982e-06 -3.90643e-06)
(1.47418e-06 -5.29473e-07 -1.49781e-06)
(1.08286e-06 -5.72913e-06 -2.99951e-06)
(-2.10565e-06 -5.60051e-06 -2.10565e-06)
(-1.2075e-06 -3.12005e-07 -1.36844e-06)
(7.96665e-07 1.57595e-06 -9.6121e-07)
(6.97812e-07 3.84107e-07 -1.30534e-06)
(-1.05646e-06 8.63101e-07 -1.05646e-06)
(-8.2501e-07 1.829e-06 -9.10482e-07)
(2.50109e-07 -7.92978e-07 -2.94255e-07)
(1.43137e-07 -1.70795e-06 -5.79072e-07)
(-3.98912e-07 -1.58855e-06 -3.98912e-07)
(-1.82955e-07 -6.87515e-07 -2.5113e-07)
(1.21616e-07 8.30871e-07 -2.01994e-07)
(7.94141e-08 6.99228e-07 -2.00097e-07)
(-1.97985e-07 8.12085e-07 -1.97985e-07)
(-1.53097e-07 8.94879e-07 -2.1369e-07)
(4.41865e-08 -6.64329e-07 -6.11077e-08)
(1.17627e-08 -8.55871e-07 -1.22558e-07)
(-8.14846e-08 -8.26716e-07 -8.14846e-08)
(-2.07063e-08 -6.17574e-07 -4.58604e-08)
(2.37635e-08 6.25765e-07 -4.65949e-08)
(9.2232e-09 6.63363e-07 -4.22471e-08)
(-4.58927e-08 6.95677e-07 -4.58927e-08)
(-3.41715e-08 6.35336e-07 -5.19635e-08)
(-1.20788e-08 -5.94081e-07 -2.64616e-08)
(7.78882e-09 -6.53703e-07 -3.76395e-08)
(-3.0175e-08 -6.55375e-07 -3.0175e-08)
(1.48087e-08 -5.83171e-07 -2.50206e-08)
(-2.62246e-07 1.13302e-06 1.70517e-07)
(-1.21658e-08 8.95542e-09 2.29674e-07)
(4.2784e-07 1.07251e-06 2.2731e-07)
(1.60317e-07 1.65233e-06 1.60317e-07)
(-8.69768e-07 2.01217e-06 4.96763e-07)
(-1.01897e-07 -3.74242e-08 9.24888e-07)
(1.33818e-06 1.62503e-06 6.90706e-07)
(4.65277e-07 2.64985e-06 4.65277e-07)
(-2.26189e-06 4.98535e-06 1.26995e-06)
(-4.69831e-07 4.79509e-07 2.60739e-06)
(3.22343e-06 3.82825e-06 1.98514e-06)
(1.20738e-06 5.86045e-06 1.20738e-06)
(-5.36913e-06 1.13649e-05 2.79239e-06)
(-1.499e-06 2.45639e-06 7.25975e-06)
(7.0639e-06 7.9239e-06 5.21541e-06)
(2.62406e-06 1.22906e-05 2.62406e-06)
(-1.11171e-05 2.73105e-05 6.10802e-06)
(-4.37477e-06 1.59924e-05 2.36405e-05)
(1.36778e-05 2.30953e-05 1.70694e-05)
(5.76378e-06 2.76951e-05 5.76378e-06)
(-1.69639e-05 5.30603e-05 8.22846e-06)
(-6.96044e-06 4.98743e-05 3.64707e-05)
(2.0185e-05 5.1172e-05 2.68511e-05)
(7.98234e-06 5.17308e-05 7.98234e-06)
(-1.10184e-05 8.03133e-05 4.4667e-06)
(-5.70947e-06 9.01285e-05 1.66697e-05)
(1.32728e-05 8.26837e-05 1.44305e-05)
(5.07036e-06 7.83307e-05 5.07036e-06)
(2.02503e-06 8.75832e-05 -1.26654e-06)
(-7.27667e-07 9.69093e-05 -7.7963e-06)
(-1.17259e-06 8.54449e-05 -3.79715e-06)
(-7.84174e-07 8.60522e-05 -7.84174e-07)
(1.00172e-05 8.06782e-05 -1.29088e-06)
(-2.7453e-06 8.24819e-05 -1.20887e-05)
(-1.19024e-05 7.97938e-05 3.1909e-06)
(-4.54604e-07 8.00782e-05 -4.54604e-07)
(1.55216e-05 6.24253e-05 -7.42087e-06)
(6.04095e-06 5.12815e-05 -2.93333e-05)
(-1.9761e-05 5.27847e-05 -2.14288e-05)
(-7.2594e-06 6.22029e-05 -7.2594e-06)
(1.14067e-05 2.61708e-05 -8.60747e-06)
(1.04644e-05 1.52371e-05 -2.72859e-05)
(-1.49061e-05 2.23775e-05 -3.16595e-05)
(-9.30567e-06 2.70986e-05 -9.30567e-06)
(4.45064e-06 1.20854e-05 -2.57074e-06)
(2.45076e-06 2.97136e-06 -7.29816e-06)
(-6.38163e-06 5.12634e-06 -7.53984e-06)
(-2.65694e-06 1.26179e-05 -2.65694e-06)
(2.89581e-06 6.45772e-06 -2.24525e-06)
(2.3361e-06 3.22171e-06 -4.42187e-06)
(-3.90643e-06 5.42982e-06 -5.14731e-06)
(-2.41325e-06 7.04623e-06 -2.41325e-06)
(8.1916e-07 1.50556e-06 -4.84153e-07)
(3.66295e-07 -1.04633e-06 -1.16284e-06)
(-1.36844e-06 -3.12005e-07 -1.2075e-06)
(-4.97518e-07 1.80345e-06 -4.97518e-07)
(6.34067e-07 1.86536e-06 -5.1741e-07)
(4.21734e-07 1.30627e-06 -6.87967e-07)
(-9.10482e-07 1.829e-06 -8.2501e-07)
(-5.52228e-07 2.08409e-06 -5.52228e-07)
(1.16382e-07 -2.65128e-07 -6.14714e-08)
(2.82765e-08 -8.9797e-07 -2.00794e-07)
(-2.5113e-07 -6.87515e-07 -1.82955e-07)
(-6.48152e-08 -1.52029e-07 -6.48152e-08)
(1.33047e-07 8.11918e-07 -1.27786e-07)
(6.79425e-08 7.91866e-07 -1.1952e-07)
(-2.1369e-07 8.94879e-07 -1.53097e-07)
(-1.34054e-07 8.72673e-07 -1.34054e-07)
(1.54299e-08 -4.95572e-07 -2.47714e-09)
(-4.26552e-09 -6.7174e-07 -3.2521e-08)
(-4.58604e-08 -6.17574e-07 -2.07063e-08)
(-9.43538e-10 -4.51971e-07 -9.43538e-10)
(2.70969e-08 5.58942e-07 -3.12602e-08)
(1.04459e-08 6.15981e-07 -2.86995e-08)
(-5.19635e-08 6.35336e-07 -3.41715e-08)
(-3.41111e-08 5.65518e-07 -3.41111e-08)
(-1.13439e-08 -5.26667e-07 1.42874e-08)
(5.27981e-09 -5.87358e-07 1.44338e-08)
(-2.50206e-08 -5.83171e-07 1.48087e-08)
(1.35129e-08 -5.14211e-07 1.35129e-08)
)
;

boundaryField
{
    inlet
    {
        type            fixedValue;
        value           uniform (0 0 0);
    }
    outlet
    {
        type            zeroGradient;
    }
    walls
    {
        type            fixedValue;
        value           uniform (0 0 0);
    }
}


// ************************************************************************* //
