/*--------------------------------*- C++ -*----------------------------------*\
| =========                 |                                                 |
| \\      /  F ield         | OpenFOAM: The Open Source CFD Toolbox           |
|  \\    /   O peration     | Version:  5.x                                   |
|   \\  /    A nd           | Web:      www.OpenFOAM.org                      |
|    \\/     M anipulation  |                                                 |
\*---------------------------------------------------------------------------*/
FoamFile
{
    version     2.0;
    format      ascii;
    class       volVectorField;
    location    "0.1";
    object      Us;
}
// * * * * * * * * * * * * * * * * * * * * * * * * * * * * * * * * * * * * * //

dimensions      [0 1 -1 0 0 0 0];

internalField   nonuniform List<vector> 
320
(
(-1.16659e-16 -4.78637e-13 -1.16659e-16)
(-1.21975e-15 -5.00447e-12 -1.21975e-15)
(-1.14487e-15 -4.69724e-12 -1.14487e-15)
(-3.31382e-17 -1.35962e-13 -3.31382e-17)
(-6.01181e-15 -2.46656e-11 -6.01181e-15)
(-7.35297e-14 -3.01682e-10 -7.35297e-14)
(-6.98838e-14 -2.86723e-10 -6.98838e-14)
(-1.99641e-15 -8.191e-12 -1.99641e-15)
(-2.94392e-13 -1.20785e-09 -2.94392e-13)
(-4.32203e-12 -1.77327e-08 -4.32203e-12)
(-4.15929e-12 -1.7065e-08 -4.15929e-12)
(-1.17307e-13 -4.81296e-10 -1.17307e-13)
(-1.29734e-11 -5.32279e-08 -1.29734e-11)
(-2.3812e-10 -9.76973e-07 -2.3812e-10)
(-2.32071e-10 -9.52155e-07 -2.32071e-10)
(-6.46325e-12 -2.65178e-08 -6.46325e-12)
(-4.76405e-10 -1.95462e-06 -4.76405e-10)
(-1.16592e-08 -4.78359e-05 -1.16592e-08)
(-1.15098e-08 -4.72231e-05 -1.15098e-08)
(-3.16704e-10 -1.29939e-06 -3.16704e-10)
(-1.16645e-08 -4.78578e-05 -1.16645e-08)
(-4.28109e-07 -0.00175647 -4.28109e-07)
(-4.28184e-07 -0.00175678 -4.28184e-07)
(-1.16655e-08 -4.78619e-05 -1.16655e-08)
(-3.1559e-10 -1.29482e-06 -3.1559e-10)
(-1.15849e-08 -4.75312e-05 -1.15849e-08)
(-1.1585e-08 -4.75316e-05 -1.1585e-08)
(-3.15635e-10 -1.29501e-06 -3.15635e-10)
(-4.21513e-12 -1.72941e-08 -4.21513e-12)
(-1.54732e-10 -6.34845e-07 -1.54732e-10)
(-1.56759e-10 -6.43158e-07 -1.56759e-10)
(-6.40584e-12 -2.62823e-08 -6.40584e-12)
(-5.63011e-14 -2.30995e-10 -5.63011e-14)
(-2.06674e-12 -8.47955e-09 -2.06674e-12)
(-2.12086e-12 -8.7016e-09 -2.12086e-12)
(-1.15564e-13 -4.74141e-10 -1.15564e-13)
(-7.51697e-16 -3.08411e-12 -7.51697e-16)
(-2.75989e-14 -1.13234e-10 -2.75989e-14)
(-2.86829e-14 -1.17682e-10 -2.86829e-14)
(-1.95387e-15 -8.01645e-12 -1.95387e-15)
(0 0 0)
(0 0 0)
(0 0 0)
(0 0 0)
(0 0 0)
(0 0 0)
(0 0 0)
(0 0 0)
(0 0 0)
(0 0 0)
(0 0 0)
(0 0 0)
(0 0 0)
(0 0 0)
(0 0 0)
(0 0 0)
(0 0 0)
(0 0 0)
(0 0 0)
(0 0 0)
(0 0 0)
(0 0 0)
(0 0 0)
(0 0 0)
(0 0 0)
(0 0 0)
(0 0 0)
(0 0 0)
(0 0 0)
(0 0 0)
(0 0 0)
(0 0 0)
(0 0 0)
(0 0 0)
(0 0 0)
(0 0 0)
(0 0 0)
(0 0 0)
(0 0 0)
(0 0 0)
(-1.21975e-15 -5.00447e-12 -1.21975e-15)
(-1.48926e-14 -6.11022e-11 -1.48926e-14)
(-1.41518e-14 -5.8063e-11 -1.41518e-14)
(-4.03819e-16 -1.65681e-12 -4.03819e-16)
(-7.35297e-14 -3.01682e-10 -7.35297e-14)
(-1.07996e-12 -4.43093e-09 -1.07996e-12)
(-1.03928e-12 -4.26401e-09 -1.03928e-12)
(-2.92635e-14 -1.20064e-10 -2.92635e-14)
(-4.32203e-12 -1.77327e-08 -4.32203e-12)
(-7.93549e-11 -3.25582e-07 -7.93549e-11)
(-7.73359e-11 -3.17298e-07 -7.73359e-11)
(-2.14916e-12 -8.81769e-09 -2.14916e-12)
(-2.3812e-10 -9.76973e-07 -2.3812e-10)
(-5.82903e-09 -2.39157e-05 -5.82903e-09)
(-5.75391e-09 -2.36075e-05 -5.75391e-09)
(-1.57812e-10 -6.47479e-07 -1.57812e-10)
(-1.16592e-08 -4.78359e-05 -1.16592e-08)
(-4.28026e-07 -0.00175613 -4.28026e-07)
(-4.2803e-07 -0.00175615 -4.2803e-07)
(-1.1586e-08 -4.75359e-05 -1.1586e-08)
(-4.28109e-07 -0.00175647 -4.28109e-07)
(-3.14135e-05 -0.128885 -3.14135e-05)
(-3.14135e-05 -0.128885 -3.14135e-05)
(-4.28263e-07 -0.00175711 -4.28263e-07)
(-1.15849e-08 -4.75312e-05 -1.15849e-08)
(-4.28179e-07 -0.00175676 -4.28179e-07)
(-4.28109e-07 -0.00175647 -4.28109e-07)
(-1.15129e-08 -4.7236e-05 -1.15129e-08)
(-1.54732e-10 -6.34845e-07 -1.54732e-10)
(-5.68254e-09 -2.33147e-05 -5.68254e-09)
(-5.75498e-09 -2.36119e-05 -5.75498e-09)
(-2.32141e-10 -9.5244e-07 -2.32141e-10)
(-2.06674e-12 -8.47955e-09 -2.06674e-12)
(-7.54155e-11 -3.09419e-07 -7.54155e-11)
(-7.73503e-11 -3.17357e-07 -7.73503e-11)
(-4.16058e-12 -1.70703e-08 -4.16058e-12)
(-2.75989e-14 -1.13234e-10 -2.75989e-14)
(-1.00069e-12 -4.10571e-09 -1.00069e-12)
(-1.03928e-12 -4.26402e-09 -1.03928e-12)
(-6.98899e-14 -2.86749e-10 -6.98899e-14)
(0 0 0)
(0 0 0)
(0 0 0)
(0 0 0)
(0 0 0)
(0 0 0)
(0 0 0)
(0 0 0)
(0 0 0)
(0 0 0)
(0 0 0)
(0 0 0)
(0 0 0)
(0 0 0)
(0 0 0)
(0 0 0)
(0 0 0)
(0 0 0)
(0 0 0)
(0 0 0)
(0 0 0)
(0 0 0)
(0 0 0)
(0 0 0)
(0 0 0)
(0 0 0)
(0 0 0)
(0 0 0)
(0 0 0)
(0 0 0)
(0 0 0)
(0 0 0)
(0 0 0)
(0 0 0)
(0 0 0)
(0 0 0)
(0 0 0)
(0 0 0)
(0 0 0)
(0 0 0)
(-1.14487e-15 -4.69724e-12 -1.14487e-15)
(-1.41518e-14 -5.8063e-11 -1.41518e-14)
(-1.34601e-14 -5.52248e-11 -1.34601e-14)
(-3.83748e-16 -1.57446e-12 -3.83748e-16)
(-6.98838e-14 -2.86723e-10 -6.98838e-14)
(-1.03928e-12 -4.26401e-09 -1.03928e-12)
(-1.0009e-12 -4.10655e-09 -1.0009e-12)
(-2.81626e-14 -1.15547e-10 -2.81626e-14)
(-4.15929e-12 -1.7065e-08 -4.15929e-12)
(-7.73359e-11 -3.17298e-07 -7.73359e-11)
(-7.54159e-11 -3.09421e-07 -7.54159e-11)
(-2.09461e-12 -8.59391e-09 -2.09461e-12)
(-2.32071e-10 -9.52155e-07 -2.32071e-10)
(-5.75391e-09 -2.36075e-05 -5.75391e-09)
(-5.68252e-09 -2.33146e-05 -5.68252e-09)
(-1.55789e-10 -6.39182e-07 -1.55789e-10)
(-1.15098e-08 -4.72231e-05 -1.15098e-08)
(-4.2803e-07 -0.00175615 -4.2803e-07)
(-4.28177e-07 -0.00175675 -4.28177e-07)
(-1.15871e-08 -4.75401e-05 -1.15871e-08)
(-4.28184e-07 -0.00175678 -4.28184e-07)
(-3.14135e-05 -0.128885 -3.14135e-05)
(-3.14135e-05 -0.128885 -3.14135e-05)
(-4.28266e-07 -0.00175711 -4.28266e-07)
(-1.1585e-08 -4.75316e-05 -1.1585e-08)
(-4.28109e-07 -0.00175647 -4.28109e-07)
(-4.28181e-07 -0.00175677 -4.28181e-07)
(-1.16635e-08 -4.78537e-05 -1.16635e-08)
(-1.56759e-10 -6.43158e-07 -1.56759e-10)
(-5.75498e-09 -2.36119e-05 -5.75498e-09)
(-5.83117e-09 -2.39245e-05 -5.83117e-09)
(-2.3821e-10 -9.77344e-07 -2.3821e-10)
(-2.12086e-12 -8.7016e-09 -2.12086e-12)
(-7.73503e-11 -3.17357e-07 -7.73503e-11)
(-7.93848e-11 -3.25705e-07 -7.93848e-11)
(-4.32372e-12 -1.77396e-08 -4.32372e-12)
(-2.86829e-14 -1.17682e-10 -2.86829e-14)
(-1.03928e-12 -4.26402e-09 -1.03928e-12)
(-1.08018e-12 -4.43184e-09 -1.08018e-12)
(-7.3543e-14 -3.01737e-10 -7.3543e-14)
(0 0 0)
(0 0 0)
(0 0 0)
(0 0 0)
(0 0 0)
(0 0 0)
(0 0 0)
(0 0 0)
(0 0 0)
(0 0 0)
(0 0 0)
(0 0 0)
(0 0 0)
(0 0 0)
(0 0 0)
(0 0 0)
(0 0 0)
(0 0 0)
(0 0 0)
(0 0 0)
(0 0 0)
(0 0 0)
(0 0 0)
(0 0 0)
(0 0 0)
(0 0 0)
(0 0 0)
(0 0 0)
(0 0 0)
(0 0 0)
(0 0 0)
(0 0 0)
(0 0 0)
(0 0 0)
(0 0 0)
(0 0 0)
(0 0 0)
(0 0 0)
(0 0 0)
(0 0 0)
(-3.31382e-17 -1.35962e-13 -3.31382e-17)
(-4.03819e-16 -1.65681e-12 -4.03819e-16)
(-3.83748e-16 -1.57446e-12 -3.83748e-16)
(-1.10932e-17 -4.5514e-14 -1.10932e-17)
(-1.99641e-15 -8.191e-12 -1.99641e-15)
(-2.92635e-14 -1.20064e-10 -2.92635e-14)
(-2.81626e-14 -1.15547e-10 -2.81626e-14)
(-8.03342e-16 -3.296e-12 -8.03342e-16)
(-1.17307e-13 -4.81296e-10 -1.17307e-13)
(-2.14916e-12 -8.81769e-09 -2.14916e-12)
(-2.09461e-12 -8.59391e-09 -2.09461e-12)
(-5.89683e-14 -2.41939e-10 -5.89683e-14)
(-6.46325e-12 -2.65178e-08 -6.46325e-12)
(-1.57812e-10 -6.47479e-07 -1.57812e-10)
(-1.55789e-10 -6.39182e-07 -1.55789e-10)
(-4.32851e-12 -1.77593e-08 -4.32851e-12)
(-3.16704e-10 -1.29939e-06 -3.16704e-10)
(-1.1586e-08 -4.75359e-05 -1.1586e-08)
(-1.15871e-08 -4.75401e-05 -1.15871e-08)
(-3.17729e-10 -1.3036e-06 -3.17729e-10)
(-1.16655e-08 -4.78619e-05 -1.16655e-08)
(-4.28263e-07 -0.00175711 -4.28263e-07)
(-4.28266e-07 -0.00175711 -4.28266e-07)
(-1.16688e-08 -4.78756e-05 -1.16688e-08)
(-3.15635e-10 -1.29501e-06 -3.15635e-10)
(-1.15129e-08 -4.7236e-05 -1.15129e-08)
(-1.16635e-08 -4.78537e-05 -1.16635e-08)
(-4.76584e-10 -1.95536e-06 -4.76584e-10)
(-6.40584e-12 -2.62823e-08 -6.40584e-12)
(-2.32141e-10 -9.5244e-07 -2.32141e-10)
(-2.3821e-10 -9.77344e-07 -2.3821e-10)
(-1.29783e-11 -5.32481e-08 -1.29783e-11)
(-1.15564e-13 -4.74141e-10 -1.15564e-13)
(-4.16058e-12 -1.70703e-08 -4.16058e-12)
(-4.32372e-12 -1.77396e-08 -4.32372e-12)
(-2.94505e-13 -1.20831e-09 -2.94505e-13)
(-1.95387e-15 -8.01645e-12 -1.95387e-15)
(-6.98899e-14 -2.86749e-10 -6.98899e-14)
(-7.3543e-14 -3.01737e-10 -7.3543e-14)
(-6.01258e-15 -2.46688e-11 -6.01258e-15)
(0 0 0)
(0 0 0)
(0 0 0)
(0 0 0)
(0 0 0)
(0 0 0)
(0 0 0)
(0 0 0)
(0 0 0)
(0 0 0)
(0 0 0)
(0 0 0)
(0 0 0)
(0 0 0)
(0 0 0)
(0 0 0)
(0 0 0)
(0 0 0)
(0 0 0)
(0 0 0)
(0 0 0)
(0 0 0)
(0 0 0)
(0 0 0)
(0 0 0)
(0 0 0)
(0 0 0)
(0 0 0)
(0 0 0)
(0 0 0)
(0 0 0)
(0 0 0)
(0 0 0)
(0 0 0)
(0 0 0)
(0 0 0)
(0 0 0)
(0 0 0)
(0 0 0)
(0 0 0)
)
;

boundaryField
{
    inlet
    {
        type            zeroGradient;
    }
    outlet
    {
        type            zeroGradient;
    }
    walls
    {
        type            zeroGradient;
    }
}


// ************************************************************************* //
