/*--------------------------------*- C++ -*----------------------------------*\
| =========                 |                                                 |
| \\      /  F ield         | OpenFOAM: The Open Source CFD Toolbox           |
|  \\    /   O peration     | Version:  5.x                                   |
|   \\  /    A nd           | Web:      www.OpenFOAM.org                      |
|    \\/     M anipulation  |                                                 |
\*---------------------------------------------------------------------------*/
FoamFile
{
    version     2.0;
    format      ascii;
    class       volScalarField;
    location    "0.018";
    object      phiIB;
}
// * * * * * * * * * * * * * * * * * * * * * * * * * * * * * * * * * * * * * //

dimensions      [0 2 -1 0 0 0 0];

internalField   nonuniform List<scalar> 
1560
(
-5.20135e-06
-5.20083e-06
-5.20271e-06
-5.20167e-06
-5.2056e-06
-5.19712e-06
-5.19663e-06
-5.19857e-06
-5.19754e-06
-5.20154e-06
-5.19811e-06
-5.19763e-06
-5.19958e-06
-5.19855e-06
-5.20258e-06
-5.19611e-06
-5.1956e-06
-5.19757e-06
-5.19654e-06
-5.20061e-06
-5.19666e-06
-5.19614e-06
-5.19811e-06
-5.19708e-06
-5.20117e-06
-9.6898e-06
-9.68974e-06
-9.69079e-06
-9.69073e-06
-9.69304e-06
-9.68715e-06
-9.68714e-06
-9.68827e-06
-9.68825e-06
-9.69063e-06
-9.68705e-06
-9.68704e-06
-9.68818e-06
-9.68817e-06
-9.69058e-06
-9.68582e-06
-9.68579e-06
-9.68696e-06
-9.68697e-06
-9.68942e-06
-9.68579e-06
-9.68575e-06
-9.68692e-06
-9.68695e-06
-9.68943e-06
-2.41421e-05
-2.4142e-05
-2.41448e-05
-2.41449e-05
-2.41507e-05
-2.4136e-05
-2.41359e-05
-2.41388e-05
-2.41389e-05
-2.41448e-05
-2.41357e-05
-2.41356e-05
-2.41385e-05
-2.41387e-05
-2.41446e-05
-2.41326e-05
-2.41326e-05
-2.41355e-05
-2.41357e-05
-2.41418e-05
-2.41326e-05
-2.41326e-05
-2.41356e-05
-2.41358e-05
-2.41419e-05
-3.12411e-05
-3.1241e-05
-3.12442e-05
-3.12445e-05
-3.1251e-05
-3.1234e-05
-3.12339e-05
-3.12373e-05
-3.12376e-05
-3.12444e-05
-3.12334e-05
-3.12334e-05
-3.12368e-05
-3.12372e-05
-3.1244e-05
-3.12297e-05
-3.12297e-05
-3.12333e-05
-3.12337e-05
-3.12406e-05
-3.12294e-05
-3.12295e-05
-3.12332e-05
-3.12337e-05
-3.12406e-05
-4.38409e-05
-4.38408e-05
-4.38459e-05
-4.38464e-05
-4.38566e-05
-4.38301e-05
-4.38301e-05
-4.38353e-05
-4.38359e-05
-4.38464e-05
-4.38293e-05
-4.38293e-05
-4.38346e-05
-4.38352e-05
-4.38458e-05
-4.38237e-05
-4.38238e-05
-4.38293e-05
-4.383e-05
-4.38407e-05
-4.38235e-05
-4.38237e-05
-4.38292e-05
-4.383e-05
-4.38407e-05
-5.28565e-05
-5.28563e-05
-5.28631e-05
-5.28639e-05
-5.28778e-05
-5.28417e-05
-5.28415e-05
-5.28487e-05
-5.28495e-05
-5.28638e-05
-5.28406e-05
-5.28405e-05
-5.28477e-05
-5.28486e-05
-5.2863e-05
-5.28329e-05
-5.2833e-05
-5.28404e-05
-5.28414e-05
-5.2856e-05
-5.28327e-05
-5.28328e-05
-5.28404e-05
-5.28414e-05
-5.28561e-05
-6.38432e-05
-6.3843e-05
-6.38529e-05
-6.38541e-05
-6.38741e-05
-6.38219e-05
-6.38218e-05
-6.38321e-05
-6.38334e-05
-6.38541e-05
-6.38205e-05
-6.38204e-05
-6.38308e-05
-6.3832e-05
-6.38529e-05
-6.38097e-05
-6.38097e-05
-6.38204e-05
-6.38217e-05
-6.38429e-05
-6.38096e-05
-6.38096e-05
-6.38204e-05
-6.38217e-05
-6.3843e-05
-7.39902e-05
-7.39898e-05
-7.40037e-05
-7.40052e-05
-7.40334e-05
-7.39599e-05
-7.39597e-05
-7.39742e-05
-7.39759e-05
-7.40053e-05
-7.39581e-05
-7.39579e-05
-7.39725e-05
-7.39741e-05
-7.40037e-05
-7.3943e-05
-7.39428e-05
-7.39578e-05
-7.39596e-05
-7.39898e-05
-7.39432e-05
-7.39429e-05
-7.3958e-05
-7.39597e-05
-7.399e-05
-8.4104e-05
-8.41035e-05
-8.41229e-05
-8.41249e-05
-8.41649e-05
-8.4061e-05
-8.40606e-05
-8.4081e-05
-8.40833e-05
-8.41251e-05
-8.40586e-05
-8.40583e-05
-8.40788e-05
-8.4081e-05
-8.41231e-05
-8.40372e-05
-8.4037e-05
-8.40583e-05
-8.40606e-05
-8.41037e-05
-8.40375e-05
-8.40372e-05
-8.40586e-05
-8.40609e-05
-8.41041e-05
-9.46439e-05
-9.46424e-05
-9.46683e-05
-9.46696e-05
-9.47252e-05
-9.45833e-05
-9.4582e-05
-9.46095e-05
-9.46112e-05
-9.46699e-05
-9.45821e-05
-9.45805e-05
-9.46082e-05
-9.46095e-05
-9.46686e-05
-9.45535e-05
-9.4552e-05
-9.45807e-05
-9.45821e-05
-9.46428e-05
-9.45551e-05
-9.45534e-05
-9.45821e-05
-9.45834e-05
-9.46443e-05
-0.00010434
-0.000104336
-0.000104369
-0.000104367
-0.000104444
-0.000104255
-0.000104252
-0.000104288
-0.000104286
-0.000104368
-0.000104258
-0.000104254
-0.00010429
-0.000104288
-0.000104369
-0.00010422
-0.000104216
-0.000104254
-0.000104252
-0.000104336
-0.000104224
-0.00010422
-0.000104258
-0.000104256
-0.00010434
-0.000114771
-0.00011476
-0.000114797
-0.000114783
-0.000114885
-0.000114661
-0.000114649
-0.000114689
-0.000114675
-0.000114784
-0.000114686
-0.000114671
-0.000114708
-0.000114689
-0.000114798
-0.000114649
-0.000114633
-0.000114671
-0.000114649
-0.000114761
-0.000114665
-0.000114649
-0.000114686
-0.000114662
-0.000114772
-0.000124088
-0.000124062
-0.000124099
-0.00012406
-0.000124194
-0.000123949
-0.000123921
-0.000123961
-0.000123918
-0.000124061
-0.000124031
-0.000123991
-0.000124018
-0.000123961
-0.0001241
-0.000124054
-0.000123992
-0.000123991
-0.000123921
-0.000124063
-0.000124128
-0.000124053
-0.000124032
-0.000123949
-0.000124089
-0.000133923
-0.000133862
-0.000133879
-0.00013379
-0.000133954
-0.000133801
-0.000133723
-0.000133723
-0.000133613
-0.000133791
-0.000134005
-0.00013391
-0.000133871
-0.000133723
-0.00013388
-0.000134123
-0.000133996
-0.00013391
-0.000133723
-0.000133863
-0.000134265
-0.000134123
-0.000134006
-0.000133801
-0.000133925
-0.000142159
-0.000142067
-0.000142091
-0.00014198
-0.000142262
-0.0001421
-0.000141956
-0.000141884
-0.000141713
-0.000141981
-0.000142354
-0.000142227
-0.000142128
-0.000141883
-0.000142092
-0.000142269
-0.000142218
-0.000142228
-0.000141956
-0.000142069
-0.000142287
-0.00014227
-0.000142355
-0.0001421
-0.000142161
-0.000149851
-0.000149809
-0.000149973
-0.000149958
-0.000150477
-0.000149526
-0.000149511
-0.000149651
-0.000149535
-0.00014996
-0.000149436
-0.000149495
-0.000149775
-0.000149651
-0.000149974
-0.000149002
-0.000149101
-0.000149497
-0.000149513
-0.000149812
-0.000148881
-0.000149003
-0.000149439
-0.000149528
-0.000149855
-0.000154819
-0.000154855
-0.000155359
-0.000155565
-0.000156384
-0.000153853
-0.000154041
-0.000154743
-0.00015488
-0.000155568
-0.000153394
-0.000153635
-0.000154448
-0.000154743
-0.000155361
-0.00015264
-0.000152877
-0.000153636
-0.000154043
-0.000154859
-0.000152384
-0.000152642
-0.000153397
-0.000153856
-0.000154824
-0.000158751
-0.000158877
-0.000159614
-0.000160054
-0.000161182
-0.00015714
-0.000157393
-0.000158329
-0.000158853
-0.000160057
-0.000156204
-0.000156568
-0.000157643
-0.000158328
-0.000159616
-0.00015493
-0.00015539
-0.00015657
-0.000157395
-0.000158882
-0.000154416
-0.00015493
-0.000156205
-0.000157142
-0.000158757
-0.000159942
-0.000160286
-0.000161353
-0.000162063
-0.000163647
-0.000157426
-0.00015789
-0.000159251
-0.000160194
-0.000162067
-0.000155757
-0.000156381
-0.000158002
-0.000159251
-0.000161357
-0.00015375
-0.000154507
-0.000156383
-0.000157891
-0.000160293
-0.000152923
-0.000153748
-0.000155757
-0.000157427
-0.000159949
-0.000161623
-0.000162012
-0.000163436
-0.000164413
-0.000166689
-0.000158245
-0.000158828
-0.000160589
-0.000161802
-0.000164418
-0.000156314
-0.000157017
-0.00015908
-0.000160589
-0.000163441
-0.000153935
-0.000154738
-0.000157021
-0.000158832
-0.000162022
-0.000153118
-0.000153935
-0.000156317
-0.000158249
-0.000161634
-0.000160505
-0.000161085
-0.00016303
-0.000164392
-0.00016748
-0.000155439
-0.000156268
-0.000158709
-0.000160551
-0.000164399
-0.000152895
-0.000153827
-0.000156477
-0.000158708
-0.000163035
-0.000150127
-0.000151123
-0.000153832
-0.000156271
-0.000161096
-0.000149034
-0.000150128
-0.000152901
-0.000155442
-0.000160516
-0.000163
-0.000163418
-0.000165518
-0.000166818
-0.000170777
-0.000156505
-0.00015739
-0.000160264
-0.000162135
-0.000166827
-0.000153564
-0.00015461
-0.000157908
-0.000160263
-0.000165526
-0.000149679
-0.000151017
-0.000154616
-0.000157396
-0.000163433
-0.000148253
-0.000149682
-0.000153572
-0.000156513
-0.000163017
-0.000159013
-0.00015998
-0.000162485
-0.000164236
-0.000169479
-0.00015015
-0.000151557
-0.000155225
-0.000158012
-0.000164244
-0.000145385
-0.000147421
-0.000151767
-0.000155223
-0.000162489
-0.000139981
-0.000142435
-0.000147427
-0.000151562
-0.000159992
-0.000136957
-0.000139982
-0.000145392
-0.000150157
-0.000159026
-0.00016284
-0.000163097
-0.000166108
-0.000167426
-0.000173979
-0.000150043
-0.000151824
-0.000156372
-0.000159406
-0.000167438
-0.000143716
-0.000146196
-0.000152214
-0.000156369
-0.000166116
-0.000135629
-0.000139326
-0.0001462
-0.000151826
-0.000163112
-0.000131489
-0.000135636
-0.000143726
-0.000150051
-0.000162859
-0.000152797
-0.000154164
-0.000157073
-0.000159594
-0.000168239
-0.000135549
-0.000138983
-0.000145087
-0.000149348
-0.000159606
-0.000123313
-0.000129315
-0.000137461
-0.000145082
-0.000157082
-0.000112059
-0.000119696
-0.000129321
-0.000138983
-0.000154177
-0.000101012
-0.000112064
-0.000123324
-0.000135555
-0.000152816
-0.000156406
-0.000156489
-0.000161929
-0.000164268
-0.000175316
-0.000132507
-0.000137393
-0.000144595
-0.000149568
-0.000164281
-0.000117562
-0.000124833
-0.000136264
-0.000144591
-0.000161934
-9.9468e-05
-0.000112133
-0.000124834
-0.000137391
-0.000156501
-8.4548e-05
-9.94835e-05
-0.000117581
-0.00013252
-0.000156437
-0.000134536
-0.000138984
-0.000144472
-0.000150397
-0.000163067
-0.000104298
-0.000113774
-0.000122968
-0.000132091
-0.000150416
-7.09856e-05
-9.08381e-05
-0.000105875
-0.00012296
-0.000144487
-4.52795e-05
-7.22568e-05
-9.08434e-05
-0.00011377
-0.000139006
4.23956e-06
-4.52969e-05
-7.10031e-05
-0.00010431
-0.000134583
-0.000145184
-0.000148755
-0.000157344
-0.000161265
-0.000176476
-9.93531e-05
-0.000113228
-0.000122772
-0.00013818
-0.000161284
-6.09412e-05
-8.42604e-05
-0.000105084
-0.00012276
-0.000157349
-1.32342e-05
-6.39523e-05
-8.42608e-05
-0.000113215
-0.000148751
4.87723e-05
-1.32451e-05
-6.09686e-05
-9.93707e-05
-0.000145235
-0.000108867
-0.000122683
-0.0001298
-0.000141931
-0.000155969
-5.63452e-05
-7.70818e-05
-9.40996e-05
-0.000116044
-0.000141964
3.47778e-05
-2.82877e-05
-5.20138e-05
-9.40872e-05
-0.000129829
0.000105998
8.83717e-06
-2.82821e-05
-7.70779e-05
-0.000122708
0.000360651
0.000105926
3.47516e-05
-5.6388e-05
-0.000108939
-0.000149996
-0.000155184
-0.000162164
-0.000165257
-0.000177837
-6.80345e-05
-0.000109748
-0.00012423
-0.000145194
-0.00016531
4.3025e-05
-3.63565e-05
-8.36596e-05
-0.000124221
-0.000162242
0.000227898
-8.26452e-06
-3.63312e-05
-0.00010974
-0.00015526
0.000437377
0.000227964
4.30888e-05
-6.80618e-05
-0.00015016
-9.80052e-05
-0.000119435
-0.000125168
-0.00013988
-0.000150252
-5.4857e-05
-7.03816e-05
-9.50278e-05
-0.000118359
-0.000139922
0.000138158
1.57851e-05
-3.0565e-05
-9.5044e-05
-0.000125211
0.000281693
0.000138496
1.57911e-05
-7.04543e-05
-0.000119434
0.00109299
0.000544719
0.00013808
-5.50086e-05
-9.80583e-05
-0.000187197
-0.000184444
-0.00017808
-0.000178149
-0.000177786
-0.000174286
-0.000164592
-0.000170754
-0.000169948
-0.000178217
-0.000206992
-0.000179615
-0.000170273
-0.000170804
-0.000178191
-0.000110171
-0.000117733
-0.000179235
-0.0001648
-0.000184483
0.000504171
-4.77153e-05
-0.000206178
-0.00017466
-0.00018721
-0.000141139
-0.000141977
-0.000142291
-0.000146807
-0.000149133
-0.000149695
-0.000146774
-0.000142352
-0.000147304
-0.000146852
-0.000153444
-0.000144453
-0.000137887
-0.000142435
-0.000142367
-0.000237896
-0.000170144
-0.000144501
-0.000146861
-0.000141998
-0.00106731
-0.000330465
-0.000153198
-0.000150002
-0.00014116
-0.00018554
-0.000189565
-0.00018149
-0.000183295
-0.000174304
-0.000178421
-0.000183896
-0.000187737
-0.000187449
-0.000183355
-0.000142403
-0.000177049
-0.000177948
-0.000187769
-0.000181562
-5.26317e-05
-0.000110895
-0.000177098
-0.000183925
-0.000189635
0.000336439
-2.50155e-06
-0.000142104
-0.000178491
-0.000185667
-0.000165797
-0.000157147
-0.000148529
-0.000146592
-0.000140088
-0.000211427
-0.000193546
-0.000173352
-0.000163413
-0.000146662
-0.000310379
-0.000221929
-0.000192055
-0.000173369
-0.000148601
-9.62907e-05
-0.000184759
-0.000222111
-0.000193572
-0.000157241
0.00128786
5.51726e-05
-0.000310858
-0.000211505
-0.000165938
-0.000245905
-0.000228649
-0.000211528
-0.000201375
-0.000182582
-0.000297999
-0.00027271
-0.000245776
-0.000226211
-0.000201401
-0.000436398
-0.000342199
-0.000288939
-0.000245782
-0.000211567
-0.000550934
-0.000408251
-0.000342263
-0.000272719
-0.000228663
-0.0019249
-0.00078093
-0.000436391
-0.000298037
-0.000245947
-0.000156179
-0.000151294
-0.000139347
-0.000137686
-0.000124434
-0.000221705
-0.000190232
-0.000170356
-0.000154616
-0.000137731
-0.000287801
-0.000245638
-0.000196928
-0.000170343
-0.000139389
-0.00046987
-0.000309076
-0.000245676
-0.000190219
-0.000151341
-0.000954535
-0.000469867
-0.00028788
-0.000221713
-0.000156247
-0.000221912
-0.000214584
-0.000200088
-0.000193393
-0.000170292
-0.000271195
-0.000257248
-0.000236594
-0.000223095
-0.000193384
-0.000322791
-0.00028612
-0.000258269
-0.000236598
-0.000200099
-0.000407176
-0.000338228
-0.000286106
-0.000257224
-0.000214551
-0.000522914
-0.000407192
-0.000322785
-0.000271175
-0.000221909
-9.74947e-05
-9.62968e-05
-8.98015e-05
-8.80922e-05
-7.60704e-05
-0.000116243
-0.000111889
-0.000108182
-0.000102247
-8.81146e-05
-0.000119853
-0.000118634
-0.000110233
-0.000108174
-8.98232e-05
-0.000145352
-0.000127038
-0.000118652
-0.000111886
-9.63225e-05
-0.000147073
-0.000145347
-0.000119868
-0.000116211
-9.75131e-05
-5.91602e-05
-6.15375e-05
-5.30531e-05
-6.09154e-05
-4.39182e-05
-9.64374e-05
-8.97635e-05
-7.76906e-05
-7.99698e-05
-6.08851e-05
-0.000119979
-0.000103366
-8.02177e-05
-7.77103e-05
-5.30526e-05
-0.000162
-0.000133355
-0.000103352
-8.97676e-05
-6.15106e-05
-0.000196456
-0.000162011
-0.000119999
-9.64974e-05
-5.92094e-05
0.00017226
0.000867857
0.00054472
0.000188588
0.000113066
0.000241602
0.000413141
0.00050826
0.00328517
0.00109292
0.00182874
0.000424221
0.00231675
0.0018287
0.000171949
0.000867734
0.000281457
0.000413127
0.00011243
0.000241539
0.000188249
-0.000107349
-0.000141585
-4.8308e-05
-0.000259822
-0.000219541
-0.000786492
-0.000415504
-9.90596e-05
-0.000159089
-0.000117979
-0.000189289
-0.000143374
-0.000276113
-0.000191125
0.000189146
0.000711583
0.000504404
-0.00114611
-0.000371371
-0.00260223
-0.00114671
-0.000107845
-0.000141394
-0.000110535
-0.000413514
-0.000222289
-0.000785759
-0.00026095
-0.000191687
-0.00043372
-0.000331169
-0.000175538
-0.000165515
-0.000211977
-0.000229039
-0.000453876
-0.00260396
-0.00106745
-0.000334163
-0.000300874
-0.000284313
-0.000334234
-0.000192783
-0.000432753
-0.00023834
-0.000227958
-0.000166157
-0.000211488
-0.000175963
-7.00833e-05
4.87129e-05
-2.6543e-06
1.20897e-05
-3.5987e-05
0.000321453
-2.95433e-06
0.000148967
0.000768994
0.000336122
0.000916677
0.000210916
0.00451498
0.000916218
-7.04021e-05
4.8813e-05
-5.30205e-05
-1.54877e-06
-3.58279e-05
0.000321909
1.2067e-05
2.43968e-05
0.000504643
5.69766e-05
-0.00040666
-0.000368854
-0.00073402
-0.000615253
-0.000177636
-5.65416e-06
-0.000184186
-0.000343135
-0.000286141
-0.000422278
-0.000342744
0.000147581
0.00269826
0.00128829
-0.00243607
-0.000877657
-0.00145614
-0.00243645
2.61787e-05
0.000505845
-9.61018e-05
-0.000615134
-0.000368746
-0.000734172
-0.000406545
-0.000440151
-0.00105607
-0.000780953
-0.000512015
-0.000425261
-0.000821637
-0.000690346
-0.000835008
-0.00255694
-0.00192524
-0.000871861
-0.000547545
-0.00158788
-0.000872125
-0.000440069
-0.0010562
-0.000551127
-0.000690485
-0.000425058
-0.000821611
-0.000512133
-0.000816541
-0.00108275
-0.000954789
-0.000544042
-0.000449554
-0.000650885
-0.000543982
-0.000704294
0.000393924
0.000157308
-0.00158462
-0.000169583
-0.00116222
-0.000752199
-0.000210562
6.94991e-05
-7.39003e-05
-0.000211993
-2.98074e-06
-0.000196243
-0.000290433
-0.000764758
-0.000867035
-0.00169437
-0.000505194
-0.00143802
-0.000340147
-0.000874223
0.000251936
0.000618356
0.00193183
0.00139501
0.00168452
0.000721761
0.0002483
-0.00212611
-0.00159707
-0.00222391
-0.00141127
-0.00235245
-0.00130218
-0.00233155
0.0021099
0.0013701
0.00113677
0.00108864
0.000866333
0.00122178
0.00273288
0.00160095
0.000542671
0.000446099
0.0004457
0.000848399
0.000848155
0.00145617
0.00316298
0.00451837
0.00201847
0.00201855
0.00172587
0.00433029
0.00433043
0.00210983
0.00136992
0.00113626
0.0010888
0.000865422
0.00122158
0.0027331
-0.000241592
0.000208437
-0.000158779
-0.000359782
0.000152644
-0.000312378
-0.000277957
-0.000210358
6.89176e-05
-7.43281e-05
-0.00021185
-3.46615e-06
-0.000195818
-0.000290652
-0.000365454
-0.000531489
-0.000412689
-0.000734234
-0.000572953
-0.000317966
-0.00045405
-0.0011873
-0.000125316
-0.000126051
-0.000351252
-9.11421e-05
-0.000517518
-0.000518346
-0.00065343
0.000518506
0.000518677
-0.000507594
0.000296699
-0.000591478
-0.00059122
-0.000703317
0.000393929
0.00015773
-0.00158436
-0.000169156
-0.00116219
-0.000751528
-0.0015045
-0.00184924
-0.000828007
-0.00210337
-0.00129984
-0.00183372
-0.00144308
-0.00182129
-0.000492541
-0.000838676
-0.000843447
-0.000755889
-0.000757864
-0.00152206
-0.00155716
-0.00155925
-0.00254106
-0.00254077
-0.00216178
-0.0015626
-0.00156226
-0.00150194
-0.00184939
-0.000828266
-0.00210236
-0.00129915
-0.00183087
-0.00144187
-0.000242041
-0.000158692
0.000208937
-0.000359644
0.000152722
-0.000312625
-0.000277473
-0.000365063
-0.000530353
-0.000738617
-0.000411458
-0.000572629
-0.000317945
-0.000453333
-0.000734414
-0.000735015
-0.000735664
-0.000137674
-0.00103651
-0.000447757
-0.00044942
-0.000679471
-0.00188129
-0.00188109
-0.00119672
-0.00165266
-0.000976486
-0.00097606
-0.000764363
-0.000866601
-0.00169375
-0.000505201
-0.00143684
-0.000340508
-0.000873996
0.00113669
0.000710177
0.000725627
0.00203747
0.000448512
0.00183064
0.00158632
0.00179095
0.00245253
0.00300653
0.00300641
0.00202363
0.00220945
0.00220937
0.00113658
0.000710222
0.000724928
0.00203733
0.000448497
0.00183095
0.00158632
-7.89342e-05
0.000132131
0.000384595
-0.00025938
-2.53956e-05
-0.000252641
5.65498e-05
-0.000369445
-0.000451478
-0.000788378
-0.000728357
-0.000503143
-0.000729224
-0.00038122
-0.00052755
-0.00053568
-0.000584981
-0.000667543
-0.000431464
-0.000471284
-0.000634083
0.00061296
0.000494829
0.000497322
-2.49226e-05
0.00138189
-5.24871e-05
-5.01735e-05
0.000655762
0.00252175
0.00252168
0.000987009
0.00234355
0.000794597
0.000794464
0.000250924
0.000615349
0.0019319
0.00139506
0.00168362
0.000720713
0.000248007
-0.000759239
-0.000910275
-0.00197847
-0.00138414
-0.000739641
-0.00151079
-0.000657493
-0.0010804
-0.000453524
-0.000975987
-0.000975578
-0.000704534
-0.000703013
-0.00192159
-0.000551348
-0.000339098
-0.00146414
-0.00146431
-0.00152281
-0.000443498
-0.000443655
-0.00075978
-0.000910428
-0.00197883
-0.00138452
-0.000740211
-0.00151115
-0.000657833
-7.94427e-05
0.000385441
0.000131594
-0.000259336
-2.81842e-05
-0.000253464
5.67307e-05
-0.000527383
-0.000537518
-0.000585389
-0.000667538
-0.000431591
-0.000470376
-0.00063453
-0.000370568
-0.000451377
-0.000728616
-0.00078854
-0.000503133
-0.000729568
-0.00038129
-0.00068423
-0.000803535
-0.00105512
-0.00115164
-0.000720773
-0.00110317
-0.000772094
-0.00181513
-0.001218
-0.00121798
-0.000762877
-0.00218498
-0.00119367
-0.0011937
-0.00222958
-0.0025006
-0.00250077
-0.00359799
-0.00250122
-0.00294805
-0.00294819
-0.00212619
-0.00159728
-0.00222419
-0.00141151
-0.00235256
-0.00130222
-0.00233176
-0.00152409
-0.00135463
-0.000766096
-0.00128861
-0.00122246
-0.00118151
-0.00176758
-0.00134267
-0.000824648
-0.00084434
-0.00084445
-0.00106958
-0.0010696
-0.0010923
-0.0019166
-0.00227311
-0.00135254
-0.00135255
-0.00113423
-0.00209941
-0.00209957
-0.00152411
-0.00135484
-0.000766224
-0.00128861
-0.00122252
-0.00118146
-0.00176771
-0.000684221
-0.00105537
-0.000803671
-0.00115169
-0.000721049
-0.00110346
-0.000772248
0.000252893
0.000713751
0.000437326
0.00102281
0.000669765
0.00149232
0.00102268
0.00295514
0.00265738
0.00265741
0.00447237
0.00200148
0.00328336
0.00328349
0.0023761
0.000869099
0.00184108
0.00151692
0.00154777
0.00127299
0.00272682
0.00039293
0.000831239
0.000517917
0.000434427
0.00077084
0.000372831
0.000503042
0.00237574
0.000868645
0.00184108
0.00151688
0.00154778
0.00127292
0.00272686
0.000392581
0.000831205
0.000434035
0.000517927
0.000770652
0.000372303
0.000502944
0.000862524
2.77815e-05
0.000543377
0.000540797
0.000425017
0.000426083
0.00124333
0.00158205
0.000789493
0.000789389
0.000703601
0.00121196
0.00103093
0.00103084
-0.00032951
-0.000194355
0.000750048
-0.000307424
-0.000192125
-0.000222732
7.88372e-05
-0.000329693
-0.000194926
0.000746104
-0.000307695
-0.000186928
-0.000221944
7.95518e-05
)
;

boundaryField
{
    inlet
    {
        type            fixedValue;
        value           uniform 0;
    }
    wall
    {
        type            zeroGradient;
    }
    outlet
    {
        type            fixedValue;
        value           uniform 0;
    }
    procBoundary1to0
    {
        type            processor;
        value           nonuniform List<scalar> 
320
(
-5.20124e-06
-5.19703e-06
-5.19808e-06
-5.19608e-06
-5.19664e-06
-9.69e-06
-9.68721e-06
-9.68713e-06
-9.68588e-06
-9.68581e-06
-2.41422e-05
-2.4136e-05
-2.41357e-05
-2.41327e-05
-2.41327e-05
-3.12414e-05
-3.12342e-05
-3.12336e-05
-3.12298e-05
-3.12295e-05
-4.38411e-05
-4.38303e-05
-4.38294e-05
-4.38239e-05
-4.38235e-05
-5.28567e-05
-5.28419e-05
-5.28407e-05
-5.2833e-05
-5.28327e-05
-6.38432e-05
-6.3822e-05
-6.38205e-05
-6.38097e-05
-6.38095e-05
-7.39903e-05
-7.396e-05
-7.39581e-05
-7.3943e-05
-7.39429e-05
-8.4104e-05
-8.4061e-05
-8.40586e-05
-8.40371e-05
-8.40371e-05
-9.46439e-05
-9.45833e-05
-9.4582e-05
-9.45533e-05
-9.45545e-05
-0.000104339
-0.000104255
-0.000104258
-0.00010422
-0.000104224
-0.000114771
-0.000114661
-0.000114686
-0.000114648
-0.000114664
-0.000124088
-0.000123948
-0.000124031
-0.000124053
-0.000124128
-0.000133923
-0.000133801
-0.000134005
-0.000134123
-0.000134264
-0.000142158
-0.0001421
-0.000142354
-0.000142269
-0.000142286
-0.000149851
-0.000149525
-0.000149435
-0.000149001
-0.00014888
-0.000154819
-0.000153852
-0.000153393
-0.00015264
-0.000152384
-0.000158749
-0.000157138
-0.000156202
-0.000154929
-0.000154415
-0.000159939
-0.000157424
-0.000155755
-0.000153748
-0.000152922
-0.00016162
-0.000158242
-0.000156311
-0.000153932
-0.000153116
-0.000160501
-0.000155436
-0.000152891
-0.000150124
-0.000149031
-0.000162996
-0.000156501
-0.00015356
-0.000149676
-0.000148251
-0.000159009
-0.000150146
-0.00014538
-0.000139978
-0.000136954
-0.00016284
-0.000150041
-0.000143715
-0.000135628
-0.00013149
-0.00015279
-0.000135546
-0.000123309
-0.000112059
-0.000101008
-0.000156414
-0.00013251
-0.00011757
-9.9469e-05
-8.45526e-05
-0.000134545
-0.000104302
-7.09877e-05
-4.5282e-05
4.23424e-06
-0.000145228
-9.93636e-05
-6.09619e-05
-1.3232e-05
4.87781e-05
-0.000108882
-5.63436e-05
3.47691e-05
0.000105994
0.000360598
-0.00015006
-6.80198e-05
4.30058e-05
0.000227933
0.000437362
-9.80412e-05
-5.48351e-05
0.000138176
0.000281754
0.00109317
-0.000187285
-0.000174239
-0.000206911
-0.000110165
0.000504312
-0.000141198
-0.000149697
-0.000153403
-0.000237933
-0.00106734
-0.000185648
-0.000178436
-0.000142434
-5.25546e-05
0.000336224
-0.00016589
-0.00021146
-0.00031075
-9.56874e-05
0.00128806
-0.000245954
-0.000298089
-0.000436378
-0.000550869
-0.00192492
-0.000156245
-0.000221758
-0.000287844
-0.000469969
-0.000954678
-0.00022198
-0.000271238
-0.000322808
-0.000407158
-0.000522911
-9.75364e-05
-0.00011626
-0.000119867
-0.00014536
-0.000147064
-5.92099e-05
-9.6447e-05
-0.000120005
-0.000161991
-0.000196476
0.000867941
0.000241522
0.00018859
0.00328531
0.00231678
0.00182863
-0.000141488
-0.000786906
-0.000260505
0.000711528
-0.00260215
-0.00114618
-0.000433162
-0.000211822
-0.000175621
-0.00260361
-0.00028434
-0.000334393
4.86633e-05
0.000322027
1.20093e-05
0.000768772
0.00451469
0.000916213
0.000505884
-0.000733933
-0.000406579
0.00269816
-0.00145609
-0.00243608
-0.00105605
-0.00082155
-0.000512106
-0.00255688
-0.00158788
-0.000871981
-0.00108278
-0.000650755
-0.000544148
0.000157286
-0.000752194
-0.00158461
-0.0016944
-0.000873931
-0.000505177
0.00193108
0.000248057
0.0013951
-0.00222388
-0.00233186
-0.0014114
0.00201852
0.00433078
0.00451861
0.00137027
0.00273312
0.00108858
-0.000359823
-0.000277702
0.000208636
-0.000412151
-0.000453792
-0.000531193
-0.000507678
-0.000591546
0.000518451
-0.002541
-0.00156262
-0.00155931
-0.00184915
-0.00144289
-0.00210281
-0.00119646
-0.000976316
-0.00188112
0.00300629
0.00220941
0.00245247
0.000710278
0.00158616
0.00203713
-0.000259106
5.68121e-05
0.000131974
-0.000788368
-0.000381174
-0.000451198
0.000986987
0.000794496
0.00252157
-0.00146411
-0.000443505
-0.000339072
-0.000910027
-0.000657517
-0.00138413
-0.00115158
-0.000772168
-0.000803552
-0.00359794
-0.00294811
-0.00250055
-0.00135252
-0.00209942
-0.00227307
-0.00135472
-0.00176761
-0.00128869
0.000713795
0.00149233
0.00102277
0.00447285
0.00328389
0.00265749
0.0018411
0.00272715
0.00151692
0.000517999
0.000503159
0.000831234
)
;
    }
    procBoundary1to3
    {
        type            processor;
        value           nonuniform List<scalar> 
320
(
-5.19659e-06
-5.1961e-06
-5.1981e-06
-5.19707e-06
-5.20118e-06
-9.68572e-06
-9.68571e-06
-9.6869e-06
-9.68694e-06
-9.68944e-06
-2.41326e-05
-2.41326e-05
-2.41356e-05
-2.41358e-05
-2.41419e-05
-3.12293e-05
-3.12295e-05
-3.12331e-05
-3.12337e-05
-3.12407e-05
-4.38233e-05
-4.38236e-05
-4.38292e-05
-4.383e-05
-4.38407e-05
-5.28325e-05
-5.28328e-05
-5.28404e-05
-5.28414e-05
-5.28561e-05
-6.38094e-05
-6.38096e-05
-6.38204e-05
-6.38217e-05
-6.3843e-05
-7.39428e-05
-7.39429e-05
-7.3958e-05
-7.39597e-05
-7.399e-05
-8.40372e-05
-8.40372e-05
-8.40586e-05
-8.40609e-05
-8.41041e-05
-9.45547e-05
-9.45534e-05
-9.45822e-05
-9.45834e-05
-9.46443e-05
-0.000104224
-0.00010422
-0.000104258
-0.000104256
-0.00010434
-0.000114665
-0.000114649
-0.000114687
-0.000114662
-0.000114772
-0.000124128
-0.000124053
-0.000124032
-0.000123949
-0.000124089
-0.000134264
-0.000134123
-0.000134006
-0.000133802
-0.000133925
-0.000142287
-0.00014227
-0.000142355
-0.0001421
-0.000142161
-0.000148881
-0.000149003
-0.000149438
-0.000149528
-0.000149854
-0.000152383
-0.00015264
-0.000153396
-0.000153854
-0.000154822
-0.000154416
-0.000154929
-0.000156203
-0.00015714
-0.000158755
-0.000152923
-0.000153746
-0.000155754
-0.000157424
-0.000159945
-0.000153119
-0.000153935
-0.000156315
-0.000158245
-0.00016163
-0.000149036
-0.00015013
-0.000152899
-0.000155437
-0.000160509
-0.000148254
-0.000149683
-0.000153571
-0.00015651
-0.000163013
-0.000136957
-0.000139982
-0.000145389
-0.000150152
-0.000159014
-0.000131488
-0.000135633
-0.000143722
-0.000150044
-0.00016285
-0.000101006
-0.000112059
-0.000123316
-0.000135545
-0.000152803
-8.4542e-05
-9.94741e-05
-0.00011757
-0.000132505
-0.000156417
4.24974e-06
-4.52861e-05
-7.09922e-05
-0.000104292
-0.000134557
4.87673e-05
-1.3249e-05
-6.09548e-05
-9.93517e-05
-0.000145198
0.000360655
0.000105945
3.4758e-05
-5.63777e-05
-0.000108928
0.000713725
0.000227871
4.30963e-05
-6.80854e-05
-0.000150131
0.00328503
0.000867801
0.000138077
-5.5047e-05
-9.80676e-05
0.000711635
-0.000141511
-0.000206281
-0.000174755
-0.000187188
-0.00260424
-0.000432944
-0.000153276
-0.000150028
-0.000141201
0.000768971
4.88097e-05
-0.000142265
-0.00017854
-0.000185649
0.00269811
0.00050453
-0.000310371
-0.000211505
-0.000165938
-0.00255704
-0.00105629
-0.000436328
-0.00029806
-0.000245894
-0.00108207
-0.00046989
-0.00028786
-0.000221695
-0.000156257
-0.000522814
-0.0004072
-0.00032274
-0.000271192
-0.00022189
-0.000147099
-0.000145341
-0.000119886
-0.000116233
-9.753e-05
-0.000196447
-0.000161997
-0.000119986
-9.6461e-05
-5.92066e-05
0.00231673
0.00182848
0.00109289
0.000241369
0.000188181
0.000281499
-0.0026023
-0.00114671
0.000504304
-0.000785536
-0.000260431
-0.000110398
-0.000284211
-0.000334154
-0.00106754
-0.000211518
-0.000175981
-0.000238216
0.00451496
0.000915909
0.000336105
0.000321697
1.19059e-05
-5.29019e-05
-0.00145626
-0.00243661
0.00128681
-0.000734228
-0.000406654
-9.66569e-05
-0.00158814
-0.000872281
-0.00192536
-0.000821679
-0.00051212
-0.000550888
-0.000651159
-0.000544072
-0.000954872
-0.000507519
-0.000591179
0.000518714
-0.00035959
-0.000277722
0.000208783
-0.00119697
-0.000976176
-0.00188115
0.000986854
0.000794224
0.00252137
-0.000259601
5.65755e-05
0.000132207
-0.00359814
-0.00294809
-0.00250083
-0.00115181
-0.000772221
-0.000803665
0.00201852
0.0043302
0.00451825
0.00136989
0.00273262
0.00108869
-0.00254085
-0.00156228
-0.0015592
-0.00184949
-0.00144212
-0.00210269
0.000157711
-0.000751567
-0.00158433
-0.000412052
-0.000453549
-0.000530675
-0.00169383
-0.000874139
-0.000505325
0.00300621
0.00220925
0.00245244
0.000709981
0.00158615
0.00203691
-0.00146443
-0.000443808
-0.000339231
-0.000910709
-0.000658015
-0.00138466
0.00193146
0.000247637
0.00139405
-0.000788447
-0.00038126
-0.000451819
-0.00135275
-0.0020998
-0.00227318
-0.00135497
-0.00176782
-0.00128861
-0.00222432
-0.00233218
-0.00141161
0.0014923
0.00102272
0.00043731
0.00447225
0.00328331
0.00265727
0.00184093
0.00272682
0.00151672
0.000517767
0.000502949
0.000831004
)
;
    }
}


// ************************************************************************* //
