FoamFile
{version 2.0; format ascii;class Cloud<passiveParticle>; location 0;object  positions;}
2
(
( 0.499988 0.499988 3.27567 ) 0 
( 0.499987 0.499986 2.9364 ) 0 
)
