FoamFile
{version 2.0; format ascii;class Cloud<passiveParticle>; location 0;object  positions;}
1
(
( 0.0499979 0.0149264 0.0499979 ) 0 
)
