/*--------------------------------*- C++ -*----------------------------------*\
| =========                 |                                                 |
| \\      /  F ield         | OpenFOAM: The Open Source CFD Toolbox           |
|  \\    /   O peration     | Version:  5.x                                   |
|   \\  /    A nd           | Web:      www.OpenFOAM.org                      |
|    \\/     M anipulation  |                                                 |
\*---------------------------------------------------------------------------*/
FoamFile
{
    version     2.0;
    format      ascii;
    class       volVectorField;
    location    "0.087";
    object      U;
}
// * * * * * * * * * * * * * * * * * * * * * * * * * * * * * * * * * * * * * //

dimensions      [0 1 -1 0 0 0 0];

internalField   nonuniform List<vector> 
1581
(
(-7.12665e-05 -1.44985e-05 0.04615)
(-8.01556e-05 -1.75468e-05 0.0460915)
(-5.66309e-05 -1.85899e-05 0.0460859)
(-5.48441e-05 -2.11518e-05 0.0460699)
(-2.78875e-05 -2.23608e-05 0.0460742)
(-7.23047e-05 1.07224e-05 0.0461502)
(-8.1511e-05 8.32497e-06 0.046091)
(-5.78161e-05 7.45088e-06 0.0460855)
(-5.60575e-05 5.21968e-06 0.0460695)
(-2.90352e-05 4.08043e-06 0.0460741)
(-7.36964e-05 1.52248e-05 0.0461565)
(-8.34266e-05 1.33192e-05 0.0460967)
(-5.97361e-05 1.26201e-05 0.0460912)
(-5.82146e-05 1.07325e-05 0.0460748)
(-3.13083e-05 9.74028e-06 0.0460794)
(-7.42324e-05 3.61649e-05 0.0461623)
(-8.41153e-05 3.45755e-05 0.0461025)
(-6.04028e-05 3.39035e-05 0.0460971)
(-5.89374e-05 3.21647e-05 0.0460807)
(-3.20429e-05 3.11464e-05 0.0460856)
(-7.52962e-05 3.61656e-05 0.0461981)
(-8.56879e-05 3.51017e-05 0.0461378)
(-6.2147e-05 3.45831e-05 0.0461323)
(-6.09716e-05 3.33412e-05 0.0461152)
(-3.43366e-05 3.25271e-05 0.0461197)
(-3.85963e-06 -1.57407e-05 -0.0278541)
(-9.09356e-06 -1.52577e-05 -0.0278443)
(-1.82663e-05 -1.55067e-05 -0.0278443)
(-2.25246e-05 -1.5999e-05 -0.0278429)
(-2.02482e-05 -1.67429e-05 -0.0278447)
(-3.72183e-06 -1.01393e-05 -0.0278547)
(-9.10965e-06 -1.01546e-05 -0.0278447)
(-1.86876e-05 -1.05527e-05 -0.0278447)
(-2.31678e-05 -1.12649e-05 -0.0278434)
(-2.10793e-05 -1.20899e-05 -0.0278453)
(-3.86026e-06 -7.83908e-06 -0.0278547)
(-9.50604e-06 -8.0878e-06 -0.0278447)
(-1.93766e-05 -8.49825e-06 -0.0278448)
(-2.40617e-05 -9.19481e-06 -0.0278435)
(-2.21941e-05 -9.92668e-06 -0.0278455)
(-3.96258e-06 -1.05717e-05 -0.0278556)
(-9.76814e-06 -1.08986e-05 -0.0278456)
(-1.97946e-05 -1.12672e-05 -0.0278457)
(-2.45963e-05 -1.19336e-05 -0.0278445)
(-2.2822e-05 -1.25612e-05 -0.0278466)
(-4.18397e-06 -6.15529e-06 -0.0278608)
(-1.02012e-05 -6.37659e-06 -0.0278509)
(-2.04116e-05 -6.58795e-06 -0.027851)
(-2.53557e-05 -6.9976e-06 -0.0278497)
(-2.37431e-05 -7.35427e-06 -0.0278519)
(-6.23616e-05 -1.50393e-05 0.0359086)
(-7.16215e-05 -1.78003e-05 0.0358672)
(-5.64323e-05 -1.8852e-05 0.0358621)
(-5.64718e-05 -2.1578e-05 0.0358382)
(-3.02442e-05 -2.30096e-05 0.0358361)
(-6.32865e-05 1.05419e-05 0.03591)
(-7.28741e-05 8.33342e-06 0.035868)
(-5.76935e-05 7.40555e-06 0.0358628)
(-5.7872e-05 5.03244e-06 0.0358386)
(-3.16361e-05 3.67104e-06 0.0358364)
(-6.45988e-05 1.47527e-05 0.0359237)
(-7.47574e-05 1.29303e-05 0.0358812)
(-5.97333e-05 1.21401e-05 0.0358758)
(-6.02063e-05 1.01172e-05 0.035851)
(-3.41792e-05 8.93433e-06 0.0358486)
(-6.51286e-05 3.05904e-05 0.0359272)
(-7.54863e-05 2.91046e-05 0.0358845)
(-6.05067e-05 2.8393e-05 0.0358792)
(-6.10778e-05 2.66155e-05 0.0358542)
(-3.51047e-05 2.55005e-05 0.0358518)
(-6.60925e-05 3.14535e-05 0.0359552)
(-7.69546e-05 3.04895e-05 0.0359123)
(-6.22223e-05 2.99777e-05 0.0359068)
(-6.30989e-05 2.87582e-05 0.0358814)
(-3.74674e-05 2.79348e-05 0.0358786)
(-4.67356e-05 -1.69974e-05 -0.0179045)
(-5.55134e-05 -1.80905e-05 -0.0179258)
(-4.70885e-05 -1.87373e-05 -0.0179301)
(-4.83948e-05 -2.03814e-05 -0.0179463)
(-2.81866e-05 -2.14807e-05 -0.0179501)
(-4.71669e-05 4.91289e-06 -0.0179042)
(-5.61797e-05 3.78829e-06 -0.0179257)
(-4.79564e-05 3.11921e-06 -0.01793)
(-4.94337e-05 1.47135e-06 -0.0179465)
(-2.93411e-05 3.20457e-07 -0.0179504)
(-4.78546e-05 9.39605e-06 -0.0178929)
(-5.73062e-05 8.398e-06 -0.0179146)
(-4.94055e-05 7.79693e-06 -0.0179191)
(-5.11936e-05 6.34972e-06 -0.017936)
(-3.14679e-05 5.31864e-06 -0.0179402)
(-4.81581e-05 2.10405e-05 -0.017891)
(-5.7778e-05 2.01832e-05 -0.0179128)
(-5.00047e-05 1.96353e-05 -0.0179173)
(-5.1912e-05 1.83063e-05 -0.0179343)
(-3.23093e-05 1.7343e-05 -0.0179386)
(-4.87007e-05 2.31598e-05 -0.0178734)
(-5.87111e-05 2.26172e-05 -0.0178954)
(-5.12826e-05 2.22358e-05 -0.0179)
(-5.34861e-05 2.13367e-05 -0.0179173)
(-3.43064e-05 2.06523e-05 -0.0179218)
(-8.4963e-05 -1.61569e-05 0.0274099)
(-9.74438e-05 -1.94987e-05 0.0273568)
(-7.70561e-05 -2.07827e-05 0.0273485)
(-7.65737e-05 -2.43744e-05 0.0273123)
(-3.77276e-05 -2.62721e-05 0.0273064)
(-8.60676e-05 2.21193e-05 0.0274118)
(-9.8892e-05 1.95965e-05 0.0273581)
(-7.86195e-05 1.84842e-05 0.0273496)
(-7.84228e-05 1.54379e-05 0.0273129)
(-3.96275e-05 1.36197e-05 0.0273069)
(-8.75073e-05 2.80107e-05 0.027436)
(-0.000101078 2.5983e-05 0.0273817)
(-8.12147e-05 2.49829e-05 0.027373)
(-8.14383e-05 2.24235e-05 0.0273355)
(-4.31929e-05 2.08475e-05 0.0273289)
(-8.81047e-05 4.99805e-05 0.0274409)
(-0.000101919 4.84776e-05 0.0273865)
(-8.2179e-05 4.76456e-05 0.0273777)
(-8.25583e-05 4.54881e-05 0.0273399)
(-4.44869e-05 4.40391e-05 0.0273332)
(-8.90004e-05 4.98487e-05 0.0274811)
(-0.000103413 4.89529e-05 0.0274267)
(-8.42045e-05 4.83648e-05 0.0274179)
(-8.50449e-05 4.69196e-05 0.0273795)
(-4.77761e-05 4.58594e-05 0.0273724)
(-0.000101996 -1.7801e-05 -0.0105945)
(-0.000116814 -2.07774e-05 -0.0106532)
(-9.13896e-05 -2.20296e-05 -0.0106637)
(-9.03133e-05 -2.54898e-05 -0.0107046)
(-4.17502e-05 -2.73654e-05 -0.0107125)
(-0.000102975 3.09439e-05 -0.0105925)
(-0.000118177 2.86557e-05 -0.0106515)
(-9.29249e-05 2.75787e-05 -0.0106622)
(-9.20421e-05 2.45604e-05 -0.0107037)
(-4.36523e-05 2.27121e-05 -0.0107118)
(-0.00010428 3.84967e-05 -0.0105629)
(-0.000120178 3.66985e-05 -0.0106221)
(-9.54849e-05 3.57936e-05 -0.010633)
(-9.51799e-05 3.32288e-05 -0.0106751)
(-4.74775e-05 3.15708e-05 -0.0106838)
(-0.000104758 6.63084e-05 -0.0105568)
(-0.000120879 6.50604e-05 -0.0106161)
(-9.63946e-05 6.43201e-05 -0.0106269)
(-9.62649e-05 6.21596e-05 -0.0106693)
(-4.88304e-05 6.0687e-05 -0.0106781)
(-0.00010549 6.54736e-05 -0.0105093)
(-0.000122166 6.47416e-05 -0.0105684)
(-9.83866e-05 6.42235e-05 -0.0105793)
(-9.88136e-05 6.27592e-05 -0.0106219)
(-5.23728e-05 6.16699e-05 -0.0106311)
(-0.000146625 -1.64162e-05 0.0211153)
(-0.00016692 -2.12991e-05 0.0210224)
(-0.000128661 -2.32078e-05 0.0210063)
(-0.000125582 -2.86676e-05 0.0209425)
(-5.32238e-05 -3.14937e-05 0.0209311)
(-0.000148094 5.37973e-05 0.0211193)
(-0.000168946 5.07988e-05 0.0210259)
(-0.000130971 4.93197e-05 0.0210096)
(-0.000128243 4.50975e-05 0.0209451)
(-5.61071e-05 4.24706e-05 0.0209333)
(-0.000149619 6.37345e-05 0.0211663)
(-0.000171396 6.15837e-05 0.0210725)
(-0.000134362 6.03943e-05 0.021056)
(-0.000132431 5.69736e-05 0.0209905)
(-6.17346e-05 5.47102e-05 0.0209781)
(-0.000150218 0.000103454 0.0211763)
(-0.000172284 0.000102446 0.0210826)
(-0.000135581 0.000101565 0.0210662)
(-0.000133928 9.89731e-05 0.0210005)
(-6.36957e-05 9.69561e-05 0.0209879)
(-0.000150556 9.95918e-05 0.0212512)
(-0.000173285 9.92528e-05 0.0211583)
(-0.000137837 9.86608e-05 0.0211421)
(-0.00013704 9.70237e-05 0.0210759)
(-6.88846e-05 9.5552e-05 0.0210629)
(-0.00019884 -1.69824e-05 -0.00533489)
(-0.000225647 -2.23627e-05 -0.00545796)
(-0.000171075 -2.44267e-05 -0.00548115)
(-0.000165316 -3.05551e-05 -0.00556545)
(-6.38441e-05 -3.37094e-05 -0.00558154)
(-0.000200307 8.18523e-05 -0.00532856)
(-0.000227648 7.85688e-05 -0.00545191)
(-0.00017346 7.71871e-05 -0.00547523)
(-0.000168117 7.23927e-05 -0.00556018)
(-6.7068e-05 6.95796e-05 -0.00557673)
(-0.000202085 9.54284e-05 -0.00526487)
(-0.000230309 9.32408e-05 -0.00538758)
(-0.000177251 9.22168e-05 -0.00541085)
(-0.000172924 8.83992e-05 -0.00549637)
(-7.34884e-05 8.602e-05 -0.00551359)
(-0.000202425 0.000151523 -0.00524992)
(-0.000230857 0.000150745 -0.00537212)
(-0.000178302 0.000150198 -0.0053952)
(-0.000174314 0.000147356 -0.00548069)
(-7.57025e-05 0.000145375 -0.00549807)
(-0.000202734 0.000144414 -0.00514884)
(-0.000231634 0.000144106 -0.0052692)
(-0.000180642 0.000143766 -0.00529176)
(-0.000177749 0.000141831 -0.0053768)
(-8.14543e-05 0.000140364 -0.00539447)
(-0.000275682 -1.27625e-05 0.016566)
(-0.000313636 -2.02202e-05 0.0163879)
(-0.000236393 -2.30452e-05 0.0163535)
(-0.000226195 -3.17056e-05 0.0162329)
(-8.16063e-05 -3.61853e-05 0.0162098)
(-0.000277421 0.000123951 0.016576)
(-0.000316066 0.000121356 0.016398)
(-0.000239485 0.000119804 0.0163637)
(-0.00022997 0.000114356 0.0162427)
(-8.62093e-05 0.000110593 0.0162194)
(-0.000278176 0.000142475 0.0166701)
(-0.000317779 0.00014158 0.0164925)
(-0.000243393 0.000140631 0.0164589)
(-0.000235406 0.000136666 0.0163367)
(-9.53516e-05 0.000133575 0.016313)
(-0.000278163 0.000219353 0.0166925)
(-0.000317906 0.000221187 0.0165164)
(-0.000244399 0.00022106 0.0164833)
(-0.000237025 0.000218961 0.0163617)
(-9.83186e-05 0.000216496 0.016338)
(-0.000276083 0.000205498 0.0168406)
(-0.000316072 0.000207578 0.0166674)
(-0.000245623 0.000207592 0.0166359)
(-0.000239973 0.000206505 0.0165147)
(-0.000106885 0.00020474 0.016491)
(-0.000384953 -1.04422e-05 -0.00169681)
(-0.000437936 -1.8749e-05 -0.00194549)
(-0.000325808 -2.17008e-05 -0.00199854)
(-0.000308742 -3.14856e-05 -0.002167)
(-0.000102396 -3.63507e-05 -0.00220163)
(-0.00038631 0.00018584 -0.00167981)
(-0.00043974 0.000183007 -0.00192762)
(-0.00032851 0.000182352 -0.00198022)
(-0.000312184 0.000176006 -0.00214895)
(-0.000107341 0.000172517 -0.00218403)
(-0.000387602 0.000211777 -0.00154903)
(-0.000441418 0.00021141 -0.00179316)
(-0.000332809 0.000211544 -0.00184433)
(-0.000318577 0.000207199 -0.00201223)
(-0.00011728 0.000204398 -0.00204748)
(-0.000386415 0.000322428 -0.00151356)
(-0.000439966 0.000325533 -0.00175476)
(-0.00033272 0.000327046 -0.00180457)
(-0.00031933 0.000325148 -0.00197112)
(-0.000120333 0.000323253 -0.00200596)
(-0.00038408 0.000300221 -0.00130838)
(-0.0004368 0.000302555 -0.00154265)
(-0.000333202 0.000303803 -0.00158948)
(-0.000322376 0.000302332 -0.00175271)
(-0.000128907 0.000300936 -0.00178683)
(-0.000536286 2.19566e-06 0.013306)
(-0.00061607 -8.49136e-06 0.0129541)
(-0.000458233 -1.21139e-05 0.0128746)
(-0.0004296 -2.56202e-05 0.0126392)
(-0.000135341 -3.24123e-05 0.0125876)
(-0.000537085 0.000271921 0.0133315)
(-0.000617182 0.000273936 0.0129827)
(-0.000461153 0.000274268 0.0129046)
(-0.000434079 0.000269384 0.012671)
(-0.000142321 0.000265011 0.0126202)
(-0.000533843 0.000308849 0.0135191)
(-0.000613713 0.000314714 0.0131741)
(-0.000462785 0.000316567 0.0131001)
(-0.000438857 0.000314793 0.0128662)
(-0.000157121 0.000311941 0.0128171)
(-0.00053066 0.000459904 0.0135707)
(-0.00060945 0.000472241 0.0132323)
(-0.000461074 0.000476549 0.0131609)
(-0.000438705 0.000479132 0.0129309)
(-0.000161004 0.000477806 0.0128831)
(-0.00052069 0.000420491 0.0138638)
(-0.000597067 0.000430461 0.0135351)
(-0.000455907 0.00043369 0.0134707)
(-0.000437611 0.000436178 0.0132442)
(-0.000173795 0.0004352 0.0131996)
(-0.00075313 1.19264e-05 0.000635198)
(-0.00086916 1.76802e-06 0.000132083)
(-0.000640324 -1.24069e-06 1.89789e-06)
(-0.000595423 -1.46006e-05 -0.000336554)
(-0.000176762 -2.08204e-05 -0.000418787)
(-0.000751334 0.00039872 0.000679359)
(-0.000866467 0.000402683 0.000182388)
(-0.000639773 0.000407507 5.60034e-05)
(-0.000596223 0.000402648 -0.00028058)
(-0.000183111 0.000401714 -0.000362139)
(-0.000748499 0.000450787 0.000942158)
(-0.000860355 0.000460706 0.000458071)
(-0.00064036 0.000467518 0.000338357)
(-0.000601215 0.000466742 8.80864e-06)
(-0.000196429 0.000466886 -7.03188e-05)
(-0.000740535 0.000667742 0.00102673)
(-0.000849713 0.000686503 0.000554527)
(-0.000633738 0.000697498 0.000441467)
(-0.000596854 0.00070302 0.000118428)
(-0.000199815 0.000705577 4.33174e-05)
(-0.000728469 0.00060831 0.00143615)
(-0.0008306 0.000620376 0.00098411)
(-0.000623866 0.000628694 0.00088316)
(-0.000593153 0.000631122 0.000571884)
(-0.000210188 0.000633053 0.000502958)
(-0.00106334 4.68465e-05 0.010943)
(-0.00125052 3.51251e-05 0.0102355)
(-0.00092734 3.36336e-05 0.0100374)
(-0.000850722 1.39994e-05 0.00956516)
(-0.000246322 5.41994e-06 0.00943137)
(-0.00105772 0.000579147 0.0110074)
(-0.00124167 0.000600279 0.0103154)
(-0.000924581 0.000611097 0.0101241)
(-0.000852649 0.000615127 0.00966694)
(-0.000255109 0.000613869 0.00953964)
(-0.00104075 0.00065637 0.0113764)
(-0.00121854 0.000687241 0.0106993)
(-0.000912492 0.000702438 0.0105248)
(-0.00084795 0.000714223 0.0100705)
(-0.000278287 0.000717828 0.00995808)
(-0.00102504 0.000953903 0.0114972)
(-0.00119556 0.000999141 0.0108448)
(-0.000897599 0.0010224 0.0106807)
(-0.000837257 0.0010433 0.0102424)
(-0.000279987 0.00105219 0.0101352)
(-0.000993087 0.000849489 0.0120691)
(-0.00115005 0.000881441 0.0114472)
(-0.000868378 0.00089743 0.0113091)
(-0.000818187 0.000912445 0.0108847)
(-0.000297057 0.000917927 0.0107941)
(-0.00149411 7.50429e-05 0.00181653)
(-0.00177469 7.26332e-05 0.000793423)
(-0.00131001 7.37703e-05 0.000448232)
(-0.00120098 6.61721e-05 -0.000232566)
(-0.000344276 6.32484e-05 -0.000445795)
(-0.00147621 0.000831827 0.00193157)
(-0.0017497 0.00086613 0.000934458)
(-0.00128763 0.000894488 0.000611593)
(-0.00118018 0.000907502 -6.58231e-05)
(-0.00034791 0.000927959 -0.000270076)
(-0.00145761 0.000940468 0.00245136)
(-0.00171197 0.000989577 0.00149148)
(-0.00126865 0.00102363 0.00119249)
(-0.00116751 0.00104166 0.000541509)
(-0.000353364 0.00106187 0.000341181)
(-0.0014243 0.00136153 0.00265515)
(-0.00166646 0.00143461 0.00173831)
(-0.00123554 0.00148175 0.00146817)
(-0.00114193 0.00151725 0.000841962)
(-0.000354149 0.00154157 0.000666)
(-0.00138075 0.00120953 0.00346071)
(-0.00159175 0.00125307 0.00259323)
(-0.00118608 0.00128802 0.00236697)
(-0.00110774 0.00130532 0.00177492)
(-0.000356085 0.0013244 0.0016242)
(-0.00213531 0.000168364 0.00912006)
(-0.00262088 0.000170034 0.00766976)
(-0.00195401 0.000189352 0.00715276)
(-0.00174543 0.000159799 0.00616831)
(-0.000501797 0.00015692 0.00578142)
(-0.00210263 0.00121435 0.00928462)
(-0.00256366 0.00129886 0.00789968)
(-0.00192551 0.00135593 0.00740137)
(-0.00173496 0.0013898 0.0064964)
(-0.000503159 0.00140147 0.00613439)
(-0.00204619 0.00138006 0.0100024)
(-0.00247921 0.00149163 0.0086661)
(-0.00186309 0.0015596 0.00822632)
(-0.00169988 0.00162263 0.00732895)
(-0.000545667 0.00165455 0.00704831)
(-0.00198548 0.00196353 0.0102918)
(-0.00238397 0.00210232 0.00904036)
(-0.00179452 0.00219868 0.0086394)
(-0.00164001 0.00227865 0.00779634)
(-0.000524243 0.00233721 0.00752662)
(-0.00190035 0.0016937 0.0113803)
(-0.00224405 0.00177883 0.0102227)
(-0.0016869 0.00184068 0.00991145)
(-0.00156143 0.00189197 0.00911436)
(-0.000536628 0.00192377 0.00891543)
(-0.0030142 0.000243487 0.00178159)
(-0.00374233 0.00029443 -0.000306591)
(-0.00281033 0.0003094 -0.00134579)
(-0.00257145 0.000363869 -0.00284032)
(-0.000780733 0.000382477 -0.00358552)
(-0.00292886 0.00171377 0.00208866)
(-0.0036333 0.00186183 0.000101001)
(-0.00268984 0.00196735 -0.000801211)
(-0.00244633 0.00206735 -0.00223488)
(-0.000767075 0.00219403 -0.00287525)
(-0.00285909 0.00194745 0.00310928)
(-0.00348858 0.00212939 0.00121394)
(-0.0026048 0.00226071 0.000409558)
(-0.00234478 0.00234059 -0.000909365)
(-0.000699319 0.00245301 -0.00149126)
(-0.00273803 0.00274143 0.00360966)
(-0.00331976 0.00299208 0.00186639)
(-0.00247864 0.00316736 0.00118382)
(-0.00225404 0.00330303 -3.01202e-05)
(-0.000694629 0.00340905 -0.000477842)
(-0.00259704 0.00235518 0.00517406)
(-0.00306265 0.00249617 0.00351916)
(-0.00229412 0.00262377 0.00299188)
(-0.00210326 0.00268956 0.00185961)
(-0.00064113 0.00278158 0.00150583)
(-0.00432546 0.000493449 0.00744143)
(-0.00575187 0.000571385 0.00443202)
(-0.00448839 0.000724171 0.00289096)
(-0.00398623 0.000724265 0.00077769)
(-0.00132889 0.000826029 -0.000395833)
(-0.00418807 0.00254242 0.00788131)
(-0.00545706 0.00282012 0.00510737)
(-0.00426195 0.00311204 0.00369217)
(-0.00380989 0.00332159 0.00174903)
(-0.00122303 0.00349677 0.000717556)
(-0.0040334 0.00290091 0.00928279)
(-0.00518202 0.00325766 0.00665564)
(-0.00398706 0.00354528 0.00546449)
(-0.00360151 0.00382793 0.00359081)
(-0.00124921 0.00405262 0.00273535)
(-0.00381411 0.00402917 0.0100135)
(-0.00481218 0.00440989 0.00764378)
(-0.00369169 0.0047841 0.00661587)
(-0.00330243 0.00505108 0.00496129)
(-0.00108264 0.00533783 0.00424819)
(-0.00363223 0.00333344 0.0120145)
(-0.00442709 0.0035153 0.00991875)
(-0.00334636 0.00373909 0.00916321)
(-0.00304801 0.00387771 0.0076423)
(-0.00104099 0.00400747 0.00716106)
(-0.0061706 0.000699949 0.000383743)
(-0.00829408 0.000961093 -0.00376749)
(-0.00646267 0.00110339 -0.00677267)
(-0.00585761 0.00130854 -0.00999492)
(-0.00201141 0.00146743 -0.0126679)
(-0.0058417 0.00355475 0.00119881)
(-0.0078236 0.00408442 -0.00256114)
(-0.00604614 0.00453973 -0.00514307)
(-0.00541978 0.00487936 -0.00791623)
(-0.0018554 0.00532462 -0.010071)
(-0.00561797 0.00407941 0.0031978)
(-0.00730866 0.00466412 -0.000403489)
(-0.00566764 0.0051825 -0.00260426)
(-0.00507273 0.00555089 -0.00528714)
(-0.00166035 0.00598177 -0.00697635)
(-0.00522922 0.00547667 0.00437448)
(-0.00671965 0.00625742 0.00128674)
(-0.00515939 0.00686778 -0.000429359)
(-0.00462065 0.00735569 -0.00274831)
(-0.00152052 0.00783604 -0.00401511)
(-0.00480323 0.00446445 0.00725452)
(-0.00591754 0.00489039 0.00423793)
(-0.00457024 0.00530088 0.00303322)
(-0.00410492 0.00550712 0.000859038)
(-0.00128037 0.00583899 1.60082e-05)
(-0.00868069 0.00134332 0.00576078)
(-0.0129158 0.00178202 -0.000211562)
(-0.0107168 0.00236128 -0.0050896)
(-0.00988311 0.00276433 -0.0101696)
(-0.00409175 0.00339043 -0.0148046)
(-0.00813854 0.00535637 0.00697578)
(-0.0118057 0.00618535 0.00170669)
(-0.00961793 0.00728238 -0.00235969)
(-0.00873921 0.00803067 -0.0065536)
(-0.00346719 0.00918984 -0.0102225)
(-0.00781257 0.006075 0.00965083)
(-0.0109887 0.00710566 0.00471521)
(-0.00887172 0.00826002 0.00140197)
(-0.00797566 0.00899676 -0.00249726)
(-0.00309271 0.0101094 -0.00526818)
(-0.00705874 0.0080875 0.0113207)
(-0.00961913 0.00905441 0.00712777)
(-0.00772686 0.0104261 0.00469293)
(-0.00688957 0.011204 0.00154662)
(-0.00250408 0.0123377 -0.000425436)
(-0.00678919 0.00635152 0.0152121)
(-0.00865 0.00662105 0.0111948)
(-0.00672371 0.00737711 0.00950722)
(-0.00606522 0.00767288 0.0066818)
(-0.00212882 0.00824053 0.00544188)
(-0.0124364 0.00194715 -0.00200571)
(-0.0191507 0.00287676 -0.0105096)
(-0.0164207 0.0038359 -0.0198897)
(-0.0155733 0.00488215 -0.0281934)
(-0.00674623 0.00601716 -0.0390009)
(-0.0113805 0.00744537 0.000109411)
(-0.0171641 0.0090103 -0.00696813)
(-0.0143059 0.0110315 -0.0143657)
(-0.0132835 0.0125525 -0.0206782)
(-0.00560339 0.0148618 -0.0282561)
(-0.0108058 0.00842401 0.00400411)
(-0.0155625 0.0100827 -0.00294088)
(-0.0128776 0.0122328 -0.00868432)
(-0.011743 0.0136506 -0.0146108)
(-0.00459465 0.015779 -0.0201654)
(-0.00964218 0.0110445 0.00680668)
(-0.013353 0.0127426 0.00120407)
(-0.0107379 0.0149779 -0.00296834)
(-0.00973811 0.0165395 -0.00724058)
(-0.00363246 0.0185522 -0.0108089)
(-0.00902867 0.0085609 0.0118798)
(-0.0116291 0.00917438 0.00659789)
(-0.0090829 0.0103641 0.00379073)
(-0.00817071 0.0109088 -0.000400792)
(-0.00274618 0.0119969 -0.00250298)
(-0.0175964 0.00351651 0.00461603)
(-0.0308124 0.00531542 -0.00783346)
(-0.028406 0.00789441 -0.0231842)
(-0.0289977 0.0101969 -0.0368959)
(-0.0150886 0.0140867 -0.0575171)
(-0.015581 0.0113655 0.00769534)
(-0.0262908 0.0137546 -0.00200692)
(-0.0233304 0.018489 -0.0137368)
(-0.02263 0.0216135 -0.0228354)
(-0.0112208 0.0280286 -0.0369043)
(-0.015102 0.0127685 0.0127246)
(-0.0236854 0.0152767 0.00336922)
(-0.020543 0.0196588 -0.0053382)
(-0.0194581 0.0224368 -0.0139254)
(-0.00896519 0.0275621 -0.0233485)
(-0.0129565 0.0159671 0.0162823)
(-0.0193983 0.0185972 0.00934011)
(-0.0161702 0.0229094 0.00335346)
(-0.0147308 0.025424 -0.00221076)
(-0.00636997 0.0300125 -0.00804651)
(-0.0123463 0.0116961 0.0226514)
(-0.0167431 0.0123063 0.0161165)
(-0.0137185 0.0144774 0.0125654)
(-0.0123584 0.0148735 0.00729336)
(-0.00469839 0.016955 0.00427343)
(-0.0255182 0.00507833 -0.00289195)
(-0.0469553 0.0087027 -0.0209268)
(-0.0454882 0.0133055 -0.0491215)
(-0.0498887 0.0189083 -0.0741655)
(-0.0275668 0.0266903 -0.123162)
(-0.0216246 0.0155556 0.00209164)
(-0.0386029 0.0202088 -0.0111546)
(-0.0351345 0.0288704 -0.0307904)
(-0.0364385 0.0355103 -0.0458757)
(-0.0197456 0.0490131 -0.0743372)
(-0.0206668 0.0170099 0.00834918)
(-0.0336362 0.0214272 -0.00389508)
(-0.0301691 0.02932 -0.0181551)
(-0.0297464 0.0342756 -0.0311482)
(-0.0143151 0.044642 -0.0495328)
(-0.0170016 0.0209853 0.0135118)
(-0.0262926 0.0255004 0.00524495)
(-0.0222861 0.0328922 -0.00390468)
(-0.0211339 0.0377646 -0.0115004)
(-0.00965573 0.0461785 -0.0213285)
(-0.0159371 0.0152991 0.0210004)
(-0.0217292 0.0163635 0.0132365)
(-0.0179049 0.0200775 0.00809031)
(-0.0164644 0.0209502 0.00141897)
(-0.00616351 0.024946 -0.00353654)
(-0.0365572 0.00858945 0.00868096)
(-0.0770542 0.0150875 -0.0163727)
(-0.081703 0.0262776 -0.0646907)
(-0.103037 0.0384474 -0.112768)
(-0.064683 0.063178 -0.229367)
(-0.0295698 0.0225994 0.0158055)
(-0.0591786 0.0307826 0.000137806)
(-0.0580797 0.0494472 -0.0311606)
(-0.0661494 0.0646048 -0.051741)
(-0.040087 0.101657 -0.112545)
(-0.0280213 0.0241781 0.0236706)
(-0.0501986 0.0316759 0.00856075)
(-0.0478058 0.0465543 -0.0126402)
(-0.0508282 0.0568405 -0.0314343)
(-0.0278832 0.080629 -0.0647386)
(-0.0217345 0.0286212 0.0299622)
(-0.0368138 0.0357274 0.0208198)
(-0.0329151 0.0491631 0.00859703)
(-0.0321508 0.0579965 -5.50171e-05)
(-0.016572 0.0760211 -0.0164213)
(-0.020569 0.0196386 0.0386664)
(-0.0296564 0.0208039 0.0297359)
(-0.0255249 0.0271438 0.023527)
(-0.0239783 0.0285296 0.0152588)
(-0.0102676 0.0356698 0.00838753)
(-0.0519829 0.0122846 0.0078786)
(-0.12025 0.0252333 -0.023729)
(-0.141935 0.0469848 -0.0949125)
(-0.213865 0.0805145 -0.185865)
(-0.147003 0.146555 -0.390628)
(-0.038364 0.0305473 0.0158062)
(-0.0855413 0.0451146 -0.00139423)
(-0.0870309 0.0808201 -0.0436314)
(-0.1176 0.116621 -0.078863)
(-0.0809457 0.212946 -0.186415)
(-0.0367336 0.0311659 0.0243127)
(-0.0699557 0.0421185 0.00801718)
(-0.0701674 0.0690812 -0.0176906)
(-0.0817452 0.0859788 -0.044159)
(-0.0483906 0.140818 -0.0955544)
(-0.0268204 0.0360036 0.0305641)
(-0.0476648 0.0466822 0.0223754)
(-0.0431701 0.0690676 0.0080531)
(-0.0461244 0.0844292 -0.00171988)
(-0.0262803 0.119227 -0.0242176)
(-0.0254777 0.0246072 0.0387856)
(-0.0368915 0.0259498 0.030218)
(-0.0323813 0.0359594 0.0240544)
(-0.031607 0.0373291 0.0149223)
(-0.0138633 0.0511608 0.00723842)
(-0.070146 0.0166361 0.0379607)
(-0.179694 0.0375291 0.00158833)
(-0.243975 0.0782382 -0.113619)
(-0.473361 0.149916 -0.316478)
(-0.214398 0.264035 -0.914868)
(-0.0480826 0.0389907 0.0485106)
(-0.118561 0.0624569 0.0331525)
(-0.135685 0.126417 -0.0239471)
(-0.208679 0.206068 -0.0621109)
(-0.153511 0.471203 -0.316543)
(-0.045442 0.0389098 0.0563849)
(-0.092163 0.0554672 0.041042)
(-0.100059 0.0983146 0.00934102)
(-0.128448 0.134117 -0.0242549)
(-0.0809469 0.242966 -0.113549)
(-0.0306478 0.0430777 0.0617849)
(-0.059283 0.0578855 0.0557196)
(-0.0570316 0.0908671 0.0411721)
(-0.0643487 0.117025 0.0330564)
(-0.0394742 0.178661 0.00188153)
(-0.0298168 0.0285335 0.0685341)
(-0.0443727 0.0293643 0.0615092)
(-0.0407938 0.0442655 0.0563151)
(-0.0407531 0.046473 0.0477901)
(-0.0191079 0.0691043 0.0378602)
(-0.0911679 0.0229838 0.0644489)
(-0.271144 0.0572364 0.0517081)
(-0.408892 0.139591 -0.00414573)
(-0.833791 0.201598 -0.221087)
(-1.74944 0.680429 -1.79678)
(-0.055379 0.0489436 0.0637172)
(-0.15787 0.0843303 0.0667553)
(-0.181069 0.203155 0.033165)
(-0.40219 0.399647 -0.0288355)
(-0.432403 0.906211 -0.472931)
(-0.053482 0.044449 0.0676376)
(-0.116979 0.0647431 0.0636306)
(-0.135577 0.134311 0.0556403)
(-0.20402 0.179926 0.0324858)
(-0.142435 0.408076 -0.00523897)
(-0.0337173 0.0481552 0.0657978)
(-0.0682719 0.0671438 0.0687712)
(-0.0658899 0.11602 0.063765)
(-0.0851777 0.156349 0.066903)
(-0.0579049 0.269948 0.0517798)
(-0.0332809 0.0321276 0.0670381)
(-0.0491137 0.0325651 0.0655378)
(-0.0461085 0.0525007 0.0675515)
(-0.0500367 0.0537055 0.0629191)
(-0.0253426 0.089949 0.0641806)
(-0.0854435 0.0161538 0.154504)
(-0.238823 0.0533887 0.1697)
(-0.368971 0.117719 0.305412)
(-1.19565 0.230983 0.256889)
(-2.39547 0.535575 -4.69657)
(-0.0463212 0.0421358 0.136786)
(-0.147818 0.0736819 0.151082)
(-0.162455 0.179125 0.219874)
(-0.533209 0.390464 0.321159)
(-0.966263 1.34332 0.429258)
(-0.0506019 0.0410099 0.127858)
(-0.104001 0.0574365 0.140879)
(-0.130305 0.128011 0.181839)
(-0.182276 0.160147 0.219101)
(-0.123938 0.365284 0.306123)
(-0.02827 0.0424313 0.115382)
(-0.0612277 0.0597036 0.123169)
(-0.0588526 0.10262 0.141088)
(-0.0756266 0.146143 0.151089)
(-0.0542669 0.238609 0.169942)
(-0.0319035 0.0303527 0.109724)
(-0.0438116 0.0267212 0.115189)
(-0.0434293 0.0491989 0.127868)
(-0.0440854 0.0437554 0.136219)
(-0.0197212 0.0840504 0.154746)
(-0.0784111 0.0054863 0.161963)
(-0.109412 0.0395139 0.200572)
(-0.23451 0.0522891 0.408983)
(-0.537202 0.0259008 0.418821)
(-0.00146958 -0.0990816 -8.28821)
(-0.042222 0.0222286 0.135542)
(-0.0745364 0.0553763 0.17133)
(-0.071107 0.0696965 0.278168)
(-0.091127 0.0899162 0.392808)
(0.0141638 0.0689408 0.519823)
(-0.0413518 0.0230392 0.120466)
(-0.0630494 0.0369724 0.149375)
(-0.057454 0.0555489 0.215889)
(-0.0696094 0.0693154 0.278592)
(-0.0556255 0.232934 0.410902)
(-0.0262491 0.0300514 0.101828)
(-0.0425809 0.0414694 0.12087)
(-0.0381098 0.0621016 0.149331)
(-0.0562107 0.0732342 0.171437)
(-0.0402081 0.10761 0.200463)
(-0.028142 0.026789 0.0890104)
(-0.0309985 0.0248975 0.101986)
(-0.0250789 0.0401657 0.120835)
(-0.0230861 0.0399596 0.136006)
(-0.00812335 0.0771976 0.163048)
(-0.0477087 -0.0102487 0.176285)
(0.0119768 0.0251195 0.219659)
(-0.113751 -0.0232276 0.264291)
(0.305619 -0.0503662 -0.344912)
(0.275147 -0.212518 -6.26566)
(-0.010313 0.000378692 0.161626)
(-0.00928058 0.0238663 0.190456)
(0.00758686 -0.0215025 0.229807)
(0.0328228 -0.0353392 0.203924)
(0.186319 -0.329908 -0.456788)
(-0.0214991 0.00710812 0.152944)
(-0.00902224 0.00728272 0.174899)
(-0.00488145 0.0028699 0.211625)
(0.020416 -0.0103131 0.230284)
(0.0194603 0.112963 0.263783)
(-0.00875151 0.0108805 0.138409)
(-0.013753 0.012342 0.154736)
(-0.00857918 0.00801025 0.174776)
(-0.0258547 0.00770007 0.190404)
(-0.0270953 -0.0130917 0.21944)
(-0.0186529 0.0172551 0.126982)
(-0.0118878 0.00735429 0.138623)
(-0.00922007 0.0205128 0.15285)
(-0.00160533 0.00808135 0.162319)
(0.00756316 0.0475091 0.175898)
(-0.0334238 -0.00912145 0.113794)
(-0.00916862 0.0104289 0.199498)
(-0.0555196 -0.0011853 0.221601)
(-0.207788 0.0394256 -0.288229)
(-1.43201 0.387569 -5.43245)
(-0.0116303 -0.00109989 0.106416)
(-0.00747126 0.011476 0.158096)
(0.0016093 0.0024643 0.204456)
(-0.138351 -0.0233126 0.292438)
(-0.269649 0.204587 -0.529886)
(-0.0181463 -0.000125004 0.0941098)
(-0.00426713 0.00112445 0.130122)
(-0.00298277 0.00149125 0.158976)
(-0.00305733 -0.0024241 0.205314)
(-0.0012591 0.0557784 0.223273)
(-0.00898206 0.00418721 0.0841587)
(-0.00627489 0.00525391 0.107708)
(-0.00230865 0.00322716 0.130003)
(-0.0124466 0.0064156 0.158259)
(-0.0114491 0.00758935 0.199614)
(-0.0158094 0.0146744 0.0697936)
(-0.00522809 0.00784641 0.0846438)
(-0.00144208 0.0169943 0.0945584)
(-4.92601e-05 0.0101081 0.107682)
(0.00711901 0.0321008 0.114862)
(0.0417757 -0.0170875 0.174484)
(0.133971 -0.0160465 0.228211)
(0.222615 -0.0615871 0.336976)
(0.201525 -0.0155698 0.178386)
(0.112129 -0.0696953 -8.3335)
(0.0438917 -0.0186932 0.159349)
(0.0852049 -0.0442654 0.200284)
(0.160562 -0.0989337 0.269983)
(0.0851177 -0.144579 0.34403)
(-0.0574171 -0.188011 0.35687)
(0.0165722 -0.0148142 0.146068)
(0.0546646 -0.0426282 0.177009)
(0.0673248 -0.0685768 0.218811)
(0.0995057 -0.161065 0.271118)
(0.0600522 -0.221239 0.33555)
(0.0161542 -0.0132006 0.134532)
(0.0316275 -0.0326749 0.155416)
(0.0414934 -0.0552208 0.176814)
(0.0424893 -0.0862973 0.20074)
(0.0150887 -0.135648 0.228379)
(-0.00281826 0.00191453 0.120344)
(0.0126432 -0.0170594 0.134943)
(0.0134787 -0.0169717 0.146184)
(0.0180966 -0.0449865 0.160444)
(0.0154497 -0.0409438 0.174162)
(0.0273327 -0.0239173 0.045669)
(0.167765 -0.0180991 0.0636415)
(0.218438 -0.0904836 0.0753499)
(0.628161 -0.295084 -0.35699)
(1.43352 -0.71927 -5.35193)
(0.0336754 -0.0297574 0.0451931)
(0.10192 -0.0403459 0.054919)
(0.150165 -0.130892 0.0821001)
(0.28158 -0.283718 0.0687568)
(0.291254 -0.626891 -0.355248)
(0.0160842 -0.0251836 0.03657)
(0.0686154 -0.0440644 0.0522259)
(0.0902699 -0.0908576 0.0614416)
(0.128788 -0.151293 0.0832105)
(0.0894556 -0.218002 0.0741982)
(0.0140113 -0.0217057 0.0336623)
(0.0362008 -0.0370059 0.0423908)
(0.0433371 -0.0695388 0.0521281)
(0.039722 -0.103015 0.0554935)
(0.0174297 -0.168187 0.0645737)
(0.000229158 -0.000947068 0.0242484)
(0.0207784 -0.0147301 0.0342909)
(0.0243034 -0.0169292 0.0369238)
(0.0281644 -0.0345574 0.0467028)
(0.0229514 -0.0291738 0.0461597)
(0.0662461 -0.017065 0.104592)
(0.170747 -0.0245736 0.125931)
(0.239547 -0.0660611 0.083088)
(0.494414 -0.250305 -0.34826)
(0.709072 -0.71064 -3.1505)
(0.0580545 -0.0275353 0.110279)
(0.120959 -0.0554029 0.123974)
(0.170192 -0.119806 0.119339)
(0.263321 -0.264774 0.0878129)
(0.247423 -0.493947 -0.344528)
(0.0351981 -0.0260938 0.104654)
(0.0791657 -0.0549512 0.118353)
(0.0972053 -0.097455 0.112037)
(0.119544 -0.1707 0.120214)
(0.0651956 -0.239852 0.0847659)
(0.0268548 -0.0253178 0.106603)
(0.0499167 -0.0504309 0.116316)
(0.0543956 -0.0793747 0.118163)
(0.0546437 -0.121676 0.124191)
(0.0238142 -0.171208 0.125538)
(0.00839148 -0.00865458 0.0980791)
(0.0251154 -0.0271187 0.10705)
(0.0256423 -0.0351419 0.105145)
(0.0270818 -0.0581969 0.11138)
(0.0163606 -0.0658803 0.106007)
(0.0551895 -0.0180715 -0.0372323)
(0.158015 -0.0200074 -0.0545048)
(0.210983 -0.0637961 -0.0826467)