/*--------------------------------*- C++ -*----------------------------------*\
| =========                 |                                                 |
| \\      /  F ield         | OpenFOAM: The Open Source CFD Toolbox           |
|  \\    /   O peration     | Version:  5.x                                   |
|   \\  /    A nd           | Web:      www.OpenFOAM.org                      |
|    \\/     M anipulation  |                                                 |
\*---------------------------------------------------------------------------*/
FoamFile
{
    version     2.0;
    format      ascii;
    class       surfaceScalarField;
    location    "0.033";
    object      phi;
}
// * * * * * * * * * * * * * * * * * * * * * * * * * * * * * * * * * * * * * //

dimensions      [0 3 -1 0 0 0 0];

internalField   nonuniform List<scalar> 
4381
(
1.11419e-08
-3.89974e-08
-6.64767e-09
2.31903e-08
-3.90853e-08
-8.05983e-09
2.86527e-08
-3.88157e-08
-1.47805e-09
3.74185e-08
-3.87964e-08
-4.78472e-09
-3.83658e-08
7.68486e-09
1.11263e-08
-3.01033e-08
-1.9833e-08
2.34218e-08
-3.02169e-08
-2.11477e-08
2.89878e-08
-2.99991e-08
-1.43697e-08
3.78354e-08
-2.99939e-08
-1.76399e-08
-2.96227e-08
-4.98729e-09
1.10011e-08
-2.45542e-08
-1.66595e-08
2.34076e-08
-2.46317e-08
-1.79757e-08
2.90046e-08
-2.4433e-08
-1.11501e-08
3.78797e-08
-2.44164e-08
-1.44421e-08
-2.41071e-08
-1.76042e-09
1.10485e-08
-1.19486e-08
-2.38945e-08
2.3596e-08
-1.20197e-08
-2.51417e-08
2.92471e-08
-1.18692e-08
-1.82e-08
3.81802e-08
-1.18675e-08
-2.14694e-08
-1.16435e-08
-8.6889e-09
1.09711e-08
-2.27778e-08
2.35858e-08
-2.40317e-08
2.92613e-08
-1.70564e-08
3.82173e-08
-2.03396e-08
-7.53634e-09
7.09778e-09
-2.24166e-08
-1.34166e-08
1.54933e-08
-2.21364e-08
-1.25291e-08
2.0561e-08
-2.17664e-08
-2.65587e-09
2.05698e-08
-2.16472e-08
-9.30522e-10
-2.13757e-08
1.50327e-08
7.78073e-09
-2.29122e-08
-2.96907e-08
1.59415e-08
-2.26244e-08
-2.88056e-08
2.09189e-08
-2.22733e-08
-1.88286e-08
2.08602e-08
-2.21406e-08
-1.70786e-08
-2.18888e-08
-9.17503e-10
8.08094e-09
-1.82661e-08
-3.14818e-08
1.61167e-08
-1.80175e-08
-3.06029e-08
2.10447e-08
-1.77235e-08
-2.06155e-08
2.09405e-08
-1.76034e-08
-1.88647e-08
-1.73862e-08
-2.67731e-09
8.51219e-09
-1.06471e-08
-4.15076e-08
1.64264e-08
-1.04261e-08
-4.06302e-08
2.12988e-08
-1.02023e-08
-3.05791e-08
2.11496e-08
-1.00974e-08
-2.88134e-08
-9.95119e-09
-1.25056e-08
8.75032e-09
-4.24287e-08
1.65811e-08
-4.15669e-08
2.14118e-08
-3.1517e-08
2.12226e-08
-2.97533e-08
-1.34335e-08
1.45339e-08
-4.43845e-08
-2.31655e-08
2.8619e-08
-4.44477e-08
-2.213e-08
3.60777e-08
-4.42092e-08
-5.63328e-09
4.31767e-08
-4.41837e-08
-3.55187e-09
-4.37634e-08
2.38034e-08
1.45367e-08
-3.72341e-08
-5.13105e-08
2.88314e-08
-3.73054e-08
-5.02392e-08
3.64004e-08
-3.71031e-08
-3.35012e-08
4.35849e-08
-3.70837e-08
-3.13611e-08
-3.67183e-08
-3.62822e-09
1.44874e-08
-2.96518e-08
-5.36068e-08
2.88371e-08
-2.97157e-08
-5.25389e-08
3.64322e-08
-2.95435e-08
-3.57676e-08
4.36365e-08
-2.95282e-08
-3.36221e-08
-2.92235e-08
-5.83226e-09
1.4508e-08
-1.51794e-08
-7.06896e-08
2.89911e-08
-1.52338e-08
-6.95923e-08
3.66568e-08
-1.51235e-08
-5.26619e-08
4.39161e-08
-1.51198e-08
-5.04782e-08
-1.49271e-08
-2.24534e-08
1.44598e-08
-7.19688e-08
2.89816e-08
-7.08804e-08
3.66701e-08
-5.39319e-08
4.39483e-08
-5.17465e-08
-2.36897e-08
1.4592e-08
-4.89756e-08
-3.55457e-08
3.0816e-08
-4.87315e-08
-3.31748e-08
3.98489e-08
-4.81097e-08
-9.54182e-09
4.62164e-08
-4.79488e-08
-4.82109e-09
-4.72588e-08
3.35219e-08
1.53385e-08
-4.29485e-08
-7.48557e-08
3.15288e-08
-4.27154e-08
-7.24512e-08
4.0558e-08
-4.21577e-08
-4.84869e-08
4.69225e-08
-4.20007e-08
-4.36774e-08
-4.13927e-08
-4.75855e-09
1.5532e-08
-3.41791e-08
-7.98643e-08
3.1695e-08
-3.39694e-08
-7.74539e-08
4.0704e-08
-3.35003e-08
-5.34385e-08
4.7049e-08
-3.33603e-08
-4.86112e-08
-3.28603e-08
-9.60121e-09
1.60387e-08
-1.8252e-08
-1.04071e-07
3.21831e-08
-1.80754e-08
-1.01638e-07
4.11835e-08
-1.77476e-08
-7.74206e-08
4.75193e-08
-1.76396e-08
-7.25393e-08
-1.73269e-08
-3.31746e-08
1.62131e-08
-1.06712e-07
3.23264e-08
-1.04281e-07
4.13039e-08
-8.00412e-08
4.76184e-08
-7.51516e-08
-3.57415e-08
2.46998e-08
-7.4372e-08
-5.29582e-08
4.85712e-08
-7.43527e-08
-4.95973e-08
6.15068e-08
-7.38688e-08
-1.50602e-08
7.24437e-08
-7.37583e-08
-8.36494e-09
-7.29739e-08
4.79645e-08
2.49128e-08
-6.33955e-08
-1.11011e-07
4.9064e-08
-6.3389e-08
-1.07576e-07
6.21595e-08
-6.29733e-08
-7.24855e-08
7.32205e-08
-6.28763e-08
-6.56264e-08
-6.2198e-08
-8.37374e-09
2.49302e-08
-5.0294e-08
-1.18212e-07
4.91394e-08
-5.02956e-08
-1.14766e-07
6.22653e-08
-4.99622e-08
-7.9583e-08
7.33474e-08
-4.98839e-08
-7.2692e-08
-4.93396e-08
-1.52733e-08
2.50713e-08
-2.59748e-08
-1.53844e-07
4.94613e-08
-2.59813e-08
-1.50352e-07
6.26898e-08
-2.57928e-08
-1.14827e-07
7.38515e-08
-2.57533e-08
-1.0784e-07
-2.54482e-08
-4.98466e-08
2.50697e-08
-1.57684e-07
4.94914e-08
-1.54189e-07
6.27416e-08
-1.18617e-07
7.39198e-08
-1.11615e-07
-5.35352e-08
3.12449e-08
-9.90497e-08
-7.69125e-08
6.3113e-08
-9.87965e-08
-7.18955e-08
8.06552e-08
-9.77181e-08
-2.3126e-08
9.48677e-08
-9.74355e-08
-1.31507e-08
-9.59121e-08
6.61335e-08
3.20998e-08
-8.49741e-08
-1.59009e-07
6.43036e-08
-8.47354e-08
-1.53849e-07
8.2044e-08
-8.37877e-08
-1.04162e-07
9.64019e-08
-8.3525e-08
-9.38996e-08
-8.22014e-08
-1.31085e-08
3.22896e-08
-6.738e-08
-1.69782e-07
6.45408e-08
-6.71637e-08
-1.64595e-07
8.22969e-08
-6.63882e-08
-1.14744e-07
9.66607e-08
-6.61623e-08
-1.04424e-07
-6.51051e-08
-2.33435e-08
3.28806e-08
-3.51331e-08
-2.2028e-07
6.53308e-08
-3.49619e-08
-2.15009e-07
8.3199e-08
-3.44819e-08
-1.64607e-07
9.76453e-08
-3.4334e-08
-1.54122e-07
-3.3731e-08
-7.21054e-08
3.30467e-08
-2.26011e-07
6.5504e-08
-2.20729e-07
8.33699e-08
-1.70243e-07
9.78106e-08
-1.5973e-07
-7.75616e-08
4.73882e-08
-1.43004e-07
-1.10949e-07
9.31672e-08
-1.42834e-07
-1.03728e-07
1.18182e-07
-1.41654e-07
-3.43067e-08
1.38784e-07
-1.41294e-07
-1.9996e-08
-1.39417e-07
9.28768e-08
4.80405e-08
-1.22263e-07
-2.28441e-07
9.44326e-08
-1.22119e-07
-2.20959e-07
1.19799e-07
-1.21099e-07
-1.50085e-07
1.40657e-07
-1.20785e-07
-1.35268e-07
-1.19156e-07
-2.0023e-08
4.81689e-08
-9.6826e-08
-2.44041e-07
9.46865e-08
-9.67159e-08
-2.36517e-07
1.20118e-07
-9.59109e-08
-1.65366e-07
1.41025e-07
-9.56588e-08
-1.50459e-07
-9.43706e-08
-3.47044e-08
4.85875e-08
-5.00666e-08
-3.16282e-07
9.54856e-08
-4.99962e-08
-3.08627e-07
1.2114e-07
-4.95607e-08
-2.36614e-07
1.42211e-07
-4.94279e-08
-2.21427e-07
-4.87393e-08
-1.04202e-07
4.86604e-08
-3.24597e-07
9.56078e-08
-3.16925e-07
1.213e-07
-2.44779e-07
1.42402e-07
-2.29553e-07
-1.12055e-07
6.44681e-08
-1.98672e-07
-1.58293e-07
1.27587e-07
-1.98233e-07
-1.47918e-07
1.62266e-07
-1.95906e-07
-5.02832e-08
1.9061e-07
-1.95204e-07
-2.97801e-08
-1.9161e-07
1.28759e-07
6.59406e-08
-1.70059e-07
-3.24597e-07
1.30132e-07
-1.69653e-07
-3.13727e-07
1.6544e-07
-1.6763e-07
-2.13666e-07
1.94211e-07
-1.66988e-07
-1.92252e-07
-1.63848e-07
-2.98231e-08
6.62705e-08
-1.34604e-07
-3.47274e-07
1.30674e-07
-1.34252e-07
-3.3632e-07
1.66077e-07
-1.32641e-07
-2.35755e-07
1.94899e-07
-1.32105e-07
-2.14162e-07
-1.29629e-07
-5.08207e-08
6.72295e-08
-6.97147e-08
-4.49678e-07
1.32295e-07
-6.94812e-08
-4.3846e-07
1.68077e-07
-6.85815e-08
-3.36455e-07
1.97178e-07
-6.82762e-08
-3.14357e-07
-6.69282e-08
-1.48576e-07
6.74594e-08
-4.61784e-07
1.3262e-07
-4.50534e-07
1.68443e-07
-3.48267e-07
1.97569e-07
-3.26086e-07
-1.59807e-07
9.4547e-08
-2.85204e-07
-2.26036e-07
1.85154e-07
-2.84608e-07
-2.10758e-07
2.34742e-07
-2.81548e-07
-7.25001e-08
2.74696e-07
-2.80414e-07
-4.26219e-08
-2.75579e-07
1.81178e-07
9.63207e-08
-2.44728e-07
-4.62478e-07
1.88516e-07
-2.44198e-07
-4.46325e-07
2.38989e-07
-2.41503e-07
-3.04177e-07
2.79529e-07
-2.40469e-07
-2.72728e-07
-2.36215e-07
-4.27535e-08
9.67925e-08
-1.93838e-07
-4.96033e-07
1.89382e-07
-1.9341e-07
-4.79695e-07
2.40028e-07
-1.91272e-07
-3.36628e-07
2.80668e-07
-1.90413e-07
-3.04851e-07
-1.87039e-07
-7.33032e-08
9.79401e-08
-1.00393e-07
-6.42134e-07
1.91521e-07
-1.00137e-07
-6.25316e-07
2.42726e-07
-9.89917e-08
-4.79939e-07
2.8373e-07
-9.85266e-08
-4.47242e-07
-9.67376e-08
-2.11787e-07
9.82003e-08
-6.60237e-07
1.91954e-07
-6.43279e-07
2.43261e-07
-4.97429e-07
2.84334e-07
-4.64552e-07
-2.2822e-07
1.30722e-07
-3.99439e-07
-3.19798e-07
2.56093e-07
-3.98204e-07
-2.97632e-07
3.24858e-07
-3.92397e-07
-1.03546e-07
3.80198e-07
-3.9022e-07
-6.07824e-08
-3.81221e-07
2.5256e-07
1.34243e-07
-3.43219e-07
-6.54607e-07
2.62494e-07
-3.4199e-07
-6.30778e-07
3.32917e-07
-3.36753e-07
-4.30232e-07
3.892e-07
-3.34692e-07
-3.84525e-07
-3.26646e-07
-6.09822e-08
1.35255e-07
-2.71942e-07
-7.04167e-07
2.64261e-07
-2.70815e-07
-6.7987e-07
3.34976e-07
-2.66565e-07
-4.77522e-07
3.9137e-07
-2.64805e-07
-4.31121e-07
-2.58429e-07
-1.04634e-07
1.37654e-07
-1.41017e-07
-9.12186e-07
2.68519e-07
-1.40357e-07
-8.86641e-07
3.40207e-07
-1.37985e-07
-6.80204e-07
3.97162e-07
-1.36989e-07
-6.32e-07
-1.33515e-07
-2.99038e-07
1.38313e-07
-9.39543e-07
2.69631e-07
-9.13649e-07
3.41413e-07
-7.05973e-07
3.98371e-07
-6.57318e-07
-3.22702e-07
1.88602e-07
-5.71646e-07
-4.55035e-07
3.67705e-07
-5.69798e-07
-4.2198e-07
4.66325e-07
-5.61537e-07
-1.48827e-07
5.44268e-07
-5.58329e-07
-8.59008e-08
-5.45618e-07
3.53754e-07
1.93498e-07
-4.92183e-07
-9.29314e-07
3.76924e-07
-4.90585e-07
-8.93403e-07
4.77674e-07
-4.82963e-07
-6.0954e-07
5.56973e-07
-4.7997e-07
-5.42163e-07
-4.68608e-07
-8.62512e-08
1.94793e-07
-3.89417e-07
-1.00345e-06
3.79318e-07
-3.88331e-07
-9.66641e-07
4.80659e-07
-3.82263e-07
-6.79549e-07
5.60176e-07
-3.79859e-07
-6.10731e-07
-3.70625e-07
-1.50369e-07
1.97914e-07
-2.01985e-07
-1.29926e-06
3.85366e-07
-2.0139e-07
-1.26103e-06
4.88262e-07
-1.98259e-07
-9.67092e-07
5.68428e-07
-1.96957e-07
-8.95052e-07
-1.92044e-07
-4.23967e-07
1.98478e-07
-1.3398e-06
3.86409e-07
-1.30112e-06
4.89822e-07
-1.0058e-06
5.70255e-07
-9.32887e-07
-4.58965e-07
2.55102e-07
-7.94336e-07
-6.429e-07
4.99193e-07
-7.91532e-07
-5.96405e-07
6.36865e-07
-7.77543e-07
-2.1819e-07
7.47955e-07
-7.71966e-07
-1.2902e-07
-7.49177e-07
4.82462e-07
2.63858e-07
-6.76278e-07
-1.31342e-06
5.15423e-07
-6.74654e-07
-1.26183e-06
6.57451e-07
-6.63359e-07
-8.65736e-07
7.70735e-07
-6.59773e-07
-7.67621e-07
-6.39169e-07
-1.29529e-07
2.64478e-07
-5.27055e-07
-1.41927e-06
5.16689e-07
-5.26775e-07
-1.36672e-06
6.60984e-07
-5.198e-07
-9.67389e-07
7.76283e-07
-5.18467e-07
-8.67319e-07
-5.02214e-07
-2.2028e-07
2.68716e-07
-2.72639e-07
-1.82439e-06
5.23557e-07
-2.72572e-07
-1.77007e-06
6.72201e-07
-2.68262e-07
-1.36726e-06
7.90232e-07
-2.67584e-07
-1.26395e-06
-2.58808e-07
-5.99026e-07
2.68714e-07
-1.88098e-06
5.23718e-07
-1.82679e-06
6.73715e-07
-1.42228e-06
7.92968e-07
-1.31804e-06
-6.48048e-07
3.59156e-07
-1.11774e-06
-9.24803e-07
7.02e-07
-1.11602e-06
-8.55977e-07
9.01583e-07
-1.10007e-06
-3.31819e-07
1.0615e-06
-1.09562e-06
-1.99665e-07
-1.06384e-06
6.52768e-07
3.70639e-07
-9.43901e-07
-1.86089e-06
7.2247e-07
-9.4487e-07
-1.78481e-06
9.2899e-07
-9.33691e-07
-1.23863e-06
1.09325e-06
-9.32912e-07
-1.09457e-06
-9.05442e-07
-2.00508e-07
3.69275e-07
-7.21048e-07
-2.01434e-06
7.18703e-07
-7.25273e-07
-1.93574e-06
9.29639e-07
-7.23864e-07
-1.38814e-06
1.09764e-06
-7.27446e-07
-1.24078e-06
-7.06883e-07
-3.3481e-07
3.70675e-07
-3.74662e-07
-2.5444e-06
7.19939e-07
-3.76794e-07
-2.4678e-06
9.40639e-07
-3.75325e-07
-1.93649e-06
1.11345e-06
-3.76561e-07
-1.78765e-06
-3.64997e-07
-8.59697e-07
3.68461e-07
-2.62369e-06
7.15464e-07
-2.54744e-06
9.39472e-07
-2.01848e-06
1.11503e-06
-1.86709e-06
-9.31953e-07
4.70327e-07
-1.53176e-06
-1.32665e-06
9.26003e-07
-1.52949e-06
-1.23192e-06
1.20806e-06
-1.50878e-06
-5.21773e-07
1.44202e-06
-1.50029e-06
-3.3196e-07
-1.44393e-06
8.4279e-07
4.92223e-07
-1.2735e-06
-2.61482e-06
9.62461e-07
-1.27132e-06
-2.51322e-06
1.25902e-06
-1.26215e-06
-1.78181e-06
1.49831e-06
-1.26281e-06
-1.57134e-06
-1.21168e-06
-3.33223e-07
4.90983e-07
-9.28371e-07
-2.85379e-06
9.51187e-07
-9.3266e-07
-2.7346e-06
1.25816e-06
-9.5648e-07
-2.00079e-06
1.50669e-06
-9.67425e-07
-1.78469e-06
-9.30655e-07
-5.25972e-07
4.92093e-07
-4.97177e-07
-3.47083e-06
9.27211e-07
-4.97942e-07
-3.33764e-06
1.26718e-06
-4.97231e-07
-2.73571e-06
1.52713e-06
-4.98275e-07
-2.51676e-06
-4.76127e-07
-1.23703e-06
4.91291e-07
-3.61199e-06
9.22396e-07
-3.47357e-06
1.26929e-06
-2.85989e-06
1.5292e-06
-2.62269e-06
-1.3364e-06
6.69422e-07
-2.09852e-06
-1.96975e-06
1.30485e-06
-2.10389e-06
-1.81956e-06
1.71583e-06
-2.10286e-06
-8.42495e-07
2.03969e-06
-2.10449e-06
-5.46378e-07
-2.04418e-06
1.08579e-06
6.84453e-07
-1.7885e-06
-3.61454e-06
1.32067e-06
-1.77952e-06
-3.47382e-06
1.77357e-06
-1.77682e-06
-2.56076e-06
2.09984e-06
-1.78092e-06
-2.2212e-06
-1.72292e-06
-5.48475e-07
6.93368e-07
-1.38924e-06
-3.9515e-06
1.29792e-06
-1.37507e-06
-3.74361e-06
1.7693e-06
-1.30694e-06
-2.94205e-06
2.09806e-06
-1.32914e-06
-2.56525e-06
-1.3134e-06
-8.48818e-07
7.15599e-07
-7.28463e-07
-4.85227e-06
1.36593e-06
-7.26512e-07
-4.63654e-06
1.77243e-06
-7.03831e-07
-3.74534e-06
2.09853e-06
-6.94311e-07
-3.4777e-06
-6.79546e-07
-1.82724e-06
7.17581e-07
-5.05753e-06
1.38042e-06
-4.85764e-06
1.78179e-06
-3.95974e-06
2.09258e-06
-3.62248e-06
-1.98403e-06
8.84554e-07
-3.02894e-06
-2.80642e-06
1.72979e-06
-2.96284e-06
-2.63919e-06
2.31176e-06
-2.83059e-06
-1.41601e-06
2.76179e-06
-2.81777e-06
-9.47416e-07
-2.7654e-06
1.35171e-06
9.85414e-07
-2.67271e-06
-4.96154e-06
1.88104e-06
-2.63027e-06
-4.70203e-06
2.4378e-06
-2.49066e-06
-3.45746e-06
2.8137e-06
-2.44483e-06
-2.97005e-06
-2.3184e-06
-9.50692e-07
1.0167e-06
-2.1196e-06
-5.52661e-06
1.94966e-06
-2.07431e-06
-5.23255e-06
2.48349e-06
-1.95913e-06
-4.00741e-06
2.82638e-06
-1.89053e-06
-3.46245e-06
-1.73762e-06
-1.42547e-06
1.08768e-06
-1.12925e-06
-6.93549e-06
2.06546e-06
-1.09805e-06
-6.5906e-06
2.62366e-06
-1.02707e-06
-5.23561e-06
2.96061e-06
-9.9595e-07
-4.70923e-06
-8.94123e-07
-2.64779e-06
1.11902e-06
-7.30578e-06
2.11137e-06
-6.94321e-06
2.66649e-06
-5.53768e-06
3.02815e-06
-4.97619e-06
-2.8217e-06
1.38929e-06
-4.55064e-06
-3.85926e-06
2.57592e-06
-4.47974e-06
-3.50383e-06
3.43535e-06
-4.24945e-06
-2.03251e-06
4.034e-06
-4.17785e-06
-1.30289e-06
-4.04221e-06
1.93312e-06
1.50983e-06
-4.0396e-06
-6.99069e-06
2.82996e-06
-3.9604e-06
-6.54151e-06
3.64779e-06
-3.76336e-06
-4.76139e-06
4.1689e-06
-3.66112e-06
-4.00791e-06
-3.44858e-06
-1.30729e-06
1.57233e-06
-3.1792e-06
-7.96757e-06
2.94258e-06
-3.11143e-06
-7.45177e-06
3.74997e-06
-2.95918e-06
-5.619e-06
4.24026e-06
-2.84668e-06
-4.76719e-06
-2.59282e-06
-2.0447e-06
1.66337e-06
-1.72548e-06
-1.00609e-05
3.09531e-06
-1.68107e-06
-9.45289e-06
3.9475e-06
-1.59029e-06
-7.45668e-06
4.47111e-06
-1.52801e-06
-6.55153e-06
-1.40764e-06
-3.51694e-06
1.70798e-06
-1.07386e-05
3.1634e-06
-1.00711e-05
4.027e-06
-7.98309e-06
4.5424e-06
-7.0113e-06
-3.88259e-06
2.0281e-06
-6.88438e-06
-5.1701e-06
3.82215e-06
-6.72017e-06
-4.61244e-06
4.80456e-06
-6.35234e-06
-2.3964e-06
5.75432e-06
-6.0622e-06
-1.72289e-06
-5.75949e-06
3.22381e-06
2.30321e-06
-6.2589e-06
-9.92799e-06
4.26808e-06
-6.08439e-06
-9.14217e-06
5.39191e-06
-5.6816e-06
-6.55598e-06
6.05561e-06
-5.40269e-06
-5.33114e-06
-4.81584e-06
-1.72692e-06
2.43955e-06
-4.98231e-06
-1.16918e-05
4.505e-06
-4.83714e-06
-1.07645e-05
5.67081e-06
-4.51829e-06
-7.94813e-06
6.34553e-06
-4.28175e-06
-6.56286e-06
-3.83728e-06
-2.41062e-06
2.63026e-06
-2.7321e-06
-1.49484e-05
4.82423e-06
-2.6439e-06
-1.38401e-05
6.07392e-06
-2.45352e-06
-1.07712e-05
6.71361e-06
-2.31765e-06
-9.15534e-06
-2.04332e-06
-4.63121e-06
2.71839e-06
-1.6189e-05
4.96918e-06
-1.49596e-05
6.24806e-06
-1.17103e-05
6.87732e-06
-9.95324e-06
-5.20158e-06
3.02357e-06
-9.72661e-06
-7.0734e-06
5.58901e-06
-9.47114e-06
-6.12326e-06
7.20371e-06
-8.97168e-06
-3.03965e-06
8.24458e-06
-8.66916e-06
-1.84565e-06
-8.2597e-06
5.24705e-06
3.40425e-06
-9.12318e-06
-1.39488e-05
6.19067e-06
-8.82096e-06
-1.25788e-05
7.85495e-06
-8.27169e-06
-8.92026e-06
8.65204e-06
-7.87647e-06
-6.92094e-06
-7.22389e-06
-1.85493e-06
3.64959e-06
-7.32587e-06
-1.71514e-05
6.5615e-06
-7.05684e-06
-1.54405e-05
8.24975e-06
-6.58717e-06
-1.13209e-05
8.95494e-06
-6.2163e-06
-8.92824e-06
-5.61489e-06
-3.05781e-06
3.93912e-06
-4.14721e-06
-2.20789e-05
7.03191e-06
-3.96476e-06
-2.00249e-05
8.79984e-06
-3.67585e-06
-1.54504e-05
9.45543e-06
-3.43091e-06
-1.25963e-05
-3.0509e-06
-6.14963e-06
4.12141e-06
-2.44567e-05
7.30047e-06
-2.20903e-05
9.10149e-06
-1.71742e-05
9.71032e-06
-1.398e-05
-7.11576e-06
4.38045e-06
-1.47578e-05
-9.35187e-06
8.02864e-06
-1.42023e-05
-7.78205e-06
1.00857e-05
-1.32439e-05
-3.34775e-06
1.11028e-05
-1.24991e-05
-1.22546e-06
-1.11156e-05
8.08515e-06
5.16166e-06
-1.40796e-05
-1.98001e-05
9.25776e-06
-1.346e-05
-1.74172e-05
1.15676e-05
-1.24232e-05
-1.20509e-05
1.24863e-05
-1.15842e-05
-8.75452e-06
-1.01033e-05
-1.23805e-06
5.63029e-06
-1.14194e-05
-2.5453e-05
9.98931e-06
-1.08631e-05
-2.23964e-05
1.24054e-05
-1.00092e-05
-1.6151e-05
1.323e-05
-9.2768e-06
-1.20603e-05
-8.04804e-06
-3.37246e-06
6.20924e-06
-6.59527e-06
-3.31213e-05
1.08438e-05
-6.22719e-06
-2.92954e-05
1.3443e-05
-5.6485e-06
-2.24104e-05
1.41884e-05
-5.1793e-06
-1.74392e-05
-4.39823e-06
-7.81903e-06
6.57637e-06
-3.76293e-05
1.13986e-05
-3.31325e-05
1.40608e-05
-2.548e-05
1.47422e-05
-1.98363e-05
-9.40655e-06
6.49388e-06
-2.10405e-05
-1.24548e-05
1.15393e-05
-2.00786e-05
-9.75745e-06
1.4714e-05
-1.85845e-05
-3.82135e-06
1.60786e-05
-1.74767e-05
-1.81651e-07
-1.61058e-05
1.30093e-05
7.68025e-06
-2.1005e-05
-2.75349e-05
1.33695e-05
-1.9804e-05
-2.3381e-05
1.66578e-05
-1.81579e-05
-1.57658e-05
1.74463e-05
-1.66922e-05
-1.03276e-05
-1.47461e-05
-2.0391e-07
8.65719e-06
-1.73637e-05
-3.77704e-05
1.47569e-05
-1.62281e-05
-3.20721e-05
1.81214e-05
-1.47973e-05
-2.28761e-05
1.85531e-05
-1.34084e-05
-1.57757e-05
-1.15786e-05
-3.85279e-06
9.60964e-06
-1.04985e-05
-4.96153e-05
1.61895e-05
-9.6463e-06
-4.24571e-05
1.97698e-05
-8.69466e-06
-3.20933e-05
2.00495e-05
-7.71724e-06
-2.34102e-05
-6.53175e-06
-9.80907e-06
1.04602e-05
-5.8587e-05
1.73225e-05
-4.96216e-05
2.0968e-05
-3.78017e-05
2.10087e-05
-2.75761e-05
-1.25257e-05
9.39425e-06
-3.21525e-05
-1.58895e-05
1.66782e-05
-3.00585e-05
-1.15789e-05
2.05307e-05
-2.7645e-05
-2.97172e-06
2.10387e-05
-2.5156e-05
3.55863e-06
-2.10701e-05
1.87249e-05
1.17448e-05
-3.30603e-05
-3.83886e-05
1.99459e-05
-3.04894e-05
-3.11512e-05
2.44821e-05
-2.74799e-05
-2.04671e-05
2.51297e-05
-2.45096e-05
-1.16216e-05
-2.05572e-05
3.52093e-06
1.36538e-05
-2.79444e-05
-5.6557e-05
2.27199e-05
-2.5421e-05
-4.62066e-05
2.74471e-05
-2.27546e-05
-3.23287e-05
2.76145e-05
-1.99764e-05
-2.04763e-05
-1.67066e-05
-3.01312e-06
1.57147e-05
-1.7552e-05
-7.57359e-05
2.53878e-05
-1.57426e-05
-6.18086e-05
3.04589e-05
-1.36819e-05
-4.62371e-05
3.00291e-05
-1.17692e-05
-3.11875e-05
-9.41692e-06
-1.16488e-05
1.75214e-05
-9.36629e-05
2.79076e-05
-7.57397e-05
3.30248e-05
-5.65948e-05
3.2119e-05
-3.84349e-05
-1.59774e-05
1.41056e-05
-4.65937e-05
-1.97266e-05
2.3902e-05
-4.29442e-05
-1.253e-05
2.99841e-05
-3.87558e-05
-1.46673e-06
2.99938e-05
-3.51192e-05
1.00761e-05
-3.00427e-05
2.93377e-05
1.77586e-05
-5.07663e-05
-5.20033e-05
2.91191e-05
-4.57342e-05
-3.97217e-05
3.53253e-05
-4.06725e-05
-2.47565e-05
3.50708e-05
-3.53792e-05
-1.11072e-05
-3.00337e-05
1.00258e-05
2.18304e-05
-4.45305e-05
-8.46537e-05
3.4432e-05
-3.92259e-05
-6.53165e-05
4.06105e-05
-3.44981e-05
-4.46816e-05
3.86957e-05
-2.91788e-05
-2.47618e-05
-2.39612e-05
-1.51777e-06
2.53338e-05
-2.98838e-05
-0.000115749
3.91661e-05
-2.5388e-05
-8.94787e-05
4.568e-05
-2.18862e-05
-6.5363e-05
4.28918e-05
-1.78097e-05
-3.97684e-05
-1.41559e-05
-1.26259e-05
2.98215e-05
-0.000153369
4.44592e-05
-0.000115732
5.07009e-05
-8.46945e-05
4.65312e-05
-5.20488e-05
-1.98348e-05
2.03621e-05
-7.27086e-05
-2.21235e-05
3.42592e-05
-6.44222e-05
-1.08538e-05
3.98979e-05
-5.81095e-05
5.63738e-06
3.94732e-05
-4.86148e-05
2.03979e-05
-3.95322e-05
4.09876e-05
2.78291e-05
-8.32542e-05
-6.93131e-05
4.33729e-05
-7.1866e-05
-4.78217e-05
5.08877e-05
-6.24384e-05
-2.79424e-05
4.85658e-05
-5.09409e-05
-6.4592e-06
-3.99674e-05
2.03515e-05
3.60945e-05
-7.66907e-05
-0.00012734
5.4592e-05
-6.40864e-05
-9.15936e-05
6.23769e-05
-5.46573e-05
-6.02477e-05
5.80483e-05
-4.34322e-05
-2.7942e-05
-3.4316e-05
5.56274e-06
4.46249e-05
-5.46401e-05
-0.000182446
6.40239e-05
-4.46756e-05
-0.000128289
7.18091e-05
-3.61449e-05
-9.16605e-05
6.43609e-05
-2.78728e-05
-4.78798e-05
-2.04021e-05
-1.09807e-05
5.45874e-05
-0.0002626
7.66245e-05
-0.000182427
8.31871e-05
-0.000127389
7.26384e-05
-6.93639e-05
-2.22555e-05
3.07113e-05
-0.000106215
-2.13378e-05
4.89133e-05
-9.21001e-05
-3.88846e-06
5.67323e-05
-8.07057e-05
1.87873e-05
5.36583e-05
-6.69303e-05
3.88678e-05
-5.37445e-05
6.30362e-05
4.19934e-05
-0.000130518
-8.70496e-05
6.32773e-05
-0.00010855
-5.26556e-05
7.27449e-05
-9.22281e-05
-2.58877e-05
6.68522e-05
-7.28235e-05
5.32673e-06
-5.68135e-05
3.88113e-05
5.94868e-05
-0.000129009
-0.00018839
8.39807e-05
-0.000101615
-0.000123022
9.213e-05
-8.40911e-05
-7.6534e-05
8.0611e-05
-6.33707e-05
-2.58758e-05
-4.90024e-05
1.87152e-05
7.44081e-05
-0.000101433
-0.000284495
0.000101531
-7.4493e-05
-0.000182534
0.000108475
-5.9577e-05
-0.000123119
9.20161e-05
-4.20678e-05
-5.27235e-05
-3.07784e-05
-4.04814e-06
0.000101314
-0.000465352
0.000128879
-0.000284415
0.000130399
-0.000188434
0.000106093
-8.70824e-05
-2.14829e-05
4.39474e-05
-0.000170111
-9.3139e-06
6.65417e-05
-0.000137919
1.83442e-05
7.51798e-05
-0.000118515
4.27838e-05
7.09914e-05
-8.88943e-05
6.53617e-05
-7.11029e-05
8.9094e-05
6.81678e-05
-0.000225346
-0.000100026
9.3937e-05
-0.000173639
-4.27056e-05
0.000103099
-0.000142687
-1.08776e-05
8.87884e-05
-0.000103196
3.39384e-05
-7.52903e-05
6.53018e-05
0.000103841
-0.000243879
-0.000273744
0.000138023
-0.000175781
-0.000155063
0.000142578
-0.000138139
-8.56369e-05
0.000118416
-9.40515e-05
-1.0858e-05
-6.66756e-05
4.27495e-05
0.000145103
-0.000206475
-0.000467038
0.000175659
-0.000145202
-0.000243669
0.000173542
-0.000103931
-0.000155209
0.000137821
-6.82584e-05
-4.27961e-05
-4.40415e-05
1.81578e-05
0.000206399
-0.000878221
0.000243777
-0.000466954
0.000225237
-0.000273782
0.000169986
-0.000100064
-9.493e-06
6.32922e-05
-0.00024512
2.2377e-05
9.08219e-05
-0.000191676
5.78905e-05
0.000100066
-0.000157458
8.42563e-05
8.80767e-05
-0.000116884
0.000109732
-8.82266e-05
0.000132058
9.83135e-05
-0.000353337
-9.02047e-05
0.000132702
-0.000257191
-1.15799e-05
0.000139905
-0.00020309
2.75522e-05
0.000116754
-0.000140013
8.02176e-05
-0.000100195
0.000109662
0.00017178
-0.000437641
-0.000361336
0.000209502
-0.000281906
-0.00016807
0.000202934
-0.000209673
-7.24871e-05
0.000157287
-0.00013282
2.75969e-05
-9.09342e-05
8.42203e-05
0.00024595
-0.000433093
-0.000717691
0.000281837
-0.000246106
-0.000315355
0.000257127
-0.000171937
-0.000168236
0.000191607
-9.8426e-05
-1.16694e-05
-6.33938e-05
5.77585e-05
0.000432821
-0.00174412
0.000437403
-0.000717441
0.000353112
-0.000361294
0.000244938
-9.0228e-05
2.22642e-05
8.57753e-05
-0.000392064
0.000101071
0.00012054
-0.000272969
0.000137221
0.000126236
-0.000221706
0.000154568
0.000109799
-0.000146448
0.00017387
-0.000110033
0.000182165
0.00016128
-0.000633435
-1.0193e-05
0.000189815
-0.000399293
8.62085e-05
0.000185561
-0.000304519
0.00011462
0.000146221
-0.000185754
0.000158863
-0.000126441
0.000173763
0.000304604
-0.000902825
-0.000396638
0.000345716
-0.000509218
-9.92559e-05
0.000304308
-0.000345908
1.03094e-05
0.000221468
-0.00019003
0.000114713
-0.000120728
0.000154514
0.000532026
-0.000984457
-0.00116814
0.000508959
-0.000532178
-0.000269328
0.000399131
-0.000304734
-9.95808e-05
0.000272753
-0.000161474
8.61525e-05
-8.58946e-05
0.000137038
0.000984493
-0.000923112
-0.000982796
-0.000883895
-0.000923037
0.000902699
-0.00116763
0.000633268
-0.000396415
0.000391932
-1.02944e-05
0.000101053
0.000113492
-0.000511556
0.000232159
0.0001474
-0.000342278
0.000248456
0.000147953
-0.00026195
0.000254323
0.000120842
-0.000170118
0.000257176
-0.000121086
0.00025023
0.000199054
-0.000926328
0.000205372
0.000237664
-0.000544015
0.000249336
0.000224392
-0.000382776
0.000248717
0.000169916
-0.000224537
0.000267757
-0.000148135
0.000257052
0.000456614
-0.00169245
-8.73573e-05
0.000475523
-0.000773246
0.000111065
0.000382519
-0.000475678
0.000196216
0.000261656
-0.000237805
0.000248844
-0.000147552
0.000254292
0.000830594
-0.000494934
-0.00023961
-0.000222548
-0.000651026
-0.000453672
-0.000536038
-0.000548621
-0.000545372
0.000773361
-0.000830728
-0.000154612
0.000543936
-0.000456778
0.000110943
0.000342154
-0.000199175
0.000249305
-0.000113604
0.000248335
0.000404411
-0.000421159
-0.00140156
0.00169188
-0.000453153
-0.000223107
-0.000650234
-0.000239368
-0.000535789
-0.000494488
-0.000545019
-0.000547903
0.000925741
-8.66372e-05
0.000511123
0.000205327
0.000232235
0.000127323
-0.000733591
0.000489584
0.000156089
-0.000415877
0.000434229
0.000144499
-0.000303916
0.000390587
0.000114964
-0.00016998
0.000352806
-0.000115324
0.000311363
0.000279125
-0.00146497
0.000657473
0.00028246
-0.000699579
0.000529703
0.000236218
-0.000482531
0.000473574
0.000169646
-0.000236496
0.000400846
-0.0001448
0.000352673
0.000726904
-0.000852098
0.00118857
-0.000745526
-0.00104901
-0.000821322
0.000697801
-0.00135084
0.000791434
0.000482125
-0.000697972
0.000627333
0.000303533
-0.000282838
0.000473779
-0.00015635
0.000390575
0.000343035
-0.00136346
-7.15443e-05
0.00135068
-0.00058813
0.000362276
0.000261166
0.000459462
0.000362305
-0.000439483
-0.000588311
-0.000347578
-0.000774794
-0.000440072
-0.000775542
-0.000347436
0.000699341
-0.00072691
0.00079122
0.000415595
-0.000279516
0.000529729
-0.000127497
0.000434157
0.00123683
0.00210729
-0.000916344
-0.000587192
-0.000488661
-0.0011093
0.00178891
-0.000540264
-0.000472478
-0.000502481
-0.000517608
-0.00129511
0.00103292
-0.000546078
-0.000233013
0.00146506
0.001189
-0.000745552
-0.000852071
-0.000821112
-0.00104847
0.000733204
0.000657754
0.000489593
0.000110184
-0.000515654
0.000672613
0.000141836
-0.00034048
0.000575015
0.000131746
-0.000244518
0.000499427
0.00010263
-0.000141773
0.000433429
-0.000102947
0.000367585
0.000166525
-0.000900743
0.000875913
0.000203768
-0.000573127
0.000725108
0.000197376
-0.000396781
0.000632229
0.000141598
-0.000197304
0.000512155
-0.000131797
0.000433105
0.000489487
-0.000911559
0.00177796
-0.000658641
-0.000250719
-0.000158918
0.000531962
-0.000455535
0.00118207
-0.000277523
-0.000152171
-0.000121013
0.000396906
-0.000530719
0.000896328
0.000244276
-0.000203551
0.000632656
-0.000141686
0.000499418
0.000341346
0.00102211
-0.000376556
-0.000404663
-0.000542901
-0.000513885
-0.000436807
-0.00043488
0.00036578
-0.000609919
0.00058576
0.000573383
-0.000488615
0.0011808
-0.00027693
-0.00045534
-0.000120786
-0.000152006
0.00034032
-0.000166032
0.000725272
-0.000109942
0.000574852
0.00105574
0.00108473
0.000389703
-0.000559655
-0.00197045
-0.000496706
0.000262839
-0.000194731
0.000399459
-0.000311523
0.000340663
0.000900763
0.00177731
-0.000657576
-0.000910051
-0.000158688
-0.000250688
0.000514926
0.000877507
0.000672579
-2.35859e-05
8.81516e-05
0.000522848
-1.53731e-05
5.76349e-06
0.000494084
1.68787e-06
-1.14841e-05
0.000457295
1.16332e-05
-3.35686e-05
0.000419134
-1.21136e-05
0.000366043
1.8158e-05
0.000273292
0.000672256
2.09141e-05
9.92107e-05
0.000628904
2.67842e-05
5.79643e-05
0.000556911
3.32024e-05
-2.69603e-05
0.000499128
-2.27776e-06
0.00041915
-0.00025443
0.00039712
0.000680125
0.000277726
0.000555934
0.000394525
-0.000189031
0.000518687
0.000697199
-5.88687e-05
0.000188364
0.000635766
1.06343e-05
-2.12116e-05
0.000557404
1.49744e-05
0.000457161
-0.0010323
-9.56119e-05
0.000373604
0.000326106
0.000238993
0.000229306
0.000355971
-0.000516803
0.000516987
0.000574489
0.000132702
0.000518785
0.000138717
0.000595308
0.000133871
0.000596222
0.000139147
-0.000509327
-0.000427878
-0.000863855
-0.000509678
-9.90029e-05
0.000253814
0.000697545
-5.95819e-06
-1.85725e-05
0.000629589
2.30829e-05
0.000494536
0.00250662
-0.000566451
-0.000343225
0.000257838
-0.00185435
-0.000376991
0.000324178
-0.000809864
0.000376015
0.000526354
0.000372778
0.000577656
0.000115639
0.000179502
0.000108093
0.000206486
-0.000366709
-0.000341083
-0.000375067
-0.000274119
0.000679158
0.000279069
0.000396118
0.000398724
0.000553233
-8.88748e-05
0.000673782
0.000522909
-1.41472e-05
1.95538e-05
0.000491973
-5.38581e-07
3.00409e-05
0.000481661
1.73582e-06
6.06239e-06
0.000440214
7.32193e-06
8.91783e-06
0.00041564
-7.87203e-06
0.000357279
2.54039e-05
-4.6829e-05
0.000712749
-4.06834e-06
5.89379e-05
0.000629479
-1.07113e-05
1.6779e-05
0.000552837
-9.4094e-06
1.03706e-05
0.000496374
-2.50726e-06
0.00041617
-4.88998e-05
0.000114632
0.000632244
9.43115e-05
-0.000120477
-3.86412e-05
-3.34406e-05
6.24924e-05
0.000678186
-1.80337e-05
3.24043e-05
0.000604734
-7.41392e-06
4.37945e-06
0.000552775
-5.30788e-07
0.000440821
0.000344352
4.21511e-05
0.000224537
-0.000496058
-6.00644e-05
5.68436e-05
0.000211865
0.000182007
0.000167858
0.000211562
-5.00138e-05
4.93319e-05
7.65802e-05
-0.00011872
-4.89632e-05
-0.000117317
7.60118e-05
-5.8675e-05
4.91351e-05
0.000679424
-2.99137e-05
-2.49082e-05
0.000630115
1.41489e-05
0.000482206
0.000961023
-0.000527571
0.00059566
0.000855924
0.00135769
0.00123832
-0.00054497
-0.00100911
-0.000950651
-0.000949546
-0.00102414
0.000427123
0.000578675
-0.000216961
6.21471e-05
-0.00079414
4.23823e-05
0.000633774
9.36847e-05
0.00011995
-4.08013e-05
-0.000120927
-2.15974e-05
0.000713231
0.000493495
2.83182e-06
-7.62261e-05
0.000629472
-1.8467e-05
8.40713e-06
0.000543883
-4.01658e-05
3.36193e-05
0.000472816
-4.45668e-05
4.74546e-05
0.000411267
4.46484e-05
0.00034955
-1.68697e-05
-0.000251714
0.000904534
-3.54003e-05
-8.48639e-05
0.000741281
-4.31329e-05
-2.35874e-05
0.000617776
-4.75789e-05
4.28693e-05
0.000505405
4.05882e-05
0.000411694
0.000212059
-0.000625043
0.00168592
-0.000352703
-0.000357021
-0.000183355
0.000144142
-0.000245084
0.0011539
-7.31691e-05
-0.000136398
-3.80081e-05
2.33818e-05
-0.000143904
0.000845811
-3.40543e-05
3.53031e-05
0.000617778
1.89079e-05
0.000473503
0.000232707
0.000418538
0.000370392
-0.000400107