/*--------------------------------*- C++ -*----------------------------------*\
| =========                 |                                                 |
| \\      /  F ield         | OpenFOAM: The Open Source CFD Toolbox           |
|  \\    /   O peration     | Version:  5.x                                   |
|   \\  /    A nd           | Web:      www.OpenFOAM.org                      |
|    \\/     M anipulation  |                                                 |
\*---------------------------------------------------------------------------*/
FoamFile
{
    version     2.0;
    format      ascii;
    class       volVectorField;
    location    "0.033";
    object      U;
}
// * * * * * * * * * * * * * * * * * * * * * * * * * * * * * * * * * * * * * //

dimensions      [0 1 -1 0 0 0 0];

internalField   nonuniform List<vector> 
1581
(
(1.10431e-07 -3.9757e-06 -0.000780957)
(2.31112e-06 -3.98305e-06 -0.000781399)
(2.35278e-06 -3.95447e-06 -0.000780377)
(3.88916e-06 -3.95265e-06 -0.000781388)
(3.81834e-06 -3.90883e-06 -0.000779316)
(8.56689e-08 -4.05894e-06 -0.00078321)
(2.33167e-06 -4.07404e-06 -0.000783637)
(2.38227e-06 -4.04667e-06 -0.000782572)
(3.93368e-06 -4.04695e-06 -0.000783576)
(3.86215e-06 -3.9996e-06 -0.000781465)
(5.81854e-08 -2.49398e-06 -0.000782212)
(2.32333e-06 -2.50731e-06 -0.000782647)
(2.37983e-06 -2.48656e-06 -0.000781575)
(3.93621e-06 -2.48776e-06 -0.000782586)
(3.86683e-06 -2.45315e-06 -0.000780469)
(4.95702e-08 -2.43309e-06 -0.000783397)
(2.33908e-06 -2.44429e-06 -0.00078382)
(2.40182e-06 -2.42276e-06 -0.000782721)
(3.96709e-06 -2.42388e-06 -0.000783728)
(3.89763e-06 -2.38971e-06 -0.00078159)
(3.3216e-08 -1.29913e-07 -0.000782991)
(2.33366e-06 -1.37805e-07 -0.000783418)
(2.40025e-06 -1.26854e-07 -0.000782312)
(3.96925e-06 -1.28324e-07 -0.000783324)
(3.90185e-06 -1.12421e-07 -0.000781181)
(1.57828e-08 -2.06438e-06 0.000224888)
(1.41447e-06 -2.04208e-06 0.000225047)
(1.80405e-06 -2.00559e-06 0.00022542)
(2.5191e-06 -1.99554e-06 0.000225756)
(1.90569e-06 -1.9684e-06 0.000226265)
(1.21228e-07 -2.77228e-06 0.000224413)
(1.47179e-06 -2.73977e-06 0.000224573)
(1.84949e-06 -2.69493e-06 0.000224942)
(2.5554e-06 -2.67976e-06 0.000225279)
(1.93283e-06 -2.64786e-06 0.000225786)
(1.59325e-07 -2.08023e-06 0.000224068)
(1.49177e-06 -2.05576e-06 0.000224233)
(1.86402e-06 -2.02313e-06 0.000224603)
(2.56614e-06 -2.01103e-06 0.000224941)
(1.93835e-06 -1.98685e-06 0.000225448)
(2.18099e-07 -1.75039e-06 0.000223729)
(1.52889e-06 -1.72685e-06 0.000223893)
(1.89422e-06 -1.69581e-06 0.000224259)
(2.59167e-06 -1.6839e-06 0.000224597)
(1.95759e-06 -1.66046e-06 0.000225102)
(2.49285e-07 -4.71264e-07 0.000223554)
(1.54635e-06 -4.49883e-07 0.00022372)
(1.90698e-06 -4.3214e-07 0.000224084)
(2.60148e-06 -4.22931e-07 0.000224423)
(1.96234e-06 -4.13271e-07 0.000224927)
(2.69991e-07 -4.50907e-06 -0.000471969)
(2.87629e-06 -4.51471e-06 -0.000471959)
(3.10291e-06 -4.4897e-06 -0.000470367)
(4.79026e-06 -4.4874e-06 -0.00047037)
(4.38344e-06 -4.44452e-06 -0.000467685)
(2.50209e-07 -4.93785e-06 -0.000474751)
(2.89495e-06 -4.94688e-06 -0.000474742)
(3.12933e-06 -4.92227e-06 -0.000473125)
(4.83423e-06 -4.92061e-06 -0.000473124)
(4.42631e-06 -4.87411e-06 -0.000470397)
(2.37973e-07 -3.22217e-06 -0.000474757)
(2.89182e-06 -3.23093e-06 -0.000474752)
(3.12915e-06 -3.21327e-06 -0.000473134)
(4.83841e-06 -3.21313e-06 -0.000473134)
(4.43116e-06 -3.1799e-06 -0.000470403)
(2.26721e-07 -2.98489e-06 -0.000476418)
(2.90384e-06 -2.99452e-06 -0.000476413)
(3.14713e-06 -2.9779e-06 -0.000474777)
(4.86761e-06 -2.97837e-06 -0.000474775)
(4.46045e-06 -2.9467e-06 -0.000472017)
(2.1859e-07 -3.06857e-07 -0.000476428)
(2.89881e-06 -3.10967e-07 -0.000476427)
(3.1453e-06 -3.05927e-07 -0.000474791)
(4.86961e-06 -3.07075e-07 -0.00047479)
(4.46368e-06 -2.96761e-07 -0.000472029)
(5.2648e-08 -4.90303e-06 -2.44871e-05)
(3.01614e-06 -4.88097e-06 -2.42911e-05)
(3.39319e-06 -4.81903e-06 -2.25084e-05)
(5.20254e-06 -4.80436e-06 -2.21004e-05)
(4.64524e-06 -4.7351e-06 -1.92173e-05)
(1.40668e-07 -5.56166e-06 -2.7435e-05)
(3.09808e-06 -5.5337e-06 -2.7232e-05)
(3.46791e-06 -5.46264e-06 -2.54258e-05)
(5.28435e-06 -5.44456e-06 -2.50105e-05)
(4.71451e-06 -5.36661e-06 -2.20919e-05)
(1.62344e-07 -3.74742e-06 -2.78769e-05)
(3.11512e-06 -3.72668e-06 -2.76708e-05)
(3.4823e-06 -3.67552e-06 -2.58599e-05)
(5.29855e-06 -3.66206e-06 -2.54423e-05)
(4.7252e-06 -3.60704e-06 -2.25173e-05)
(2.20033e-07 -3.42142e-06 -2.97059e-05)
(3.16999e-06 -3.40222e-06 -2.94955e-05)
(3.53252e-06 -3.35323e-06 -2.76706e-05)
(5.35283e-06 -3.34002e-06 -2.72486e-05)
(4.77095e-06 -3.28746e-06 -2.43021e-05)
(2.42364e-07 -4.92715e-07 -2.99474e-05)
(3.18331e-06 -4.75562e-07 -2.97355e-05)
(3.5445e-06 -4.53572e-07 -2.79082e-05)
(5.36432e-06 -4.45425e-07 -2.74847e-05)
(4.77908e-06 -4.28845e-07 -2.45351e-05)
(4.43352e-07 -7.52038e-06 -0.000313591)
(4.85489e-06 -7.51877e-06 -0.000313324)
(5.29366e-06 -7.46963e-06 -0.000310339)
(8.08192e-06 -7.45984e-06 -0.000309834)
(7.32857e-06 -7.38048e-06 -0.000304974)
(4.39795e-07 -8.32816e-06 -0.000318591)
(4.90412e-06 -8.32708e-06 -0.000318322)
(5.35086e-06 -8.2742e-06 -0.000315293)
(8.16869e-06 -8.26304e-06 -0.000314776)
(7.40793e-06 -8.17464e-06 -0.000309835)
(4.35827e-07 -5.49308e-06 -0.000319128)
(4.90882e-06 -5.49446e-06 -0.00031886)
(5.35766e-06 -5.45802e-06 -0.000315824)
(8.18146e-06 -5.4513e-06 -0.000315305)
(7.41935e-06 -5.39009e-06 -0.000310352)
(4.32829e-07 -5.05535e-06 -0.000322194)
(4.93918e-06 -5.05915e-06 -0.000321923)
(5.39402e-06 -5.02616e-06 -0.000318859)
(8.23663e-06 -5.02074e-06 -0.000318333)
(7.47084e-06 -4.96451e-06 -0.000313328)
(4.30157e-07 -5.4967e-07 -0.000322482)
(4.93801e-06 -5.51183e-07 -0.000322212)
(5.39607e-06 -5.45736e-07 -0.000319144)
(8.24312e-06 -5.45172e-07 -0.000318617)
(7.47715e-06 -5.34166e-07 -0.000313606)
(3.75747e-07 -1.0008e-05 -0.000138797)
(6.26799e-06 -9.98441e-06 -0.000138391)
(6.88307e-06 -9.87649e-06 -0.000134356)
(1.05686e-05 -9.85019e-06 -0.000133543)
(9.60702e-06 -9.69725e-06 -0.000126978)
(4.39316e-07 -1.10994e-05 -0.000145577)
(6.39615e-06 -1.10704e-05 -0.000145157)
(7.01376e-06 -1.0948e-05 -0.000141054)
(1.07429e-05 -1.09167e-05 -0.000140218)
(9.75996e-06 -1.07449e-05 -0.000133547)
(4.54694e-07 -7.35022e-06 -0.000146467)
(6.41935e-06 -7.328e-06 -0.000146043)
(7.03681e-06 -7.24158e-06 -0.000141926)
(1.07716e-05 -7.21864e-06 -0.000141085)
(9.78358e-06 -7.10035e-06 -0.000134393)
(5.00392e-07 -6.77561e-06 -0.00015065)
(6.50479e-06 -6.75474e-06 -0.000150217)
(7.12312e-06 -6.67307e-06 -0.000146057)
(1.08841e-05 -6.65132e-06 -0.000145203)
(9.88149e-06 -6.54125e-06 -0.000138444)
(5.17644e-07 -7.80248e-07 -0.000151142)
(6.52189e-06 -7.66553e-07 -0.000150703)
(7.14023e-06 -7.42189e-07 -0.000146535)
(1.09034e-05 -7.33256e-07 -0.000145677)
(9.89654e-06 -7.09767e-07 -0.000138907)
(8.30214e-07 -1.44465e-05 -0.000244624)
(9.29585e-06 -1.44306e-05 -0.000244037)
(1.01422e-05 -1.43116e-05 -0.000238202)
(1.54607e-05 -1.42789e-05 -0.000237067)
(1.40344e-05 -1.40901e-05 -0.000227594)
(8.45679e-07 -1.59994e-05 -0.000254467)
(9.42698e-06 -1.598e-05 -0.000253862)
(1.02896e-05 -1.58456e-05 -0.000247907)
(1.56764e-05 -1.58068e-05 -0.000246734)
(1.42233e-05 -1.55902e-05 -0.000237061)
(8.48534e-07 -1.0567e-05 -0.000255705)
(9.44959e-06 -1.05543e-05 -0.000255096)
(1.03153e-05 -1.04615e-05 -0.000249117)
(1.57161e-05 -1.0436e-05 -0.000247934)
(1.42568e-05 -1.02868e-05 -0.000238223)
(8.57298e-07 -9.73049e-06 -0.000261767)
(9.53245e-06 -9.71938e-06 -0.000261145)
(1.04079e-05 -9.6353e-06 -0.000255091)
(1.58512e-05 -9.61263e-06 -0.000253885)
(1.43766e-05 -9.47846e-06 -0.000244048)
(8.59683e-07 -1.04607e-06 -0.000262439)
(9.54478e-06 -1.0438e-06 -0.000261813)
(1.0422e-05 -1.03159e-06 -0.000255745)
(1.58729e-05 -1.02697e-06 -0.000254534)
(1.43948e-05 -1.00587e-06 -0.000244676)
(1.0088e-06 -2.00671e-05 -0.000197242)
(1.26899e-05 -2.00253e-05 -0.000196395)
(1.38529e-05 -1.97931e-05 -0.000188159)
(2.1178e-05 -1.97278e-05 -0.000186489)
(1.92851e-05 -1.93688e-05 -0.000173107)
(1.07174e-06 -2.21824e-05 -0.000211207)
(1.29564e-05 -2.21312e-05 -0.000210322)
(1.41421e-05 -2.18642e-05 -0.000201909)
(2.15901e-05 -2.1786e-05 -0.000200174)
(1.96441e-05 -2.13754e-05 -0.000186508)
(1.08858e-06 -1.46501e-05 -0.000213061)
(1.3008e-05 -1.46108e-05 -0.000212167)
(1.4198e-05 -1.44259e-05 -0.000203714)
(2.16668e-05 -1.43699e-05 -0.000201965)
(1.97078e-05 -1.40872e-05 -0.000188234)
(1.13432e-06 -1.35092e-05 -0.000221676)
(1.31807e-05 -1.34722e-05 -0.00022076)
(1.4383e-05 -1.33019e-05 -0.000212198)
(2.19289e-05 -1.32511e-05 -0.000210409)
(1.99349e-05 -1.29942e-05 -0.000196501)
(1.1496e-06 -1.44774e-06 -0.00022269)
(1.32153e-05 -1.43418e-06 -0.000221768)
(1.44191e-05 -1.39925e-06 -0.000213186)
(2.19746e-05 -1.38568e-06 -0.000211388)
(1.9972e-05 -1.34201e-06 -0.000197444)
(1.66295e-06 -2.87208e-05 -0.000220212)
(1.8379e-05 -2.86664e-05 -0.000219022)
(2.00475e-05 -2.8365e-05 -0.000207523)
(3.0515e-05 -2.82647e-05 -0.000205206)
(2.77107e-05 -2.77842e-05 -0.000186536)
(1.71654e-06 -3.18208e-05 -0.000239905)
(1.87252e-05 -3.17549e-05 -0.000238648)
(2.04384e-05 -3.14031e-05 -0.00022683)
(3.10801e-05 -3.1285e-05 -0.00022439)
(2.81912e-05 -3.07194e-05 -0.000205208)
(1.72953e-06 -2.10351e-05 -0.000242517)
(1.87965e-05 -2.09918e-05 -0.000241245)
(2.05173e-05 -2.075e-05 -0.000229356)
(3.11987e-05 -2.0671e-05 -0.000226887)
(2.8292e-05 -2.02794e-05 -0.000207581)
(1.75957e-06 -1.93596e-05 -0.00025465)
(1.90103e-05 -1.93207e-05 -0.000253335)
(2.07591e-05 -1.91068e-05 -0.000241254)
(3.15508e-05 -1.90357e-05 -0.000238714)
(2.85937e-05 -1.86883e-05 -0.000219085)
(1.76759e-06 -2.07488e-06 -0.00025607)
(1.90493e-05 -2.06588e-06 -0.000254748)
(2.08023e-05 -2.03482e-06 -0.000242624)
(3.16173e-05 -2.02119e-06 -0.000240068)
(2.8649e-05 -1.96534e-06 -0.00022037)
(2.22571e-06 -4.02057e-05 -0.000239361)
(2.53793e-05 -4.00956e-05 -0.000237558)
(2.76684e-05 -3.9535e-05 -0.00022114)
(4.21685e-05 -3.93427e-05 -0.000217653)
(3.83725e-05 -3.84568e-05 -0.000191076)
(2.34429e-06 -4.44915e-05 -0.000267522)
(2.60313e-05 -4.43581e-05 -0.000265602)
(2.84002e-05 -4.37016e-05 -0.0002487)
(4.32161e-05 -4.3471e-05 -0.000245019)
(3.92584e-05 -4.24242e-05 -0.000217694)
(2.3753e-06 -2.93952e-05 -0.000271539)
(2.6169e-05 -2.92981e-05 -0.000269578)
(2.85554e-05 -2.88497e-05 -0.000252536)
(4.34459e-05 -2.86942e-05 -0.000248799)
(3.94499e-05 -2.79646e-05 -0.00022128)
(2.45557e-06 -2.70618e-05 -0.000289017)
(2.65768e-05 -2.69757e-05 -0.000286987)
(2.90041e-05 -2.65693e-05 -0.000269639)
(4.41013e-05 -2.64317e-05 -0.00026576)
(4.0009e-05 -2.57835e-05 -0.000237758)
(2.47701e-06 -2.87242e-06 -0.000291232)
(2.66615e-05 -2.85022e-06 -0.000289178)
(2.90994e-05 -2.77369e-06 -0.000271761)
(4.42319e-05 -2.74375e-06 -0.000267843)
(4.01168e-05 -2.63163e-06 -0.000239724)
(3.44569e-06 -5.75225e-05 -0.000218884)
(3.66005e-05 -5.73479e-05 -0.000216393)
(3.9953e-05 -5.65512e-05 -0.000193729)
(6.05835e-05 -5.62516e-05 -0.000188929)
(5.48881e-05 -5.50023e-05 -0.000152223)
(3.61422e-06 -6.40037e-05 -0.000258457)
(3.75472e-05 -6.37808e-05 -0.00025573)
(4.10208e-05 -6.2805e-05 -0.000232209)
(6.20916e-05 -6.24367e-05 -0.000226988)
(5.61374e-05 -6.09284e-05 -0.000188949)
(3.66702e-06 -4.25298e-05 -0.00026421)
(3.7799e-05 -4.23773e-05 -0.000261402)
(4.12967e-05 -4.16885e-05 -0.000237649)
(6.24601e-05 -4.14119e-05 -0.000232317)
(5.64373e-05 -4.03428e-05 -0.000193857)
(3.76486e-06 -3.90526e-05 -0.000288659)
(3.83885e-05 -3.89199e-05 -0.000285665)
(4.19863e-05 -3.83316e-05 -0.000261439)
(6.34375e-05 -3.80798e-05 -0.000255874)
(5.72348e-05 -3.71324e-05 -0.000216554)
(3.80041e-06 -4.32382e-06 -0.000291882)
(3.85199e-05 -4.28634e-06 -0.000288835)
(4.21368e-05 -4.18719e-06 -0.000264423)
(6.36595e-05 -4.13304e-06 -0.000258778)
(5.74092e-05 -3.96185e-06 -0.000219221)
(4.71586e-06 -8.0699e-05 -0.000293479)
(5.05346e-05 -8.03469e-05 -0.000289399)
(5.51323e-05 -7.89046e-05 -0.000256909)
(8.36819e-05 -7.82815e-05 -0.000249269)
(7.59204e-05 -7.60229e-05 -0.000197066)
(5.06418e-06 -8.98257e-05 -0.000349759)
(5.22797e-05 -8.93749e-05 -0.000345364)
(5.71419e-05 -8.76298e-05 -0.000311637)
(8.64833e-05 -8.68662e-05 -0.0003035)
(7.8179e-05 -8.40651e-05 -0.000249354)
(5.1754e-06 -5.95975e-05 -0.000358947)
(5.27299e-05 -5.92331e-05 -0.000354371)
(5.76404e-05 -5.80802e-05 -0.000320208)
(8.72466e-05 -5.75803e-05 -0.000311814)
(7.88017e-05 -5.55691e-05 -0.000257172)
(5.43785e-06 -5.47342e-05 -0.00039453)
(5.3797e-05 -5.44086e-05 -0.000389705)
(5.87948e-05 -5.33436e-05 -0.000354485)
(8.8995e-05 -5.2893e-05 -0.000345653)
(8.02459e-05 -5.11478e-05 -0.000289773)
(5.51489e-06 -6.11486e-06 -0.000399748)
(5.41206e-05 -6.03611e-06 -0.000394802)
(5.9156e-05 -5.77049e-06 -0.000359337)
(8.94428e-05 -5.65647e-06 -0.000350324)
(8.0596e-05 -5.30406e-06 -0.000294133)
(7.48407e-06 -0.000115125 -0.000233511)
(7.31704e-05 -0.000114627 -0.000227941)
(8.00833e-05 -0.000112562 -0.000183593)
(0.000120438 -0.00011175 -0.000173099)
(0.000108308 -0.000108507 -0.000101513)
(7.96048e-06 -0.000129484 -0.000313638)
(7.56693e-05 -0.000128765 -0.000307095)
(8.2885e-05 -0.000126116 -0.000260089)
(0.000124386 -0.000124993 -0.000248168)
(0.000111551 -0.000121045 -0.000173154)
(8.19406e-06 -8.73005e-05 -0.000327783)
(7.65382e-05 -8.67182e-05 -0.000320824)
(8.38539e-05 -8.45365e-05 -0.000272833)
(0.000125508 -8.35649e-05 -0.000260289)
(0.000112363 -8.0762e-05 -0.000183848)
(8.5322e-06 -7.98532e-05 -0.000376864)
(7.84333e-05 -7.93508e-05 -0.000369349)
(8.60384e-05 -7.74603e-05 -0.000320904)
(0.000128161 -7.65903e-05 -0.000307373)
(0.00011443 -7.40944e-05 -0.000228269)
(8.6895e-06 -9.60304e-06 -0.000384858)
(7.89311e-05 -9.44423e-06 -0.000377168)
(8.66144e-05 -9.1005e-06 -0.000328184)
(0.000128875 -8.86153e-06 -0.000314235)
(0.000114923 -8.37966e-06 -0.000234158)
(1.02488e-05 -0.000162723 -0.000387412)
(0.000100452 -0.000161379 -0.000377822)
(0.000109975 -0.000157215 -0.000314621)
(0.000165777 -0.000155136 -0.000297129)
(0.000149196 -0.000149351 -0.000195465)
(1.15703e-05 -0.000184115 -0.000498923)
(0.000105829 -0.000182275 -0.000488718)
(0.000116069 -0.000176887 -0.000423007)
(0.000173434 -0.000174073 -0.000403782)
(0.000154981 -0.000166416 -0.000297302)
(1.20986e-05 -0.000122823 -0.000520226)
(0.000107679 -0.000121488 -0.000509292)
(0.000118175 -0.000118895 -0.000443518)
(0.000176248 -0.000116785 -0.000423319)
(0.00015706 -0.000110684 -0.000315107)
(1.29173e-05 -0.000111809 -0.000590276)
(0.000109757 -0.000110752 -0.00057871)
(0.000120771 -0.000108694 -0.000509482)
(0.000181647 -0.000106839 -0.000489207)
(0.000161231 -0.000101457 -0.000378505)
(1.31679e-05 -1.41318e-05 -0.000602596)
(0.000110795 -1.38783e-05 -0.000590797)
(0.000122088 -1.30664e-05 -0.000520917)
(0.000183486 -1.25313e-05 -0.000499902)
(0.000162572 -1.11945e-05 -0.000388606)
(1.70133e-05 -0.000229385 -0.000266775)
(0.000145963 -0.000228244 -0.000254088)
(0.000160776 -0.000223569 -0.000168525)
(0.000239616 -0.000220982 -0.000144497)
(0.000212411 -0.000212781 -6.05563e-06)
(1.80893e-05 -0.000262325 -0.000427565)
(0.000151585 -0.000260261 -0.000411672)
(0.00016782 -0.000255039 -0.000318418)
(0.000250116 -0.000251208 -0.000290768)
(0.000220612 -0.00024071 -0.000144629)
(1.90593e-05 -0.000178654 -0.000461253)
(0.000153247 -0.000176711 -0.000444663)
(0.000169827 -0.000171011 -0.000348037)
(0.000253945 -0.000168989 -0.000318764)
(0.000223197 -0.000161964 -0.000169009)
(2.0031e-05 -0.000162224 -0.000566384)
(0.000159228 -0.000160856 -0.000547887)
(0.000175542 -0.00015486 -0.000444818)
(0.000259165 -0.000153173 -0.000412177)
(0.000227855 -0.000147593 -0.000254668)
(2.04259e-05 -2.19981e-05 -0.000586406)
(0.000160611 -2.16036e-05 -0.000567046)
(0.00017751 -2.06244e-05 -0.000462036)
(0.000261213 -1.96449e-05 -0.000428693)
(0.000228971 -1.85669e-05 -0.000267932)
(2.28721e-05 -0.000327614 -0.000552443)
(0.000198701 -0.000322987 -0.000529634)
(0.000219564 -0.000310883 -0.000411291)
(0.000328278 -0.000305061 -0.000371752)
(0.000291026 -0.00029131 -0.000176714)
(2.74325e-05 -0.000378631 -0.000782632)
(0.000214975 -0.000372887 -0.000756)
(0.000236972 -0.000356433 -0.000625072)
(0.000347257 -0.000348374 -0.000580003)
(0.000304777 -0.000329401 -0.000372117)
(2.86691e-05 -0.000261641 -0.000839102)
(0.000220895 -0.000257701 -0.00081031)
(0.000244073 -0.000245293 -0.000674228)
(0.00035531 -0.000238193 -0.000625616)
(0.000310593 -0.000220721 -0.00041221)
(3.1419e-05 -0.000236962 -0.00098389)
(0.000231323 -0.000233134 -0.000952404)
(0.00025648 -0.000222692 -0.000810711)
(0.000371834 -0.000216767 -0.000756951)
(0.000322767 -0.000200379 -0.000530929)
(3.25467e-05 -3.41414e-05 -0.00101831)
(0.000235165 -3.30146e-05 -0.000984878)
(0.000260439 -3.02423e-05 -0.000840498)
(0.000377628 -2.90069e-05 -0.000784575)
(0.000327439 -2.441e-05 -0.000554703)
(3.97808e-05 -0.000465463 -0.000350851)
(0.000287116 -0.000460389 -0.000317073)
(0.000318658 -0.000442803 -0.000145337)
(0.000474241 -0.000434512 -9.22029e-05)
(0.000412335 -0.000413068 0.000178154)
(4.46625e-05 -0.000549045 -0.000693776)
(0.000309147 -0.000540997 -0.000651319)
(0.000343817 -0.000518032 -0.000462432)
(0.000503125 -0.000505126 -0.00039162)
(0.000433779 -0.000476254 -9.25463e-05)
(4.7805e-05 -0.000379912 -0.00078707)
(0.000318123 -0.000373115 -0.000739706)
(0.00035452 -0.00035665 -0.000540885)
(0.000516019 -0.000345937 -0.000463024)
(0.000442057 -0.000320777 -0.000146305)
(5.14524e-05 -0.00034143 -0.0010058)
(0.000332409 -0.000335427 -0.000951479)
(0.000370995 -0.000321132 -0.000740087)
(0.000539006 -0.000312134 -0.000652269)
(0.000459656 -0.000290088 -0.00031845)
(5.38163e-05 -5.65087e-05 -0.00106455)
(0.000338421 -5.415e-05 -0.0010069)
(0.000377813 -5.04843e-05 -0.000788581)
(0.000547069 -4.73364e-05 -0.000695855)
(0.000464734 -4.24151e-05 -0.000353422)
(5.66239e-05 -0.000679174 -0.000862194)
(0.000404212 -0.000665655 -0.000805275)
(0.000444427 -0.000635872 -0.000572814)
(0.000651835 -0.000611985 -0.000477923)
(0.000568 -0.000568623 -0.000104636)
(6.9873e-05 -0.000814928 -0.00132935)
(0.000446316 -0.000795597 -0.0012584)
(0.000496664 -0.000752054 -0.00100078)
(0.000717211 -0.000719264 -0.000886466)
(0.000611362 -0.000653926 -0.000478723)
(7.6008e-05 -0.000573656 -0.00148662)
(0.000467076 -0.000557853 -0.00140387)
(0.000520748 -0.000522942 -0.0011313)
(0.000749963 -0.000498835 -0.00100164)
(0.000635211 -0.000446618 -0.000574465)
(8.57494e-05 -0.000514438 -0.00179128)
(0.000497035 -0.000500333 -0.00169736)
(0.000555682 -0.000470385 -0.00140468)
(0.000793548 -0.000449595 -0.00126002)
(0.000665013 -0.000407493 -0.000807639)
(9.0196e-05 -9.28505e-05 -0.00189644)
(0.000511129 -8.83974e-05 -0.00179285)
(0.000571481 -7.86208e-05 -0.00148905)
(0.000812865 -7.24654e-05 -0.0013326)
(0.000678511 -5.91649e-05 -0.000866223)
(9.66672e-05 -0.000945045 -0.000535791)
(0.000576504 -0.000925566 -0.000452973)
(0.000646009 -0.00088199 -0.000127903)
(0.000942516 -0.000853736 1.06975e-05)
(0.000795212 -0.000796744 0.000506348)
(0.000115519 -0.00117361 -0.00123509)
(0.000637725 -0.00113973 -0.00111814)
(0.000715746 -0.00107664 -0.000746295)
(0.0010253 -0.00102896 -0.000564257)
(0.000852204 -0.000946181 9.84908e-06)
(0.000130459 -0.000841839 -0.00149993)
(0.000673454 -0.000812076 -0.00136236)
(0.000756748 -0.000760544 -0.000954953)
(0.00107298 -0.00071949 -0.000747184)
(0.00088045 -0.000649692 -0.000129718)
(0.000145214 -0.00075126 -0.00196574)
(0.000719019 -0.000724416 -0.00179984)
(0.000808333 -0.000678891 -0.00136325)
(0.00113618 -0.0006431 -0.00111986)
(0.000924094 -0.000581853 -0.00045558)
(0.000157256 -0.000161835 -0.00215122)
(0.000745822 -0.000149782 -0.00196738)
(0.000838065 -0.000134973 -0.00150251)
(0.00117004 -0.000120002 -0.00123851)
(0.00094353 -0.000101064 -0.000540202)
(0.000139202 -0.00139666 -0.00139979)
(0.00081209 -0.00134824 -0.00124843)
(0.000908071 -0.00127034 -0.000818046)
(0.00128622 -0.00120187 -0.000583786)
(0.00107639 -0.00107786 9.50203e-05)
(0.000186637 -0.00177924 -0.00236361)
(0.000935102 -0.00170515 -0.00216311)
(0.00105052 -0.00157925 -0.00165684)
(0.00147349 -0.00147728 -0.00135923)
(0.0012004 -0.00129013 -0.000585329)
(0.000213338 -0.00130429 -0.00283134)
(0.00101204 -0.00123952 -0.00257791)
(0.00113589 -0.00113986 -0.002018)
(0.00157534 -0.0010544 -0.00165806)
(0.00126876 -0.00091202 -0.000820948)
(0.00025153 -0.00116575 -0.0034935)
(0.00109954 -0.00110536 -0.00319572)
(0.00123564 -0.00101793 -0.00257966)
(0.00170139 -0.000940913 -0.00216594)
(0.00134671 -0.000817966 -0.00125282)
(0.000273837 -0.00027836 -0.00384579)
(0.00115986 -0.000256021 -0.00349554)
(0.00130033 -0.000217755 -0.00283533)
(0.00177535 -0.000190983 -0.00236871)
(0.00139501 -0.000143437 -0.00140668)
(0.000247833 -0.00193568 -0.000878991)
(0.00115829 -0.00186572 -0.000662709)
(0.00131066 -0.00174393 -3.27885e-05)
(0.00185577 -0.00165067 0.000284959)
(0.00149226 -0.00149533 0.00120464)
(0.000315611 -0.00260548 -0.00233044)
(0.00134452 -0.00246951 -0.0019888)
(0.00151962 -0.00227689 -0.00126303)
(0.00209707 -0.00210348 -0.000791313)
(0.0016476 -0.00186233 0.000282975)
(0.000383462 -0.00197171 -0.00314009)
(0.00148682 -0.00184467 -0.00270188)
(0.0016766 -0.00168337 -0.00184295)
(0.00227032 -0.00152619 -0.0012642)
(0.0017407 -0.00131719 -3.61175e-05)
(0.000442397 -0.00176572 -0.00419746)
(0.00163287 -0.00164206 -0.00363383)
(0.0018381 -0.00149625 -0.00270399)
(0.00246333 -0.00135378 -0.00199194)
(0.00186269 -0.00116762 -0.000667907)
(0.000506888 -0.000514751 -0.00486456)
(0.00175629 -0.000450184 -0.0041997)
(0.00196487 -0.00039108 -0.0031445)
(0.00259901 -0.000323127 -0.00233594)
(0.00193238 -0.000255121 -0.000886739)
(0.000354697 -0.00288766 -0.00225521)
(0.00165824 -0.00271089 -0.00185292)
(0.00185564 -0.00253363 -0.00106076)
(0.00252396 -0.0023074 -0.000491073)
(0.00202018 -0.00202362 0.000675332)
(0.000527692 -0.00404083 -0.00423897)
(0.00200251 -0.00374475 -0.0036641)
(0.00224792 -0.00338974 -0.0026803)
(0.00301979 -0.00302674 -0.00191767)
(0.00230396 -0.0025312 -0.00049408)
(0.000650791 -0.00317124 -0.0056695)
(0.00230921 -0.00288449 -0.00485315)
(0.00257348 -0.00258074 -0.00367989)
(0.0033825 -0.00225494 -0.00268165)
(0.0025299 -0.0018628 -0.00106563)
(0.000814746 -0.00289026 -0.00720343)
(0.00259303 -0.0026032 -0.00619444)
(0.00287747 -0.00231951 -0.00485706)
(0.0037379 -0.00201265 -0.00366884)
(0.00270731 -0.00166854 -0.00186075)
(0.000938057 -0.000945748 -0.00852569)
(0.00287996 -0.000822432 -0.00720494)
(0.00316402 -0.000658347 -0.00567574)
(0.0040336 -0.000535094 -0.00424619)
(0.00288377 -0.000361858 -0.00226631)
(0.000649551 -0.00397813 -0.00144517)
(0.00235286 -0.00373071 -0.000872044)
(0.00267252 -0.00341111 0.000324168)
(0.00359214 -0.0031193 0.00105065)
(0.00269193 -0.00269802 0.00270384)
(0.000889225 -0.00602051 -0.00448665)
(0.00290321 -0.0054704 -0.00344973)
(0.00326599 -0.00489665 -0.00206726)
(0.00428378 -0.00429456 -0.000847617)
(0.0031132 -0.00360358 0.00104652)
(0.00119839 -0.00493624 -0.00706338)
(0.0034765 -0.00437501 -0.0055756)
(0.00384809 -0.00386013 -0.00369983)
(0.00488521 -0.0032773 -0.00206854)
(0.00340435 -0.00268387 0.000318329)
(0.00144948 -0.00462211 -0.00971125)
(0.00397935 -0.00399397 -0.00762512)
(0.00436369 -0.00349218 -0.00558013)
(0.00546032 -0.00291834 -0.00345534)
(0.00372458 -0.00236842 -0.00088205)
(0.00182549 -0.00183922 -0.0124152)
(0.00460644 -0.00146289 -0.00971446)
(0.0049237 -0.00121118 -0.00707063)
(0.00600918 -0.000901628 -0.00449515)
(0.00397093 -0.00066126 -0.00145818)
(0.000925762 -0.00601633 -0.00328892)
(0.00342738 -0.00536442 -0.00225747)
(0.0037781 -0.00499224 -0.00084892)
(0.00490437 -0.00426023 0.000378843)
(0.00371766 -0.00372524 0.00225591)
(0.00156329 -0.00966022 -0.00734876)
(0.00442185 -0.00844921 -0.00571174)
(0.00484985 -0.00741452 -0.00384929)
(0.00613419 -0.00614655 -0.00202166)
(0.00425265 -0.00491745 0.00037298)
(0.00213697 -0.00839575 -0.0117997)
(0.00567272 -0.00705971 -0.00905754)
(0.0060803 -0.00609337 -0.00652404)
(0.00740144 -0.00486247 -0.00384977)
(0.00498394 -0.00379114 -0.000856461)
(0.00290045 -0.00824214 -0.0157756)
(0.00672407 -0.00674199 -0.01212)
(0.00704708 -0.00569027 -0.00906648)
(0.00843688 -0.00443921 -0.00571948)
(0.00535643 -0.00344485 -0.00227104)
(0.0036383 -0.0036508 -0.0214661)
(0.00822459 -0.00291346 -0.0157725)
(0.00838324 -0.00214976 -0.0118086)
(0.00964723 -0.00157591 -0.00735705)
(0.00600791 -0.00093798 -0.00330546)
(0.00167967 -0.00816562 -0.00187231)
(0.00479313 -0.00729558 -0.000375503)
(0.00530873 -0.00650626 0.00169729)
(0.00669715 -0.00559584 0.00328223)
(0.00462587 -0.00463786 0.00585336)
(0.00252275 -0.0145331 -0.00815969)
(0.00640272 -0.012272 -0.00504134)
(0.00695601 -0.010573 -0.00258776)
(0.00850677 -0.0085239 0.000350506)
(0.00558385 -0.00671613 0.00327375)
(0.00393654 -0.0133646 -0.0163392)
(0.00875251 -0.0107839 -0.011173)
(0.00905618 -0.00907764 -0.00697402)
(0.010554 -0.00697506 -0.00258871)
(0.0064924 -0.00532779 0.00168816)
(0.00510001 -0.0142895 -0.0240651)
(0.0106888 -0.0107092 -0.0158162)
(0.0107648 -0.00877705 -0.0111817)
(0.0122573 -0.00642565 -0.00505106)
(0.00728359 -0.00481769 -0.000393639)
(0.00751391 -0.0075398 -0.0362647)
(0.014265 -0.00512484 -0.0240709)
(0.0133406 -0.00395838 -0.01635)
(0.0145141 -0.00254315 -0.00817273)
(0.00815011 -0.00169776 -0.00189244)
(0.00241848 -0.0124964 -0.00334374)
(0.00699687 -0.0101804 -0.000891895)
(0.00743578 -0.00940591 0.00130984)
(0.00906199 -0.0072845 0.00364238)
(0.00636162 -0.00637771 0.00612398)
(0.00467956 -0.0241282 -0.0112618)
(0.00999332 -0.0192475 -0.00686687)
(0.0102414 -0.0160871 -0.00357961)
(0.0119968 -0.0120186 0.000240031)
(0.00726841 -0.00908419 0.00363229)
(0.00730234 -0.0243033 -0.0248606)
(0.0150368 -0.0178353 -0.0156349)
(0.0146642 -0.014687 -0.0100873)
(0.0160649 -0.0102638 -0.00357706)
(0.00938941 -0.00745847 0.00129902)
(0.0111545 -0.028164 -0.0369561)
(0.0196054 -0.0196379 -0.0230801)
(0.017813 -0.0150652 -0.0156538)
(0.0192258 -0.0100228 -0.00687872)
(0.010164 -0.00702534 -0.000912999)
(0.0158525 -0.0158706 -0.0647985)
(0.0281356 -0.0111758 -0.0369366)
(0.0242835 -0.00732349 -0.0248695)
(0.0241059 -0.00470105 -0.0112672)
(0.0124808 -0.0024393 -0.00336458)
(0.00412816 -0.0163561 0.000634867)
(0.00944587 -0.0134841 0.00389103)
(0.00984219 -0.0115638 0.00683877)
(0.011511 -0.00911776 0.00949754)
(0.00719063 -0.00721275 0.0122344)
(0.00691069 -0.0360522 -0.0113395)
(0.0140846 -0.0270174 -0.00303527)
(0.0140636 -0.0219717 0.000616272)
(0.015719 -0.0157436 0.0061796)
(0.00909563 -0.0115408 0.00948236)
(0.0131563 -0.0390701 -0.0355467)
(0.0235243 -0.0270033 -0.0185224)
(0.0211168 -0.0211546 -0.00921532)
(0.0219419 -0.0140945 0.00061692)
(0.0115365 -0.00987225 0.00682419)
(0.0189929 -0.0542129 -0.0646665)
(0.0319823 -0.0320022 -0.0294738)
(0.0269724 -0.0235578 -0.0185408)
(0.0270004 -0.0141156 -0.00305134)
(0.0134628 -0.00948044 0.00385949)
(0.0354443 -0.0355043 -0.13089)
(0.0541794 -0.0190505 -0.0646761)
(0.0390212 -0.0131962 -0.0355586)
(0.0360213 -0.00694506 -0.0113594)
(0.0163251 -0.00415646 0.00060876)
(0.00567163 -0.0248782 0.00301903)
(0.0132017 -0.0173626 0.00712825)
(0.0130433 -0.0158394 0.00979933)
(0.0144594 -0.0107287 0.0125964)
(0.0091899 -0.00922127 0.014623)
(0.0129846 -0.0603012 -0.00870552)
(0.0219455 -0.0416574 6.44462e-05)
(0.0194581 -0.0321419 0.00434711)
(0.0208647 -0.0209011 0.00978458)
(0.0106973 -0.0144962 0.0125797)
(0.0243596 -0.0776448 -0.0429015)
(0.0413492 -0.0442731 -0.0176477)
(0.0338057 -0.0338462 -0.00694177)
(0.0321051 -0.0194965 0.00435384)
(0.0158076 -0.0130823 0.00978574)
(0.0465084 -0.123364 -0.0867682)
(0.0656937 -0.0657548 -0.0360833)
(0.0442346 -0.0413895 -0.0176776)
(0.0416224 -0.0219955 4.6894e-05)
(0.0173306 -0.0132417 0.00709574)
(0.0830425 -0.0830547 -0.214587)
(0.123323 -0.0465401 -0.0867141)
(0.077615 -0.0243948 -0.0428965)
(0.0602647 -0.0130228 -0.0087071)
(0.0248564 -0.00570406 0.00299817)
(0.00823185 -0.0285743 0.0173494)
(0.016223 -0.0208753 0.0211774)
(0.0153116 -0.0172454 0.022381)
(0.0163359 -0.012066 0.0239096)
(0.00930004 -0.00933891 0.0236781)
(0.0156871 -0.0819349 0.00482672)
(0.0271231 -0.0517882 0.0167344)
(0.0237869 -0.0387104 0.0191384)
(0.0239514 -0.023986 0.0235276)
(0.0120272 -0.0163793 0.0238884)
(0.0385126 -0.116587 -0.0450452)
(0.0594331 -0.0631598 -0.00593781)
(0.0431281 -0.0431891 0.0079634)
(0.038667 -0.0238354 0.0191443)
(0.0171976 -0.0153575 0.0223627)
(0.0716422 -0.24997 -0.177692)
(0.100774 -0.10077 -0.0269665)
(0.0631109 -0.059462 -0.00598609)
(0.0517686 -0.0271624 0.0167092)
(0.0208391 -0.0162648 0.0211316)
(0.169782 -0.148773 -0.523076)
(0.249893 -0.0718837 -0.177667)
(0.116484 -0.0385999 -0.04503)
(0.0818782 -0.0157452 0.00479695)
(0.0285238 -0.0082769 0.0173194)
(0.00951121 -0.0380069 0.0326861)
(0.0182288 -0.0220599 0.0314211)
(0.0157755 -0.0192665 0.0315711)
(0.0157545 -0.0111781 0.0302548)
(0.00898505 -0.00903776 0.0288602)
(0.0249697 -0.122078 0.0398944)
(0.0362108 -0.068748 0.0366288)
(0.026251 -0.0465521 0.0342325)
(0.0256104 -0.0256619 0.033472)
(0.0111254 -0.0158096 0.0302319)
(0.0643058 -0.200558 0.0318827)
(0.0940977 -0.086834 0.0305701)
(0.0588923 -0.0589755 0.0353863)
(0.046497 -0.0263146 0.0342394)
(0.0192102 -0.0158392 0.031554)
(0.112079 -0.469138 -0.0699813)
(0.212325 -0.212376 -0.00880519)
(0.086774 -0.0941226 0.030583)
(0.0687158 -0.0362966 0.0366087)
(0.0220072 -0.0182806 0.0313846)
(0.414836 -1.16164 -0.958811)
(0.507615 -0.291519 -0.201185)
(0.200616 -0.0643555 0.0319667)
(0.121998 -0.0250468 0.0398638)
(0.037985 -0.00956327 0.032674)
(0.00699531 -0.0214849 0.0736664)
(0.0151291 -0.0157868 0.0616736)
(0.014156 -0.0146298 0.052434)
(0.0136267 -0.00883515 0.0454406)
(0.0078769 -0.00793875 0.0377935)
(0.0124474 -0.0784616 0.101115)
(0.021391 -0.0518586 0.0775598)
(0.0206225 -0.034839 0.0678972)
(0.0199485 -0.0199989 0.0531642)
(0.00877329 -0.013687 0.0454218)
(0.0377319 -0.104685 0.2269)
(0.0603055 -0.0670053 0.13891)
(0.0459392 -0.0459788 0.100959)
(0.0347787 -0.0206911 0.067911)
(0.0145579 -0.0142155 0.0524192)
(0.100412 -0.535908 0.330047)
(0.1829 -0.264723 0.242283)
(0.0670242 -0.0602517 0.138817)
(0.051791 -0.0214686 0.0775344)