/*--------------------------------*- C++ -*----------------------------------*\
| =========                 |                                                 |
| \\      /  F ield         | OpenFOAM: The Open Source CFD Toolbox           |
|  \\    /   O peration     | Version:  5.x                                   |
|   \\  /    A nd           | Web:      www.OpenFOAM.org                      |
|    \\/     M anipulation  |                                                 |
\*---------------------------------------------------------------------------*/
FoamFile
{
    version     2.0;
    format      ascii;
    class       surfaceScalarField;
    location    "0.015";
    object      phi;
}
// * * * * * * * * * * * * * * * * * * * * * * * * * * * * * * * * * * * * * //

dimensions      [0 3 -1 0 0 0 0];

internalField   nonuniform List<scalar> 
4318
(
1.47497e-09
-5.09753e-09
-3.62815e-10
3.23249e-09
-5.10972e-09
-4.32097e-10
3.83029e-09
-5.0256e-09
7.10353e-10
4.59218e-09
-5.01066e-09
5.44368e-10
-4.9198e-09
2.49962e-09
1.52734e-09
-4.34278e-09
-2.50366e-09
3.31354e-09
-4.34951e-09
-2.54026e-09
3.92125e-09
-4.27222e-09
-1.35426e-09
4.68225e-09
-4.26025e-09
-1.50482e-09
-4.17444e-09
4.93371e-10
1.52021e-09
-3.7688e-09
-2.3425e-09
3.32143e-09
-3.76079e-09
-2.38519e-09
3.93389e-09
-3.6892e-09
-1.18906e-09
4.6987e-09
-3.6734e-09
-1.34541e-09
-3.60181e-09
6.66658e-10
1.58161e-09
-1.94852e-09
-3.59891e-09
3.39339e-09
-1.94446e-09
-3.6258e-09
4.00446e-09
-1.8845e-09
-2.41014e-09
4.77135e-09
-1.87541e-09
-2.55871e-09
-1.81673e-09
-5.26232e-10
1.58493e-09
-3.55182e-09
3.40771e-09
-3.58856e-09
4.01676e-09
-2.36621e-09
4.78554e-09
-2.52036e-09
-4.78626e-10
1.12999e-09
-3.83364e-09
-1.20512e-09
2.65751e-09
-3.76435e-09
-8.88835e-10
3.42912e-09
-3.6954e-09
9.92283e-10
3.49526e-09
-3.66811e-09
1.5242e-09
-3.62445e-09
4.50946e-09
1.28541e-09
-3.89543e-09
-4.25691e-09
2.75094e-09
-3.82379e-09
-3.93816e-09
3.49707e-09
-3.75352e-09
-2.03411e-09
3.5441e-09
-3.72197e-09
-1.49001e-09
-3.67848e-09
1.54172e-09
1.3464e-09
-3.23283e-09
-4.79366e-09
2.78899e-09
-3.1678e-09
-4.47615e-09
3.52491e-09
-3.10469e-09
-2.56561e-09
3.56075e-09
-3.07508e-09
-2.0203e-09
-3.03564e-09
1.02459e-09
1.45034e-09
-1.87898e-09
-6.69117e-09
2.85918e-09
-1.82374e-09
-6.37391e-09
3.57723e-09
-1.7753e-09
-4.45022e-09
3.59914e-09
-1.75041e-09
-3.89752e-09
-1.72466e-09
-8.24006e-10
1.50663e-09
-6.98133e-09
2.89723e-09
-6.66835e-09
3.60353e-09
-4.74307e-09
3.61376e-09
-4.19135e-09
-1.11117e-09
2.19977e-09
-6.25769e-09
-2.13977e-09
4.34818e-09
-6.26183e-09
-1.63868e-09
5.2832e-09
-6.18657e-09
1.44028e-09
5.86011e-09
-6.16897e-09
2.32865e-09
-6.07131e-09
7.18967e-09
2.24356e-09
-5.691e-09
-7.19891e-09
4.42553e-09
-5.6917e-09
-6.68409e-09
5.37571e-09
-5.6198e-09
-3.54483e-09
5.95643e-09
-5.6038e-09
-2.62974e-09
-5.51117e-09
2.32702e-09
2.2417e-09
-4.74752e-09
-8.12252e-09
4.43612e-09
-4.7471e-09
-7.60921e-09
5.39255e-09
-4.68073e-09
-4.4548e-09
5.97724e-09
-4.66663e-09
-3.5361e-09
-4.58573e-09
1.44696e-09
2.28796e-09
-2.53677e-09
-1.13141e-08
4.50007e-09
-2.5359e-09
-1.07933e-08
5.46207e-09
-2.48616e-09
-7.60118e-09
6.04784e-09
-2.47795e-09
-6.66608e-09
-2.42299e-09
-1.62284e-09
2.28962e-09
-1.18145e-08
4.50939e-09
-1.12967e-08
5.47448e-09
-8.09728e-09
6.06263e-09
-7.16117e-09
-2.10365e-09
2.59589e-09
-8.08858e-09
-3.56808e-09
5.49059e-09
-8.02449e-09
-2.73438e-09
6.81902e-09
-7.90004e-09
1.88064e-09
7.53674e-09
-7.85365e-09
3.36956e-09
-7.72319e-09
1.0585e-08
2.76536e-09
-7.45228e-09
-1.10483e-08
5.64618e-09
-7.38848e-09
-1.01968e-08
6.96627e-09
-7.26941e-09
-5.49124e-09
7.67177e-09
-7.22344e-09
-3.96111e-09
-7.09977e-09
3.40892e-09
2.81311e-09
-6.18225e-09
-1.26045e-08
5.69136e-09
-6.12408e-09
-1.17479e-08
7.00841e-09
-6.0194e-09
-7.01754e-09
7.70879e-09
-5.97848e-09
-5.47727e-09
-5.87338e-09
1.93508e-09
2.93256e-09
-3.34799e-09
-1.73489e-08
5.80294e-09
-3.30233e-09
-1.6483e-08
7.1118e-09
-3.22919e-09
-1.16965e-08
7.80281e-09
-3.20088e-09
-1.01308e-08
-3.13586e-09
-2.62013e-09
2.97692e-09
-1.81929e-08
5.84129e-09
-1.73245e-08
7.14402e-09
-1.25266e-08
7.82864e-09
-1.09557e-08
-3.42321e-09
4.35029e-09
-1.19208e-08
-5.46712e-09
8.42666e-09
-1.18996e-08
-4.24003e-09
1.02498e-08
-1.17575e-08
2.59593e-09
1.13515e-08
-1.17085e-08
4.79839e-09
-1.15022e-08
1.55252e-08
4.44221e-09
-1.08089e-08
-1.67129e-08
8.58703e-09
-1.07882e-08
-1.54514e-08
1.04432e-08
-1.06558e-08
-8.44717e-09
1.15573e-08
-1.06111e-08
-6.17042e-09
-1.04187e-08
4.8296e-09
4.45651e-09
-8.93623e-09
-1.905e-08
8.62213e-09
-8.91965e-09
-1.77805e-08
1.04881e-08
-8.80575e-09
-1.07316e-08
1.16078e-08
-8.76872e-09
-8.43752e-09
-8.60873e-09
2.63794e-09
4.52612e-09
-4.72316e-09
-2.61861e-08
8.73532e-09
-4.7151e-09
-2.48965e-08
1.06188e-08
-4.64569e-09
-1.77387e-08
1.17463e-08
-4.62656e-09
-1.5399e-08
-4.5342e-09
-4.14901e-09
4.53477e-09
-2.74615e-08
8.75591e-09
-2.61659e-08
1.06447e-08
-1.89856e-08
1.17758e-08
-1.66363e-08
-5.34675e-09
6.05798e-09
-1.71136e-08
-8.27248e-09
1.19438e-08
-1.70365e-08
-6.47829e-09
1.45982e-08
-1.67906e-08
3.52825e-09
1.61864e-08
-1.66916e-08
6.77444e-09
-1.63535e-08
2.24456e-08
6.26223e-09
-1.55397e-08
-2.48557e-08
1.22345e-08
-1.54659e-08
-2.29951e-08
1.49272e-08
-1.52388e-08
-1.26923e-08
1.65275e-08
-1.51449e-08
-9.31789e-09
-1.48308e-08
6.82525e-09
6.31762e-09
-1.28432e-08
-2.83472e-08
1.23167e-08
-1.27776e-08
-2.6469e-08
1.50182e-08
-1.2585e-08
-1.60876e-08
1.66204e-08
-1.25048e-08
-1.26804e-08
-1.22448e-08
3.59214e-09
6.45929e-09
-6.79664e-09
-3.88943e-08
1.25139e-08
-6.75524e-09
-3.69761e-08
1.52362e-08
-6.64042e-09
-2.64069e-08
1.68476e-08
-6.59497e-09
-2.29212e-08
-6.44907e-09
-6.34644e-09
6.49987e-09
-4.08056e-08
1.25674e-08
-3.88743e-08
1.52916e-08
-2.82635e-08
1.69027e-08
-2.47606e-08
-8.11606e-09
9.21265e-09
-2.50694e-08
-1.22713e-08
1.76893e-08
-2.49917e-08
-9.66627e-09
2.15057e-08
-2.46288e-08
4.91375e-09
2.38292e-08
-2.44856e-08
9.62555e-09
-2.39344e-08
3.25225e-08
9.44376e-09
-2.26796e-08
-3.67719e-08
1.81105e-08
-2.26097e-08
-3.4047e-08
2.2021e-08
-2.2273e-08
-1.89616e-08
2.43805e-08
-2.21429e-08
-1.40228e-08
-2.16291e-08
9.67368e-09
9.49628e-09
-1.86861e-08
-4.19263e-08
1.8215e-08
-1.86309e-08
-3.91702e-08
2.21509e-08
-1.83514e-08
-2.3948e-08
2.45238e-08
-1.82461e-08
-1.89529e-08
-1.78276e-08
4.97188e-09
9.65122e-09
-9.81968e-09
-5.74883e-08
1.84945e-08
-9.79499e-09
-5.46608e-08
2.24861e-08
-9.64188e-09
-3.91119e-08
2.48835e-08
-9.58769e-09
-3.39801e-08
-9.36112e-09
-9.5448e-09
9.67677e-09
-6.03226e-08
1.85506e-08
-5.7473e-08
2.25571e-08
-4.18515e-08
2.49635e-08
-3.66884e-08
-1.21294e-08
1.33271e-08
-3.67239e-08
-1.80931e-08
2.56548e-08
-3.65623e-08
-1.43121e-08
3.12251e-08
-3.59245e-08
6.86658e-09
3.45825e-08
-3.56564e-08
1.37273e-08
-3.46971e-08
4.69575e-08
1.37472e-08
-3.32486e-08
-5.4166e-08
2.63974e-08
-3.30981e-08
-5.01659e-08
3.21192e-08
-3.25202e-08
-2.80922e-08
3.55434e-08
-3.22676e-08
-2.08402e-08
-3.13813e-08
1.37848e-08
1.38629e-08
-2.74007e-08
-6.18022e-08
2.66116e-08
-2.72732e-08
-5.77492e-08
3.23701e-08
-2.67927e-08
-3.54385e-08
3.58081e-08
-2.65792e-08
-2.80834e-08
-2.58525e-08
6.93357e-09
1.41333e-08
-1.43961e-08
-8.47518e-08
2.70949e-08
-1.43336e-08
-8.05694e-08
3.29436e-08
-1.40762e-08
-5.76825e-08
3.64363e-08
-1.39652e-08
-5.0091e-08
-1.35739e-08
-1.41753e-08
1.41964e-08
-8.89533e-08
2.72164e-08
-8.47422e-08
3.30851e-08
-6.17252e-08
3.65869e-08
-5.40808e-08
-1.79445e-08
1.96367e-08
-5.38091e-08
-2.65083e-08
3.75087e-08
-5.35618e-08
-2.09895e-08
4.56076e-08
-5.2553e-08
9.71159e-09
5.04975e-08
-5.21148e-08
1.96852e-08
-5.05579e-08
6.79057e-08
2.02754e-08
-4.87039e-08
-7.95829e-08
3.86973e-08
-4.84817e-08
-7.36729e-08
4.70663e-08
-4.75424e-08
-4.14767e-08
5.20547e-08
-4.71414e-08
-3.08069e-08
-4.56842e-08
1.97443e-08
2.0448e-08
-4.00815e-08
-9.09192e-08
3.90289e-08
-3.98957e-08
-8.49214e-08
4.7467e-08
-3.91162e-08
-5.23076e-08
5.24925e-08
-3.8784e-08
-4.1471e-08
-3.75982e-08
9.77715e-09
2.08685e-08
-2.10554e-08
-1.24689e-07
3.98086e-08
-2.0967e-08
-1.18445e-07
4.84055e-08
-2.0548e-08
-8.48528e-08
5.34993e-08
-2.03742e-08
-7.3599e-08
-1.97405e-08
-2.08526e-08
2.09577e-08
-1.30983e-07
3.9995e-08
-1.24686e-07
4.86277e-08
-9.08463e-08
5.37465e-08
-7.95034e-08
-2.63637e-08
2.85208e-08
-7.92144e-08
-3.86228e-08
5.4435e-08
-7.87642e-08
-3.05499e-08
6.62597e-08
-7.69245e-08
1.37849e-08
7.32943e-08
-7.6147e-08
2.83622e-08
-7.33456e-08
9.80097e-08
2.96836e-08
-7.18136e-08
-1.16717e-07
5.65781e-08
-7.13857e-08
-1.0795e-07
6.88746e-08
-6.96895e-08
-6.10127e-08
7.60966e-08
-6.89491e-08
-4.52315e-08
-6.63381e-08
2.84292e-08
3.00073e-08
-5.90666e-08
-1.33729e-07
5.72029e-08
-5.87177e-08
-1.24789e-07
6.96142e-08
-5.72972e-08
-7.71151e-08
7.68724e-08
-5.66726e-08
-6.10097e-08
-5.45372e-08
1.38553e-08
3.07663e-08
-3.1047e-08
-1.83518e-07
5.86249e-08
-3.08786e-08
-1.74148e-07
7.13085e-08
-3.01253e-08
-1.24712e-07
7.87076e-08
-2.98032e-08
-1.07871e-07
-2.86544e-08
-3.04013e-08
3.09347e-08
-1.92971e-07
5.89714e-08
-1.83527e-07
7.17322e-08
-1.3366e-07
7.91525e-08
-1.16644e-07
-3.84804e-08
4.16592e-08
-1.16137e-07
-5.60961e-08
7.92313e-08
-1.15364e-07
-4.41922e-08
9.6474e-08
-1.12459e-07
1.97247e-08
1.06616e-07
-1.11128e-07
4.11161e-08
-1.0663e-07
1.41596e-07
4.35159e-08
-1.05298e-07
-1.71025e-07
8.26801e-08
-1.04623e-07
-1.57859e-07
1.00702e-07
-1.01933e-07
-8.95643e-08
1.11115e-07
-1.00733e-07
-6.60425e-08
-9.65058e-08
4.11891e-08
4.40146e-08
-8.64907e-08
-1.96521e-07
8.36497e-08
-8.59244e-08
-1.83124e-07
1.01903e-07
-8.36885e-08
-1.13615e-07
1.12445e-07
-8.27197e-08
-8.95684e-08
-7.92737e-08
1.97936e-08
4.52309e-08
-4.5567e-08
-2.69646e-07
8.58847e-08
-4.52848e-08
-2.55443e-07
1.04591e-07
-4.4071e-08
-1.83038e-07
1.15349e-07
-4.35728e-08
-1.57778e-07
-4.17216e-08
-4.40365e-08
4.5512e-08
-2.84028e-07
8.64509e-08
-2.69675e-07
1.05266e-07
-1.96465e-07
1.1612e-07
-1.70976e-07
-5.59726e-08
6.04093e-08
-1.71189e-07
-8.0988e-08
1.14717e-07
-1.6987e-07
-6.33825e-08
1.39913e-07
-1.64641e-07
2.84045e-08
1.54356e-07
-1.62347e-07
6.00223e-08
-1.54337e-07
2.04622e-07
6.37541e-08
-1.55898e-07
-2.49993e-07
1.20882e-07
-1.54617e-07
-2.30242e-07
1.4749e-07
-1.49664e-07
-1.31152e-07
1.62367e-07
-1.47495e-07
-9.57744e-08
-1.3992e-07
6.01099e-08
6.47078e-08
-1.2812e-07
-2.88947e-07
1.22711e-07
-1.2705e-07
-2.68695e-07
1.4966e-07
-1.22724e-07
-1.67505e-07
1.6466e-07
-1.20899e-07
-1.31167e-07
-1.14739e-07
2.84778e-08
6.70615e-08
-6.76213e-08
-3.97149e-07
1.27034e-07
-6.71006e-08
-3.75364e-07
1.54611e-07
-6.47505e-08
-2.6859e-07
1.69887e-07
-6.38e-08
-2.30155e-07
-6.04666e-08
-6.32037e-08
6.75795e-08
-4.1919e-07
1.28099e-07
-3.97216e-07
1.55888e-07
-2.88912e-07
1.71201e-07
-2.49976e-07
-8.08836e-08
8.86113e-08
-2.52425e-07
-1.16496e-07
1.67593e-07
-2.50085e-07
-8.99103e-08
2.04481e-07
-2.41895e-07
4.21095e-08
2.24471e-07
-2.37761e-07
8.97064e-08
-2.24436e-07
2.97253e-07
9.41311e-08
-2.29453e-07
-3.66942e-07
1.77801e-07
-2.27749e-07
-3.3625e-07
2.17001e-07
-2.205e-07
-1.91749e-07
2.37797e-07
-2.16992e-07
-1.37341e-07
-2.04474e-07
8.98061e-08
9.51482e-08
-1.86117e-07
-4.27313e-07
1.80208e-07
-1.85342e-07
-3.9616e-07
2.20512e-07
-1.80203e-07
-2.48108e-07
2.4193e-07
-1.77804e-07
-1.91775e-07
-1.67602e-07
4.21818e-08
9.78103e-08
-9.81117e-08
-5.8287e-07
1.85342e-07
-9.78296e-08
-5.50407e-07
2.2776e-07
-9.51693e-08
-3.96042e-07
2.50121e-07
-9.41596e-08
-3.36163e-07
-8.86512e-08
-8.97166e-08
9.80839e-08
-6.15341e-07
1.86106e-07
-5.82978e-07
2.29458e-07
-4.27314e-07
2.52457e-07
-3.66984e-07
-1.16437e-07
1.30383e-07
-3.7628e-07
-1.63672e-07
2.4599e-07
-3.72035e-07
-1.23832e-07
2.99656e-07
-3.57146e-07
6.63092e-08
3.26425e-07
-3.49269e-07
1.38343e-07
-3.26306e-07
4.36258e-07
1.40331e-07
-3.4761e-07
-5.35682e-07
2.64479e-07
-3.43532e-07
-4.889e-07
3.22065e-07
-3.29517e-07
-2.76965e-07
3.49388e-07
-3.21978e-07
-1.91954e-07
-2.99574e-07
1.38481e-07
1.43711e-07
-2.88942e-07
-6.29475e-07
2.70661e-07
-2.845e-07
-5.82142e-07
3.29618e-07
-2.70499e-07
-3.66082e-07
3.57265e-07
-2.6438e-07
-2.77021e-07
-2.45928e-07
6.64015e-08
1.51965e-07
-1.54381e-07
-8.69227e-07
2.84585e-07
-1.51917e-07
-8.15608e-07
3.43622e-07
-1.43609e-07
-5.81969e-07
3.72162e-07
-1.40273e-07
-4.88809e-07
-1.30367e-07
-1.23587e-07
1.54389e-07
-9.24091e-07
2.88987e-07
-8.6942e-07
3.47691e-07
-6.29508e-07
3.76402e-07
-5.35803e-07
-1.63665e-07
1.99131e-07
-5.7386e-07
-2.22398e-07
3.70788e-07
-5.64023e-07
-1.59247e-07
4.47465e-07
-5.37651e-07
1.17833e-07
4.77775e-07
-5.19658e-07
2.28033e-07
-4.77654e-07
6.51502e-07
2.20188e-07
-5.51923e-07
-7.77404e-07
4.06705e-07
-5.39038e-07
-7.00399e-07
4.89851e-07
-5.10676e-07
-3.87084e-07
5.19784e-07
-4.89729e-07
-2.51815e-07
-4.4737e-07
2.28202e-07
2.3308e-07
-4.77144e-07
-9.3703e-07
4.31448e-07
-4.64419e-07
-8.55127e-07
5.10866e-07
-4.31189e-07
-5.24985e-07
5.37775e-07
-4.06472e-07
-3.87184e-07
-3.70694e-07
1.17935e-07
2.54569e-07
-2.62474e-07
-1.33825e-06
4.64459e-07
-2.54569e-07
-1.23534e-06
5.39144e-07
-2.32924e-07
-8.54919e-07
5.64155e-07
-2.19975e-07
-7.00314e-07
-1.99038e-07
-1.5899e-07
2.62417e-07
-1.44896e-06
4.77074e-07
-1.33853e-06
5.51913e-07
-9.37111e-07
5.73963e-07
-7.77606e-07
-2.22487e-07
3.06791e-07
-8.87597e-07
-2.77275e-07
5.58916e-07
-8.61805e-07
-1.77007e-07
6.59874e-07
-8.03262e-07
2.25033e-07
6.87361e-07
-7.63619e-07
3.85935e-07
-6.86994e-07
9.62331e-07
3.5162e-07
-9.17278e-07
-1.09871e-06
6.40308e-07
-8.76121e-07
-9.74767e-07
7.40007e-07
-7.87922e-07
-5.0212e-07
7.63995e-07
-7.39625e-07
-2.99794e-07
-6.59492e-07
3.86193e-07
3.77655e-07
-8.66591e-07
-1.36488e-06
6.87282e-07
-8.12129e-07
-1.22874e-06
7.88568e-07
-6.86862e-07
-7.27328e-07
8.03754e-07
-6.39754e-07
-5.02238e-07
-5.58387e-07
2.25183e-07
4.54341e-07
-4.78862e-07
-2.17987e-06
8.1237e-07
-4.54165e-07
-1.95133e-06
8.76492e-07
-3.77417e-07
-1.22848e-06
8.6224e-07
-3.51174e-07
-9.74638e-07
-3.0626e-07
-1.76619e-07
4.79033e-07
-2.40683e-06
8.66845e-07
-2.18043e-06
9.17459e-07
-1.365e-06
8.87839e-07
-1.09895e-06
-2.77308e-07
4.63053e-07
-1.39514e-06
-2.86031e-07
8.24414e-07
-1.31588e-06
-1.44945e-07
9.49008e-07
-1.19482e-06
4.18568e-07
9.61215e-07
-1.11364e-06
6.421e-07
-9.60961e-07
1.35195e-06
5.62768e-07
-1.37253e-06
-1.68324e-06
9.89225e-07
-1.33493e-06
-1.38217e-06
1.10077e-06
-1.18952e-06
-6.18954e-07
1.11396e-06
-1.10032e-06
-3.26303e-07
-9.48683e-07
6.42398e-07
5.91567e-07
-1.09121e-06
-2.23706e-06
1.08545e-06
-1.10824e-06
-1.94931e-06
1.19021e-06
-1.08477e-06
-9.3683e-07
1.19526e-06
-9.88521e-07
-6.19077e-07
-8.23803e-07
4.18666e-07
5.81158e-07
-5.73407e-07
-3.27834e-06
1.10885e-06
-5.80618e-07
-3.00665e-06
1.33535e-06
-5.90967e-07
-1.94879e-06
1.31628e-06
-5.62211e-07
-1.38188e-06
-4.62363e-07
-1.44432e-07
5.73651e-07
-3.55394e-06
1.09135e-06
-3.27867e-06
1.3726e-06
-2.23699e-06
1.39535e-06
-1.68356e-06
-2.85876e-07
5.98202e-07
-1.9172e-06
-3.48481e-07
1.09538e-06
-1.86736e-06
-1.3106e-07
1.29092e-06
-1.67143e-06
6.37431e-07
1.3143e-06
-1.55136e-06
9.59409e-07
-1.3136e-06
1.83277e-06
6.90985e-07
-1.70239e-06
-2.58797e-06
1.33808e-06
-1.68239e-06
-2.21423e-06
1.51743e-06
-1.62269e-06
-8.47037e-07
1.55212e-06
-1.51658e-06
-3.9577e-07
-1.2902e-06
9.59859e-07
6.91698e-07
-1.32688e-06
-3.30335e-06
1.31174e-06
-1.32226e-06
-2.92948e-06
1.62366e-06
-1.31068e-06
-1.56077e-06
1.67221e-06
-1.33676e-06
-8.47445e-07
-1.09449e-06
6.37544e-07
7.15038e-07
-7.18817e-07
-4.60066e-06
1.323e-06
-7.14375e-07
-4.22249e-06
1.68298e-06
-6.909e-07
-2.92854e-06
1.86818e-06
-6.90093e-07
-2.21374e-06
-5.97445e-07
-1.30215e-07
7.19377e-07
-4.99218e-06
1.32743e-06
-4.60121e-06
1.70277e-06
-3.30315e-06
1.9177e-06
-2.58838e-06
-3.48386e-07
8.29075e-07
-2.63667e-06
-5.72029e-07
1.4826e-06
-2.58552e-06
-1.81282e-07
1.81657e-06
-2.41333e-06
8.54656e-07
1.95863e-06
-2.20681e-06
1.27068e-06
-1.9584e-06
2.60322e-06
9.3503e-07
-2.40433e-06
-3.7543e-06
1.70854e-06
-2.35705e-06
-3.2162e-06
2.16711e-06
-2.22611e-06
-1.49283e-06
2.20705e-06
-2.16681e-06
-4.757e-07
-1.81636e-06
1.27109e-06
9.65549e-07
-1.89027e-06
-4.78206e-06
1.7426e-06
-1.85086e-06
-4.21272e-06
2.2263e-06
-1.74232e-06
-2.52825e-06
2.41368e-06
-1.70808e-06
-1.49356e-06
-1.48226e-06
8.54691e-07
1.02766e-06
-1.05633e-06
-6.46161e-06
1.8511e-06
-1.02738e-06
-5.86941e-06
2.3572e-06
-9.65279e-07
-4.21169e-06
2.58575e-06
-9.34675e-07
-3.21569e-06
-8.28788e-07
-1.8041e-07
1.05655e-06
-7.10513e-06
1.89034e-06
-6.46233e-06
2.40425e-06
-4.78198e-06
2.63659e-06
-3.75485e-06
-5.72351e-07
1.22041e-06
-3.64034e-06
-1.07865e-06
2.08801e-06
-3.59511e-06
-3.08897e-07
2.56379e-06
-3.34119e-06
1.07291e-06
2.73213e-06
-3.13361e-06
1.74526e-06
-2.73078e-06
3.6492e-06
1.35049e-06
-3.45546e-06
-5.288e-06
2.41395e-06
-3.36927e-06
-4.5055e-06
3.00633e-06
-3.13515e-06
-2.29124e-06
3.13494e-06
-3.00517e-06
-7.32744e-07
-2.56258e-06
1.74591e-06
1.41162e-06
-2.79359e-06
-6.85405e-06
2.51081e-06
-2.70111e-06
-5.98006e-06
3.13631e-06
-2.50963e-06
-3.77928e-06
3.34258e-06
-2.4127e-06
-2.29228e-06
-2.0867e-06
1.07294e-06
1.53476e-06
-1.59813e-06
-9.19055e-06
2.70222e-06
-1.53379e-06
-8.2042e-06
3.37037e-06
-1.41065e-06
-5.9788e-06
3.59647e-06
-1.34952e-06
-4.50497e-06
-1.21942e-06
-3.07664e-07
1.59911e-06
-1.03024e-05
2.79462e-06
-9.19191e-06
3.45633e-06
-6.85429e-06
3.64122e-06
-5.28895e-06
-1.07961e-06
1.81117e-06
-5.43516e-06
-1.80859e-06
3.17232e-06
-5.26002e-06
-6.1652e-07
3.84076e-06
-4.91311e-06
1.42467e-06
4.00429e-06
-4.6532e-06
2.56639e-06
-4.00402e-06
5.29932e-06
2.07585e-06
-5.4942e-06
-7.30327e-06
3.61695e-06
-5.21182e-06
-6.09479e-06
4.46199e-06
-4.7714e-06
-3.27798e-06
4.65346e-06
-4.46193e-06
-1.11547e-06
-3.84076e-06
2.56714e-06
2.30291e-06
-4.69193e-06
-9.9579e-06
3.90204e-06
-4.3827e-06
-8.4083e-06
4.77137e-06
-3.90218e-06
-5.51783e-06
4.91332e-06
-3.61682e-06
-3.27933e-06
-3.17222e-06
1.42439e-06
2.61299e-06
-2.83271e-06
-1.36621e-05
4.38267e-06
-2.61331e-06
-1.17433e-05
5.21188e-06
-2.30314e-06
-8.40706e-06
5.26008e-06
-2.07574e-06
-6.09425e-06
-1.81132e-06
-6.1528e-07
2.83247e-06
-1.59673e-05
4.69215e-06
-1.36643e-05
5.49442e-06
-9.95874e-06
5.43487e-06
-7.3043e-06
-1.81056e-06
2.57894e-06
-8.21231e-06
-2.54073e-06
4.41254e-06
-7.83424e-06
-6.90981e-07
5.33028e-06
-7.09888e-06
2.06864e-06
5.49783e-06
-6.5026e-06
3.81898e-06
-5.49542e-06
7.56589e-06
3.13497e-06
-8.51655e-06
-1.01314e-05
5.35605e-06
-7.98679e-06
-8.16332e-06
6.48219e-06
-7.09662e-06
-4.40637e-06
6.50488e-06
-6.48046e-06
-1.1603e-06
-5.3283e-06
3.82002e-06
3.54839e-06
-7.30056e-06
-1.47199e-05
5.97411e-06
-6.79119e-06
-1.20296e-05
7.09852e-06
-5.97239e-06
-7.76646e-06
7.10132e-06
-5.3545e-06
-4.40808e-06
-4.41061e-06
2.06827e-06
4.0876e-06
-4.40922e-06
-2.06392e-05
6.79284e-06
-4.08662e-06
-1.71531e-05
7.98864e-06
-3.54735e-06
-1.20279e-05
7.83684e-06
-3.13401e-06
-8.16293e-06
-2.57792e-06
-6.88986e-07
4.41027e-06
-2.47865e-05
7.30226e-06
-2.06427e-05
8.51837e-06
-1.47215e-05
8.21451e-06
-1.01336e-05
-2.5435e-06
4.06822e-06
-1.32622e-05
-3.12293e-06
6.93242e-06
-1.22452e-05
-4.93771e-07
8.20118e-06
-1.08775e-05
3.44865e-06
8.06326e-06
-9.83273e-06
6.29192e-06
-8.06323e-06
1.13299e-05
5.2695e-06
-1.46856e-05
-1.39756e-05
8.65772e-06
-1.33554e-05
-1.04413e-05
1.01102e-05
-1.16644e-05
-5.07194e-06
9.83263e-06
-1.01112e-05
-6.04311e-07
-8.20208e-06
6.29328e-06
6.32497e-06
-1.30191e-05
-2.27095e-05
1.01388e-05
-1.16473e-05
-1.75515e-05
1.16636e-05
-1.014e-05
-1.08156e-05
1.08775e-05
-8.65918e-06
-5.07402e-06
-6.93369e-06
3.44796e-06
7.37065e-06
-8.50552e-06
-3.25232e-05
1.16459e-05
-7.3728e-06
-2.57029e-05
1.33542e-05
-6.32679e-06
-1.75494e-05
1.22449e-05
-5.27136e-06
-1.04415e-05
-4.06897e-06
-4.93095e-07
8.50377e-06
-4.1795e-05
1.30181e-05
-3.25282e-05
1.46848e-05
-2.27122e-05
1.32629e-05
-1.39803e-05
-3.12677e-06
5.72707e-06
-1.96331e-05
-3.34023e-06
9.48638e-06
-1.79399e-05
7.24207e-07
1.11442e-05
-1.56431e-05
5.95475e-06
1.08544e-05
-1.35984e-05
1.00963e-05
-1.08503e-05
1.64988e-05
7.74098e-06
-2.19969e-05
-1.93491e-05
1.24639e-05
-1.97554e-05
-1.33488e-05
1.44606e-05
-1.68764e-05
-5.83528e-06
1.36022e-05
-1.44581e-05
1.11379e-06
-1.11411e-05
1.00982e-05
9.31448e-06
-1.99419e-05
-3.40755e-05
1.48245e-05
-1.76224e-05
-2.51945e-05
1.68794e-05
-1.48224e-05
-1.49245e-05
1.56474e-05
-1.24621e-05
-5.838e-06
-9.48422e-06
5.95454e-06
1.14974e-05
-1.2944e-05
-5.10165e-05
1.76244e-05
-1.14966e-05
-3.79557e-05
1.9758e-05
-9.31361e-06
-2.51918e-05
1.79441e-05
-7.74028e-06
-1.33494e-05
-5.72582e-06
7.24896e-07
1.29445e-05
-6.76829e-05
1.99435e-05
-5.10229e-05
2.19991e-05
-3.40796e-05
1.96363e-05
-1.93557e-05
-3.34625e-06
9.69132e-06
-3.29021e-05
-2.03872e-06
1.51897e-05
-2.91323e-05
4.45356e-06
1.70365e-05
-2.51067e-05
1.19708e-05
1.56562e-05
-2.08571e-05
1.75332e-05
-1.56571e-05
2.49313e-05
1.31804e-05
-3.96069e-05
-2.58227e-05
2.03105e-05
-3.37513e-05
-1.58599e-05
2.31749e-05
-2.84259e-05
-5.38046e-06
2.08564e-05
-2.31779e-05
5.75302e-06
-1.70396e-05
1.75364e-05
1.78499e-05
-3.8312e-05
-5.32178e-05
2.58775e-05
-3.1269e-05
-3.57043e-05
2.8423e-05
-2.58814e-05
-2.00146e-05
2.51061e-05
-2.03147e-05
-5.38428e-06
-1.51942e-05
1.19714e-05
2.19873e-05
-2.87697e-05
-8.25471e-05
3.12641e-05
-2.19941e-05
-5.65074e-05
3.37475e-05
-1.78552e-05
-3.57014e-05
2.91308e-05
-1.31856e-05
-1.58617e-05
-9.69617e-06
4.45303e-06
2.87656e-05
-0.000125216
3.83091e-05
-8.25578e-05
3.96045e-05
-5.32246e-05
3.29007e-05
-2.58325e-05
-2.04859e-06
1.23258e-05
-4.76865e-05
1.73888e-06
1.94846e-05
-4.07773e-05
1.09884e-05
2.21267e-05
-3.37855e-05
1.99743e-05
2.02068e-05
-2.70915e-05
2.75999e-05
-2.02012e-05
3.61093e-05
1.94199e-05
-5.94016e-05
-3.35233e-05
2.85704e-05
-4.93389e-05
-1.64488e-05
3.14674e-05
-3.97305e-05
-2.33244e-06
2.70963e-05
-3.14644e-05
1.4497e-05
-2.21208e-05
2.76014e-05
2.57331e-05
-5.9944e-05
-7.84051e-05
3.7583e-05
-4.843e-05
-4.84631e-05
3.97341e-05
-3.75824e-05
-2.43138e-05
3.37923e-05
-2.85697e-05
-2.33718e-06
-1.94824e-05
1.99783e-05
3.60409e-05
-4.29e-05
-0.000135631
4.84318e-05
-3.60406e-05
-8.12878e-05
4.93428e-05
-2.57343e-05
-4.84605e-05
4.07851e-05
-1.94206e-05
-1.64531e-05
-1.23247e-05
1.09884e-05
4.28947e-05
-0.000211008
5.99427e-05
-0.000135643
5.94032e-05
-7.84151e-05
4.76915e-05
-3.35371e-05
1.72574e-06
2.15874e-05
-8.09338e-05
1.33956e-05
3.08388e-05
-6.57726e-05
2.64745e-05
3.31639e-05
-5.29545e-05
3.70089e-05
2.83866e-05
-4.03837e-05
4.56993e-05
-2.83913e-05
5.4152e-05
3.28373e-05
-0.000110882
-3.64115e-05
4.66266e-05
-8.46399e-05
-1.13707e-05
4.88132e-05
-6.74285e-05
9.95494e-06
4.0379e-05
-4.88219e-05
3.13694e-05
-3.31729e-05
4.57019e-05
5.32743e-05
-0.000127762
-0.000114796
6.77703e-05
-8.84202e-05
-5.91789e-05
6.74214e-05
-6.77792e-05
-2.36142e-05
5.29494e-05
-4.66356e-05
9.94845e-06
-3.08481e-05
3.70098e-05
7.14138e-05
-0.000115987
-0.000218826
8.8406e-05
-7.14354e-05
-0.000115265
8.46292e-05
-5.32856e-05
-5.91774e-05
6.57659e-05
-3.28496e-05
-1.13758e-05
-2.16001e-05
2.64729e-05
0.000115985
-0.000442972
0.000127758
-0.000218849
0.00011088
-0.000114814
8.09275e-05
-3.64259e-05
1.33724e-05
2.52693e-05
-0.000114308
3.3168e-05
3.73931e-05
-8.7114e-05
4.87271e-05
3.96281e-05
-6.67321e-05
5.85839e-05
3.3465e-05
-4.91568e-05
6.88513e-05
-3.34627e-05
7.58338e-05
4.98838e-05
-0.000169679
-3.09205e-05
6.31417e-05
-0.000121749
1.00064e-05
6.13164e-05
-8.99753e-05
3.50235e-05
4.91588e-05
-6.13176e-05
5.56877e-05
-3.96267e-05
6.88513e-05
7.4684e-05
-0.000205361
-0.000153796
9.66876e-05
-0.000143343
-5.95883e-05
8.99737e-05
-9.66942e-05
-1.01814e-05
6.67333e-05
-6.31466e-05
3.50179e-05
-3.73918e-05
5.85813e-05
0.000130655
-0.000164565
-0.000390275
0.000143343
-0.000130655
-0.000140641
0.000121751
-7.46931e-05
-5.95864e-05
8.71211e-05
-4.98875e-05
9.99496e-06
-2.52688e-05
4.87253e-05
0.000164523
-0.000772049
0.000205349
-0.000390316
0.000169671
-0.000153817
0.000114309
-3.09414e-05
3.31466e-05
4.27917e-05
-0.000188207
8.27869e-05
5.52834e-05
-0.000133239
9.33901e-05
5.49752e-05
-9.89523e-05
0.000100318
4.3634e-05
-6.81721e-05
0.000105596
-4.36461e-05
0.00010822
7.57789e-05
-0.000311892
1.69783e-05
9.43934e-05
-0.000202062
6.02156e-05
8.91515e-05
-0.00014191
8.3223e-05
6.81601e-05
-8.91672e-05
9.76742e-05
-5.49907e-05
0.000105594
0.0001556
-0.000497178
-0.000124107
0.000171425
-0.000258508
-1.89682e-05
0.000141899
-0.000171446
4.8881e-05
9.89388e-05
-9.44149e-05
8.32257e-05
-5.53038e-05
0.000100314
0.000244866
-0.000564896
-0.000567456
0.000258468
-0.000244938
-0.000167813
0.00020204
-0.000155623
-1.89812e-05
0.000133221
-7.58055e-05
6.02041e-05
-4.28123e-05
9.33766e-05
0.00056495
-0.00045898
-0.000337673
-0.000646193
-0.000459023
0.000497176
-0.000567498
0.000311906
-0.000124159
0.000188199
1.6972e-05
8.27587e-05
4.38141e-05
-0.000250614
0.000156759
5.70485e-05
-0.000159193
0.000155556
5.42076e-05
-0.000110598
0.000149333
4.24471e-05
-7.12296e-05
0.000146157
-4.24564e-05
0.000139541
0.000108375
-0.000510577
0.000168572
0.000115786
-0.00025707
0.000150682
9.73225e-05
-0.000167032
0.000158121
7.12208e-05
-9.73347e-05
0.000149881
-5.42209e-05
0.000146152
0.00021214
-0.00101131
0.000164492
0.000224478
-0.000452457
0.00016408
0.000167016
-0.000224498
0.000163809
0.000110585
-0.000115804
0.000158126
-5.70683e-05
0.000149328
0.000565639
-0.000256828
-0.000102087
-3.16534e-05
-0.000321702
-0.000183254
-0.00021779
-0.000597855
-0.000433197
0.000452436
-0.000565643
5.85753e-05
0.000257058
-0.00021215
0.000164049
0.000159181
-0.000108392
0.00015067
-4.38322e-05
0.000155534
0.000154837
-0.000194585
-0.000676136
0.00101126
-0.000183308
-3.16184e-05
-0.000321751
-0.000101956
-0.000217859
-0.000256855
-0.000433175
-0.000597832
0.000510553
0.000164413
0.000250587
0.000168565
0.000156713
5.56983e-05
-0.000310203
0.00027159
6.57093e-05
-0.000202385
0.000238983
5.9146e-05
-0.000127122
0.000214126
4.36344e-05
-7.98193e-05
0.000193071
-4.36636e-05
0.000175343
0.000111293
-0.000633416
0.000380473
0.000138347
-0.000387573
0.000308817
0.000115719
-0.000208397
0.000262024
7.97936e-05
-0.000115747
0.000221735
-5.91778e-05
0.000193062
0.000298142
-0.000409803
0.000691213
-0.00030477
-0.000407578
-0.000336166
0.000299952
-0.000688988
0.000463685
0.000208367
-0.000300034
0.00034703
0.000127087
-0.000138372
0.000262031
-6.57575e-05
0.00021413
0.000122502
-0.00073503
0.000100582
0.00068892
-0.000354029
0.000229342
-0.000166055
-0.000353971
-0.000208161
-0.000429948
-0.000166096
-0.000430129
-0.000208075
0.000197012
0.000341417
0.00022936
0.000387541
-0.000298243
0.000463639
0.000202352
-0.000111321
0.000308808
-5.57502e-05
0.000238954
0.000287255
0.000221897
9.92484e-05
-0.000344924
-0.000263479
-0.000204576
0.000497961
-0.000303694
9.15181e-05
-0.000201612
-0.000198897
-0.000218037
0.000633365
0.000691214
-0.00030471
-0.000409802
-0.000336177
-0.000407716
0.000310177
0.000380449
0.000271555
1.86486e-05
-9.51037e-05
0.000283437
2.51069e-05
-7.90496e-05
0.000256042
2.48724e-05
-5.25797e-05
0.000232428
2.00395e-05
-3.95692e-05
0.000210552
-2.00707e-05
0.00019025
3.84271e-05
-0.000136487
0.000383422
5.62818e-05
-0.000121819
0.000333731
5.14047e-05
-6.87758e-05
0.000283097
3.95408e-05
-5.14337e-05
0.000245463
-2.48943e-05
0.000210526
5.18599e-05
-0.000232651
0.000587439
-0.000158988
0.000205528
0.000101485
7.21081e-05
-0.000109361
0.000443063
-7.16831e-05
6.06873e-05
-1.08851e-06
6.8726e-05
-7.21663e-05
0.000353803
5.25426e-05
-5.63195e-05
0.0002831
-2.51184e-05
0.000232417
-0.000460047
5.3583e-05
0.000556089
-3.89538e-05
-0.000154481
-0.000147995
-4.08324e-05
-7.80932e-05
8.30753e-05
-0.000150844
0.000265843
0.000121786
-5.19659e-05
0.000443039
-7.16502e-05
-0.000109342
-1.08798e-06
6.06936e-05
7.90192e-05
-3.84684e-05
0.000333723
-1.86556e-05
0.000256014
0.000828636
0.00032629
0.000180022
-5.18725e-05
-0.00128304
-0.000171872
9.12361e-05
-0.000163623
0.000118113
-0.00010551
0.000231656
0.000136469
0.00058743
-0.000158964
-0.000232593
0.000101471
0.000205478
9.5054e-05
0.000383426
0.000283431
-7.54292e-06
5.52416e-05
0.000231624
-3.46539e-06
1.57654e-05
0.000231228
1.697e-06
2.65906e-06
0.000218356
3.44342e-06
-6.92841e-06
0.00020858
-3.50085e-06
0.00019027
-1.06897e-05
0.000169079
0.000280279
-6.77524e-06
7.12677e-05
0.000274314
1.77987e-06
2.64355e-05
0.000250765
6.8783e-06
-1.82064e-06
0.000235257
-1.75417e-06
0.000208545
-0.000102418
0.000283805
0.000176464
0.000202586
0.000120489
7.54953e-05
-7.4524e-05
0.000223154
0.000263283
-2.63631e-05
7.44521e-05
0.000257626
-2.74033e-06
6.8625e-06
0.000250794
3.39591e-06
0.000218329
-0.000284865
-9.60666e-05
0.000702703
-3.77642e-05
-0.000223197
0.000295215
0.000102162
-0.000173835
-0.000145628
-0.000264422
-0.000173861
0.000102375
0.000295326
4.10332e-05
0.000112247
0.000102349
0.00011237
4.10204e-05
-7.13149e-05
0.000102374
0.000263236
-1.58249e-05
1.07401e-05
0.000274355
7.4887e-06
0.000231189
0.000533199
-0.000507148
-0.000165984
0.000520245
-0.000380208
-8.08029e-05
0.000193405
-0.00042371
0.000320572
-0.000202432
-8.22779e-05
-8.55013e-05
-8.39287e-05
0.000333499
0.000151717
0.000254676
-0.000169138
0.000176362
0.000202651
0.000283768
7.54692e-05
0.000120612
-5.52985e-05
0.000280361
0.000231609
-1.19441e-06
-4.19517e-05
0.000265083
-8.19858e-06
-1.46784e-05
0.000243057
-1.26149e-05
4.0008e-06
0.000222349
-1.2177e-05
6.65781e-06
0.000204072
1.21082e-05
0.000184138
5.3798e-06
-0.000121238
0.000354173
5.75824e-06
-5.94726e-05
0.00031873
-4.05944e-06
-7.95853e-06
0.000272542
-6.67795e-06
4.02383e-06
0.00024051
1.25507e-05
0.000204064
6.97586e-05
-5.54056e-05
0.000509676
-3.74271e-05
-0.000269412
-0.000161981
4.50338e-05
-0.000179509
0.000408044
7.89044e-06
-4.5135e-05
0.000331945
-4.09287e-06
-5.78719e-06
0.000272589
8.11331e-06
0.000222328
0.000154828
2.01921e-05
-0.000125692
-0.000104689
0.000179343
-5.48358e-05
0.000138558
-2.92748e-05
-5.48557e-05
-7.02216e-05
-0.000251214
-2.91847e-05
-0.000251208
-7.02073e-05
0.000118043
0.000158919
0.000138792
5.94046e-05
-6.99104e-05
0.00040795
1.46127e-05
-5.38372e-06
0.000318744
1.12641e-06
0.000243003
0.00154636
0.000266661
0.000155969
-0.000264163
-0.000484723
-0.000349447
-0.000306015
-0.000564607
0.000348636
-0.000154621
7.7364e-05
-4.59349e-05
-0.00028028
0.000121072
0.000509818
-3.75286e-05
-5.53851e-05
-0.000162095
-0.000269367
4.18723e-05
0.000354228
0.000265089
-6.81601e-06
2.50811e-05