/*--------------------------------*- C++ -*----------------------------------*\
| =========                 |                                                 |
| \\      /  F ield         | OpenFOAM: The Open Source CFD Toolbox           |
|  \\    /   O peration     | Version:  5.x                                   |
|   \\  /    A nd           | Web:      www.OpenFOAM.org                      |
|    \\/     M anipulation  |                                                 |
\*---------------------------------------------------------------------------*/
FoamFile
{
    version     2.0;
    format      ascii;
    class       volScalarField;
    location    "0.027";
    object      interFace;
}
// * * * * * * * * * * * * * * * * * * * * * * * * * * * * * * * * * * * * * //

dimensions      [0 0 0 0 0 0 0];

internalField   nonuniform List<scalar> 
1560
(
0
0
0
0
0
0
0
0
0
0
0
0
0
0
0
0
0
0
0
0
0
0
0
0
0
0
0
0
0
0
0
0
0
0
0
0
0
0
0
0
0
0
0
0
0
0
0
0
0
0
0
0
0
0
0
0
0
0
0
0
0
0
0
0
0
0
0
0
0
0
0
0
0
0
0
0
0
0
0
0
0
0
0
0
0
0
0
0
0
0
0
0
0
0
0
0
0
0
0
0
0
0
0
0
0
0
0
0
0
0
0
0
0
0
0
0
0
0
0
0
0
0
0
0
0
0
0
0
0
0
0
0
0
0
0
0
0
0
0
0
0
0
0
0
0
0
0
0
0
0
0
0
0
0
0
0
0
0
0
0
0
0
0
0
0
0
0
0
0
0
0
0
0
0
0
0
0
0
0
0
0
0
0
0
0
0
0
0
0
0
0
0
0
0
0
0
0
0
0
0
0
0
0
0
0
0
0
0
0
0
0
0
0
0
0
0
0
0
0
0
0
0
0
0
0
0
0
0
0
0
0
0
0
0
0
0
0
0
0
0
0
0
0
0
0
0
0
0
0
0
0
0
0
0
0
0
0
0
0
0
0
0
0
0
0
0
0
0
0
0
0
0
0
0
0
0
0
0
0
0
0
0
0
0
0
0
0
0
0
0
0
0
0
0
0
0
0
0
0
0
0
0
0
0
0
0
0
0
0
0
0
0
0
0
0
0
0
0
0
0
0
0
0
0
0
0
0
0
0
0
0
0
0
0
0
0
0
0
0
0
0
0
0
0
0
0
0
0
0
0
0
0
0
0
0
0
0
0
0
0
0
0
0
0
0
0
0
0
0
0
0
0
0
0
0
0
0
0
0
0
0
0
0
0
0
0
0
0
0
0
0
0
0
0
0
0
0
0
0
0
0
0
0
0
0
0
0
0
0
0
0
0
0
0
0
0
0
0
0
0
0
0
0
0
0
0
0
0
0
0
0
0
0
0
0
0
0
0
0
0
0
0
0
0
0
0
0
0
0
0
0
0
0
0
0
0
0
0
0
0
0
0
0
0
0
0
0
0
0
0
0
0
0
0
0
0
0
0
0
0
0
0
0
0
0
0
0
0
0
0
0
0
0
0
0
0
0
0
0
0
0
0
0
0
0
0
0
0
0
0
0
0
0
0
0
0
0
0
0
0
0
0
0
0
0
0
0
0
0
0
0
0
0
0
0
0
0
0
0
0
0
0
0
0
0
0
0
0
0
0
0
0
0
0
0
0
0
0
0
0
0
0
0
0
0
0
0
0
0
0
0
0
0
0
0
0
0
0
0
0
0
0
0
0
0
0
0
0
0
0
0
0
0
0
0
0
0
0
0
0
0
0
0
0
0
0
0
0
0
0
0
0
0
0
0
0
0
0
0
0
0
0
0
0
0
0
0
0
0
0
0
0
0
0
0
0
0
0
0
0
0
0
0
0
0
0
0
0
0
0
0
0
0
0
0
0
0
0
0
0
0
0
0
0
0
0
0
0
0
0
0
0
0
0
0
0
0
0
0
0
0
0
0
0
0
0
0
0
0
0
0
0
0
0
0
0
0
0
0
0
0
0
0
0
0
0
0
0
0
0
0
0
0
0
0
0
0
0
0
0
0
0
0
0
0
0
0
0
0
0
0
0
0
0
0
0
0
0
0
0
0
0
0
0
0
0
0
0
0
0
0
0
0
0
0
0
0
0
0
0
0
0
0
0
0
0
0
0
0
0
0.468942
0.891318
0
0
0
0
0
0
0
0
0
0
0
0
0
0
0
0
0
0
0
0
0
0
0
0.307113
0.75532
0
0
0
0
0
0
0
0
0
0
0
0
0
0
0
0
0
0
0
0
0
0
0
0.926224
0
0
0
0
0
0
0
0
0
0
0
0
0
0
0
0
0
0
0
0
0
0
0
0
0.719247
0
0
0
0
0
0
0
0
0
0
0
0
0
0
0
0
0
0
0
0
0
0
0
0
0.284202
0.732413
0
0
0
0
0
0
0
0
0
0
0
0
0
0
0
0
0
0
0
0
0
0
0
0.566286
0
0
0
0
0
0
0
0
0
0
0
0
0
0
0
0
0
0
0
0
0
0
0
0
0
0
0
0
0
0
0
0
0
0
0
0
0
0
0
0
0
0
0
0
0
0
0
0
0
0
0
0
0
0
0
0
0
0
0
0
0
0
0
0
0
0
0
0
0
0
0
0
0
0
0
0
0
0
0
0
0
0
0
0
0
0
0
0
0
0
0
0
0
0
0
0
0
0
0
0
0
0
0
0
0
0.648223
0.891316
0
0
0.459621
0.728546
0.737866
0.20002
0.468944
0.28034
0.549264
0.0114175
0.280342
0
0.648227
0
0.728546
0
0.459624
0
0
0.486395
0.755319
0
0
0.872676
0
0
0
0
0
0
0
0
0.576038
0.0381912
0.307116
0.656358
0.925282
0.387436
0.65636
0
0.486398
0
0
0
0.872679
0
0
0.746942
0.926225
0
0
0.831971
0
0
0.928186
0
0
0
0.505013
0.845128
0.988175
0.450329
0.719256
0.325733
0.59466
0.0568139
0.325741
0
0.928197
0
0.845134
0
0.505025
0
0
0.463483
0.73241
0
0
0.607815
0.858288
0
0
0
0
0
0
0
0.55313
0.0152834
0.284211
0.428534
0.697462
0.159615
0.428543
0
0.463494
0
0.858294
0
0.607826
0
0
0.954506
0
0
0
0
0
0.835213
0.297367
0.566294
0
0
0.871451
0
0
0.954518
0
0
0
0
0
0.289067
0.351934
0.172652
0.378707
0.217473
0.423528
0.244246
0.916556
0.979423
0.620859
0.826914
0.844962
0
0.692453
0.197854
0.329024
0.149742
0.287492
0.194564
0.332314
0.153032
0.65922
0.611108
0.431826
0.748858
0.476648
0.79368
0.614398
0.208746
0.298386
0.32516
0.145878
0.343207
0.190699
0.163925
0.298388
0.567311
0.414802
0.414803
0.432849
0.43285
0.280341
0.119105
0.0294644
0.0562376
0.0562384
0.101059
0.0742845
0.0742853
0.208747
0.298389
0.325162
0.14588
0.343209
0.1907
0.163927
0.826912
0.710497
0.531216
0.557989
0.755318
0.60281
0.782091
0.916554
0.979422
0.620857
0.826914
0.84496
0
0.692452
0.378709
0.441576
0.441576
0.647632
0.307114
0.51317
0.513171
0.199427
0.0830113
0.0830121
0.109785
0.127832
0.154606
0.154606
0.289068
0.351936
0.172654
0.37871
0.217474
0.42353
0.244248
0.405482
0.495122
0.701178
0.521896
0.539943
0.566717
0.360661
0.495123
0.764047
0.79082
0.790821
0.629585
0.629585
0.656359
0.315841
0.2262
0.432256
0.432256
0.477077
0.27102
0.271021
0.405483
0.495125
0.70118
0.521898
0.539945
0.566718
0.360663
0.826916
0.531218
0.710501
0.557992
0.755321
0.602813
0.782095
0.322446
0.412084
0.370555
0.191273
0.456906
0.236095
0.277624
0.232806
0.143165
0.101633
0.101636
0.146455
0.187984
0.187987
0.322448
0.412092
0.37056
0.191278
0.456911
0.236097
0.277629
0.735696
0.687584
0.508305
0.466773
0.732406
0.511595
0.690874
0.783807
0.514884
0.831916
0.652637
0.559706
0.876738
0.738985
0.287497
0.418667
0.41867
0.55642
0.284207
0.421957
0.42196
0.108214
0.0601025
0.0601053
0.0185735
0.104924
0.0633925
0.0633954
0.197857
0.32903
0.149748
0.287501
0.194567
0.33232
0.153038
0.245965
0.335603
0.473356
0.294074
0.380425
0.338896
0.201143
0.335607
0.60453
0.562999
0.563001
0.470067
0.47007
0.428538
0.156325
0.0666841
0.204434
0.204437
0.249256
0.111503
0.111506
0.245968
0.335612
0.473362
0.29408
0.380431
0.338899
0.201149
0.735708
0.508314
0.687599
0.466785
0.732418
0.511604
0.690889
0.783818
0.514895
0.652645
0.83193
0.559714
0.876749
0.738999
0.748862
0.70075
0.700753
0
0.56629
0.883322
0.883325
0.56958
0.342186
0.342189
0.479939
0.387008
0.524758
0.524761
0.659223
0.611113
0.431831
0.748867
0.47665
0.793686
0.614404
0
0.963504
0
0.62145
0.890374
0.352528
0.621453
0.181973
0.24484
0.244841
0.0923317
0.289661
0.137152
0.137153
0.271613
0.513763
0.33448
0.361254
0.379301
0.406075
0.226793
0.746591
0.477668
0.683724
0.504442
0.522489
0.728544
0.70177
0.271614
0.513764
0.334482
0.361256
0.379302
0.406076
0.226794
0.746595
0.477671
0.504445
0.683728
0.522491
0.728548
0.701774
0.412088
0.681011
0.460197
0.4602
0.546548
0.546551
0.325737
0.361255
0.603404
0.603405
0.630178
0.468943
0.495716
0.495717
0.825347
0.956517
0.597953
0.735703
0.822057
0.959807
0.601243
0.825339
0.956512
0.597947
0.7357
0.822049
0.959802
0.601237
0.363977
0.495148
0.49515
0.274336
0.53997
0.319155
0.319158
0
0
0
0
0
0
0
0.836233
0.746592
0.952648
0.594084
0.970695
0.61213
0.818186
0.836235
0.746593
0.95265
0.594085
0.970696
0.612132
0.818188
0.453617
0.764069
0.584787
0.543255
0.629609
0.588077
0.408795
0.860288
0.591364
0.729115
0.549835
0.636186
0.773937
0.815466
0.45362
0.764075
0.584793
0.543264
0.629612
0.588083
0.408801
0.860299
0.591376
0.549844
0.729129
0.636195
0.773948
0.81548
0.397348
0.397349
0.442169
0.639498
0.549857
0.594677
0.594678
0
0
0
0
0
0
0
0
0
0
0
0
0
0
0.809459
0.872326
0.693044
0.540535
0.917147
0.585356
0.764638
0.809462
0.693047
0.87233
0.540539
0.91715
0.585359
0.764642
0.666271
0.486989
0.53181
0.729139
0.818779
0.8636
0.684318
0.666273
0.48699
0.531811
0.72914
0.818781
0.863602
0.684319
0.54326
0.853712
0.853715
0.812183
0.719252
0.67772
0.677723
0.755912
0.755913
0.621451
0.81878
0
0.953241
0.953242
)
;

boundaryField
{
    inlet
    {
        type            calculated;
        value           uniform 0;
    }
    wall
    {
        type            calculated;
        value           uniform 0;
    }
    outlet
    {
        type            calculated;
        value           uniform 0;
    }
    procBoundary1to0
    {
        type            processor;
        value           uniform 0;
    }
    procBoundary1to3
    {
        type            processor;
        value           uniform 0;
    }
}


// ************************************************************************* //
