/*--------------------------------*- C++ -*----------------------------------*\
| =========                 |                                                 |
| \\      /  F ield         | OpenFOAM: The Open Source CFD Toolbox           |
|  \\    /   O peration     | Version:  5.x                                   |
|   \\  /    A nd           | Web:      www.OpenFOAM.org                      |
|    \\/     M anipulation  |                                                 |
\*---------------------------------------------------------------------------*/
FoamFile
{
    version     2.0;
    format      ascii;
    class       volScalarField;
    location    "0.027";
    object      phiIB;
}
// * * * * * * * * * * * * * * * * * * * * * * * * * * * * * * * * * * * * * //

dimensions      [0 2 -1 0 0 0 0];

internalField   nonuniform List<scalar> 
1560
(
4.71982e-06
4.72118e-06
4.71716e-06
4.72021e-06
4.71281e-06
4.72743e-06
4.72878e-06
4.72469e-06
4.72775e-06
4.72026e-06
4.72445e-06
4.72577e-06
4.72163e-06
4.72468e-06
4.71718e-06
4.72876e-06
4.73004e-06
4.72583e-06
4.72884e-06
4.72127e-06
4.72739e-06
4.72864e-06
4.72439e-06
4.72739e-06
4.7198e-06
9.14662e-06
9.14709e-06
9.14571e-06
9.14617e-06
9.14229e-06
9.15106e-06
9.15143e-06
9.14991e-06
9.1503e-06
9.14635e-06
9.1512e-06
9.15143e-06
9.1498e-06
9.1501e-06
9.1461e-06
9.15329e-06
9.15338e-06
9.15158e-06
9.15179e-06
9.14771e-06
9.15345e-06
9.15339e-06
9.15145e-06
9.15155e-06
9.14742e-06
2.10765e-05
2.10774e-05
2.10724e-05
2.10741e-05
2.10646e-05
2.10864e-05
2.10873e-05
2.10822e-05
2.10838e-05
2.10742e-05
2.10853e-05
2.1086e-05
2.10808e-05
2.10823e-05
2.10726e-05
2.10909e-05
2.10914e-05
2.1086e-05
2.10874e-05
2.10777e-05
2.10906e-05
2.10909e-05
2.10853e-05
2.10866e-05
2.10768e-05
2.90377e-05
2.90387e-05
2.90336e-05
2.9035e-05
2.9025e-05
2.90485e-05
2.90493e-05
2.9044e-05
2.90454e-05
2.90352e-05
2.90477e-05
2.90484e-05
2.9043e-05
2.90443e-05
2.9034e-05
2.90539e-05
2.90543e-05
2.90486e-05
2.90498e-05
2.90395e-05
2.90539e-05
2.9054e-05
2.90482e-05
2.90492e-05
2.90389e-05
3.92107e-05
3.92117e-05
3.92029e-05
3.92049e-05
3.91889e-05
3.92271e-05
3.92281e-05
3.92191e-05
3.92211e-05
3.9205e-05
3.92256e-05
3.92264e-05
3.92174e-05
3.92193e-05
3.92031e-05
3.9235e-05
3.92357e-05
3.92265e-05
3.92284e-05
3.92121e-05
3.92346e-05
3.92351e-05
3.92258e-05
3.92277e-05
3.92114e-05
4.85919e-05
4.85932e-05
4.85816e-05
4.85842e-05
4.85634e-05
4.86134e-05
4.86146e-05
4.86028e-05
4.86054e-05
4.85844e-05
4.86113e-05
4.86125e-05
4.86006e-05
4.86031e-05
4.8582e-05
4.86237e-05
4.86248e-05
4.86128e-05
4.86152e-05
4.8594e-05
4.8623e-05
4.8624e-05
4.8612e-05
4.86144e-05
4.85933e-05
5.79532e-05
5.79545e-05
5.79369e-05
5.79401e-05
5.79096e-05
5.79844e-05
5.79857e-05
5.79678e-05
5.7971e-05
5.79402e-05
5.7982e-05
5.79831e-05
5.79651e-05
5.79681e-05
5.79372e-05
5.80007e-05
5.80018e-05
5.79834e-05
5.79862e-05
5.79551e-05
5.8e-05
5.80011e-05
5.79827e-05
5.79854e-05
5.79542e-05
6.7897e-05
6.78989e-05
6.78749e-05
6.78796e-05
6.78384e-05
6.7939e-05
6.79409e-05
6.79166e-05
6.79212e-05
6.78797e-05
6.79353e-05
6.7937e-05
6.79125e-05
6.79169e-05
6.78753e-05
6.79608e-05
6.79624e-05
6.79373e-05
6.79416e-05
6.78997e-05
6.79599e-05
6.79615e-05
6.79362e-05
6.79403e-05
6.78984e-05
7.71923e-05
7.71943e-05
7.71592e-05
7.71645e-05
7.71049e-05
7.72538e-05
7.72556e-05
7.722e-05
7.72249e-05
7.71646e-05
7.72503e-05
7.72518e-05
7.72156e-05
7.72202e-05
7.71595e-05
7.72878e-05
7.72891e-05
7.7252e-05
7.72561e-05
7.71948e-05
7.72873e-05
7.72885e-05
7.72512e-05
7.72549e-05
7.71934e-05
8.72444e-05
8.72456e-05
8.71965e-05
8.72007e-05
8.71186e-05
8.73279e-05
8.73288e-05
8.72793e-05
8.72833e-05
8.72007e-05
8.73281e-05
8.73276e-05
8.72767e-05
8.72795e-05
8.71967e-05
8.73844e-05
8.7382e-05
8.73277e-05
8.7329e-05
8.72459e-05
8.73882e-05
8.73849e-05
8.73287e-05
8.73287e-05
8.72453e-05
9.69524e-05
9.69463e-05
9.68668e-05
9.68598e-05
9.6737e-05
9.70852e-05
9.70768e-05
9.69945e-05
9.69861e-05
9.68598e-05
9.71098e-05
9.70966e-05
9.70083e-05
9.69946e-05
9.68668e-05
9.72085e-05
9.71889e-05
9.70963e-05
9.70767e-05
9.69463e-05
9.72347e-05
9.72088e-05
9.71099e-05
9.70855e-05
9.69528e-05
0.000106978
0.000106949
0.000106814
0.000106774
0.000106593
0.000107175
0.000107141
0.000107004
0.000106958
0.000106774
0.000107281
0.000107231
0.000107069
0.000107004
0.000106814
0.000107536
0.000107451
0.00010723
0.000107141
0.000106949
0.000107651
0.000107536
0.000107281
0.000107174
0.000106977
0.000117325
0.000117241
0.000116982
0.000116864
0.00011659
0.000117713
0.000117608
0.000117303
0.000117155
0.000116864
0.000117989
0.000117856
0.000117498
0.000117303
0.000116982
0.000118463
0.000118284
0.000117855
0.000117608
0.00011724
0.000118686
0.000118463
0.000117988
0.000117713
0.000117324
0.000126987
0.000126817
0.0001264
0.000126183
0.000125781
0.000127733
0.000127515
0.000126923
0.00012661
0.000126182
0.000128187
0.000127952
0.000127311
0.000126922
0.000126399
0.000128683
0.00012849
0.000127951
0.000127513
0.000126815
0.000128843
0.000128683
0.000128186
0.000127732
0.000126985
0.000137109
0.000136901
0.000136373
0.000136099
0.000135552
0.0001379
0.00013771
0.000137151
0.000136783
0.000136099
0.000138273
0.000138096
0.000137551
0.000137151
0.000136372
0.000138778
0.000138621
0.000138093
0.000137706
0.000136897
0.000138908
0.000138778
0.00013827
0.000137896
0.000137105
0.000144693
0.000144484
0.000143739
0.000143461
0.000142851
0.000145455
0.000145285
0.000144717
0.000144405
0.00014346
0.000145699
0.000145556
0.000145028
0.000144716
0.000143736
0.000146254
0.000146115
0.00014555
0.000145278
0.000144475
0.000146384
0.000146252
0.000145691
0.000145446
0.000144682
0.000152647
0.000152501
0.000151828
0.000151635
0.000150838
0.000153726
0.000153571
0.000152894
0.000152642
0.000151633
0.000154052
0.000153889
0.000153194
0.000152893
0.000151824
0.000154773
0.000154601
0.000153879
0.00015356
0.000152488
0.000154946
0.00015477
0.00015404
0.000153713
0.000152632
0.000156512
0.000156415
0.000155715
0.000155534
0.000154485
0.00015791
0.00015778
0.000156998
0.000156776
0.00015553
0.000158241
0.000158089
0.000157255
0.000156995
0.000155708
0.000159129
0.000158951
0.000158074
0.000157762
0.000156394
0.000159314
0.000159124
0.000158221
0.000157889
0.000156487
0.000163826
0.000163571
0.000162434
0.000162113
0.000160731
0.000165863
0.000165588
0.000164419
0.000163942
0.000162108
0.000166525
0.000166214
0.000165003
0.000164417
0.000162428
0.000167779
0.000167445
0.000166194
0.000165566
0.000163545
0.000168136
0.000167774
0.0001665
0.000165837
0.000163797
0.00016463
0.000164423
0.00016316
0.000162849
0.000160821
0.000167288
0.000166974
0.000165552
0.000165088
0.000162841
0.000168103
0.000167714
0.000166154
0.000165549
0.00016315
0.000169807
0.000169329
0.000167686
0.000166942
0.000164384
0.000170332
0.000169799
0.000168068
0.000167249
0.000164584
0.000173751
0.00017317
0.000171199
0.000170637
0.000168203
0.000177543
0.000176887
0.000174855
0.000173848
0.00017063
0.000179215
0.000178392
0.000176218
0.000174852
0.00017119
0.000181533
0.000180618
0.000178357
0.000176849
0.000173124
0.000182574
0.000181522
0.000179171
0.000177497
0.000173698
0.000171375
0.000170952
0.000168892
0.000168735
0.000164587
0.000176504
0.00017565
0.000173277
0.000172401
0.000168724
0.000178952
0.000177718
0.000174801
0.00017327
0.000168873
0.000182363
0.000180725
0.00017767
0.000175591
0.000170879
0.000184358
0.000182336
0.000178881
0.000176427
0.000171287
0.000184969
0.000183571
0.000180434
0.000179864
0.00017547
0.000191732
0.000190106
0.000186831
0.000184753
0.000179853
0.000196166
0.00019388
0.000190153
0.000186822
0.000180416
0.000200386
0.000197755
0.000193825
0.000190037
0.000183487
0.000203546
0.000200351
0.00019608
0.000191637
0.000184861
0.000178854
0.000177679
0.000174097
0.000172025
0.000163955
0.000188709
0.00018589
0.000181998
0.000178907
0.000172009
0.000197088
0.000192344
0.000186664
0.000181982
0.000174078
0.000204323
0.000197802
0.000192267
0.000185786
0.000177558
0.000213472
0.000204233
0.00019693
0.000188537
0.000178675
0.000198551
0.000195676
0.000192281
0.000189228
0.000181231
0.000209628
0.000205802
0.000200988
0.000196069
0.000189205
0.000220145
0.000214445
0.000208415
0.000200966
0.000192243
0.000228292
0.000220954
0.000214341
0.000205675
0.000195507
0.000237595
0.000228173
0.000219937
0.000209416
0.000198291
0.000191949
0.000187335
0.000177877
0.00017119
0.000156419
0.000209034
0.000199468
0.000193202
0.000183744
0.000171168
0.000239304
0.00021993
0.000208522
0.000193155
0.000177825
0.000257046
0.000229408
0.00021982
0.000199304
0.000187155
0.000301346
0.000256919
0.000239004
0.000208694
0.000191575
0.00021266
0.00020867
0.00020235
0.00019483
0.000181747
0.000229105
0.000220369
0.000213534
0.000205499
0.000194759
0.000247136
0.000235572
0.000225599
0.000213501
0.000202217
0.000268868
0.000248555
0.000235399
0.000220142
0.000208314
0.00030553
0.00026819
0.000246592
0.000228584
0.000212011
0.000214976
0.000193489
0.000176628
0.00016246
0.000142316
0.000238124
0.000211373
0.000200631
0.000176844
0.000162393
0.000333857
0.000267237
0.000243816
0.000200577
0.000176475
0.000401831
0.000282883
0.000266969
0.000211126
0.000193173
0.000586024
0.00040206
0.000333348
0.000237678
0.000214358
0.000217295
0.000211102
0.00019879
0.000189692
0.000173146
0.000254562
0.000229495
0.000215543
0.00020121
0.000189513
0.000284541
0.000242916
0.000226303
0.000215435
0.000198464
0.000353201
0.000263038
0.000243116
0.000229172
0.000210474
0.000613707
0.000350794
0.000283534
0.000253038
0.000215977
0.000219107
0.000185685
0.000166649
0.000144911
0.000124939
0.000254232
0.000211765
0.000187323
0.000159049
0.000144778
0.00045283
0.000306263
0.000253123
0.000187238
0.000166249
0.000824797
0.000305979
0.000306055
0.000211349
0.000184905
0.00165581
0.000755298
0.000451883
0.000252576
0.000217343
0.000199065
0.000198224
0.000179942
0.000174959
0.000156124
0.000225529
0.00020412
0.000194435
0.000180603
0.00017479
0.000251401
0.000222486
0.000197177
0.000193984
0.000179397
0.000731526
0.000409216
0.00022215
0.000203219
0.000197273
0.00178471
0.000813137
0.000247175
0.000222702
0.000196633
0.000100913
9.67629e-05
9.67753e-05
9.70201e-05
9.04868e-05
0.000112202
0.000123897
0.000103475
0.000108969
9.69703e-05
-1.46831e-05
6.16741e-05
8.32201e-05
0.000103245
9.63635e-05
0.000185195
0.000152688
6.0912e-05
0.00012257
9.57735e-05
-0.00197662
-2.90175e-05
-1.64206e-05
0.000108321
9.94332e-05
0.000156141
0.000152341
0.000135037
0.000136486
0.000126478
0.000189742
0.000155522
0.000148335
0.000137093
0.000136823
0.000206718
0.000176156
0.000145397
0.000147345
0.000134943
0.000255078
0.000109615
0.000176919
0.000154374
0.000152
-0.000111937
0.000239012
0.000202498
0.000184941
0.000154857
0.000114333
8.29882e-05
7.83976e-05
7.05646e-05
7.14803e-05
5.7081e-05
8.70139e-05
7.43558e-05
7.09473e-05
7.05622e-05
0.000274121
0.000120892
0.000124271
7.38963e-05
7.79405e-05
0.000148124
0.000194135
0.000120428
8.58443e-05
8.17494e-05
0.000916512
0.000593368
0.000271946
5.38622e-05
0.000112272
3.25826e-05
5.27674e-05
5.87313e-05
7.50199e-05
8.11813e-05
-3.40867e-05
1.1542e-05
3.17114e-05
5.8053e-05
7.492e-05
-0.000180359
-6.74993e-05
-2.04014e-05
3.10711e-05
5.82219e-05
-0.000251302
-0.000130106
-6.72667e-05
1.04384e-05
5.18496e-05
0.000193913
-0.000157461
-0.000180615
-3.67487e-05
3.09409e-05
1.82386e-05
2.16299e-05
2.70595e-05
3.21741e-05
4.22793e-05
-3.2218e-05
-1.40862e-05
6.46989e-06
1.61816e-05
3.19666e-05
-8.67185e-05
-4.74782e-05
-7.58495e-06
6.16105e-06
2.6578e-05
-0.000267602
-0.00015238
-4.77907e-05
-1.49073e-05
2.08194e-05
-0.00114578
-0.000391306
-8.64798e-05
-3.41178e-05
1.68017e-05
-9.39525e-06
1.00153e-05
1.24168e-05
3.14094e-05
3.72705e-05
-3.80393e-05
-1.73901e-05
-3.48371e-08
1.9479e-05
3.11998e-05
-0.000115745
-7.1514e-05
-4.62266e-05
-1.9162e-07
1.2025e-05
-0.000269752
-0.000157394
-7.19875e-05
-1.79568e-05
9.26351e-06
-0.000402127
-0.000269942
-0.000116606
-3.90527e-05
-1.06452e-05
-1.08219e-05
-4.94772e-06
5.61834e-06
1.37223e-05
3.10489e-05
-4.98121e-05
-4.09862e-05
-1.91077e-05
-8.66917e-06
1.34771e-05
-8.16006e-05
-6.63622e-05
-3.80012e-05
-1.92256e-05
5.25114e-06
-0.000159644
-0.000124265
-6.64602e-05
-4.13464e-05
-5.58263e-06
-0.000219605
-0.000160283
-8.20822e-05
-5.05985e-05
-1.1834e-05
-1.74852e-05
-7.02531e-06
-8.03975e-06
1.45562e-06
1.13786e-06
-1.96871e-05
-1.35136e-05
-8.73349e-06
1.5689e-06
1.35041e-06
-5.09211e-05
-3.35188e-05
-2.97307e-05
-8.75211e-06
-8.18855e-06
-6.87431e-05
-4.98083e-05
-3.37866e-05
-1.38006e-05
-7.43723e-06
-8.96525e-05
-6.87363e-05
-5.13305e-05
-2.01024e-05
-1.81179e-05
-9.5905e-06
-3.44216e-06
1.04742e-05
1.52283e-05
3.81055e-05
-3.18494e-05
-2.60445e-05
-1.25245e-05
-8.40564e-06
1.49733e-05
-5.54596e-05
-4.10763e-05
-2.57827e-05
-1.24612e-05
1.0222e-05
-7.84036e-05
-6.3918e-05
-4.12484e-05
-2.61769e-05
-3.8712e-06
-9.65575e-05
-7.86239e-05
-5.57502e-05
-3.20236e-05
-1.00318e-05
0.000521922
0.00146073
0.000814074
7.2786e-05
0.00016795
0.000102591
9.77528e-05
0.00079456
0.00777617
0.0017827
-0.000745295
0.0001496
0.000447697
-0.000743867
0.000519438
0.0014605
0.000732359
9.56608e-05
0.00016542
0.000100253
6.69339e-05
0.000160947
-0.000247873
-2.59816e-05
0.000158453
0.00027796
-0.000384557
-0.000148582
0.000198275
3.10945e-05
0.000151491
4.69647e-05
0.000296546
-8.15827e-05
4.45848e-05
-0.000319597
-0.000536494
-0.00197213
0.00011982
0.000486416
-0.00098383
0.000120964
0.000156992
-0.000252273
0.000179999
-0.000158625
0.000275309
-0.000393591
0.000146318
-8.13897e-05
0.00021182
-1.67524e-05
0.000951709
0.000553563
0.00133332
0.000935308
7.40045e-07
0.00110624
0.000609345
0.00023466
0.000144725
0.000117571
0.000461313
0.000367267
0.00341816
0.000928867
0.00197134
0.000408561
0.00215105
0.00196584
-1.27265e-05
0.00109674
0.000134766
0.000459412
0.000142163
0.000114606
0.000231391
-0.000212665
-0.000384003
-0.000159429
-0.000258494
-0.000225488
-0.000950476
-0.000492584
-7.28576e-05
-0.000183891
-0.000131568
-0.000161783
-9.58554e-05
-0.00025369
-0.000165853
8.89872e-05
0.000499585
0.000192697
-0.00135097
-0.000459628
-0.00242794
-0.00135374
-0.000214909
-0.000385516
-0.000254665
-0.00048678
-0.00023235
-0.000951983
-0.000261865
-0.000196036
-0.000519304
-0.000392763
-0.000174369
-0.000130656
-0.000431683
-0.000347038
-0.000448848
-0.0024273
-0.00114762
-0.000504277
-0.000404861
-0.000676706
-0.000507827
-0.000199763
-0.000518183
-0.000270907
-0.000343124
-0.000130742
-0.000428611
-0.000179422
-0.00122627
-0.00163221
-0.000759276
-0.00110201
-0.000906377
-0.000826696
-0.00119938
-5.05171e-05
4.58051e-05
-0.000167781
-9.02737e-05
-4.20749e-05
7.95992e-05
-0.000308905
-0.0010386
0.00013805
-0.000201865
-0.00209088
-0.000675614
-0.0017103
-0.00103933
-0.000873275
-0.000942076
-0.00169968
-0.00067427
-0.001521
-0.000503287
-0.000980912
0.000281558
0.00207758
-0.000363334
-0.00025892
0.00144844
-0.000454549
0.000542867
0.000818481
0.000663338
-0.000281531
-0.000279887
0.000272269
0.000271562
-0.000986838
0.00116096
0.001924
0.000199825
0.000201862
-3.06487e-05
0.00148656
0.00148606
0.000283514
0.00207286
-0.000365655
-0.000257577
0.00144519
-0.000453819
0.000543111
-4.73067e-05
-0.000207533
-0.000180333
-0.000452495
-0.000154905
-0.000351466
-0.000107973
-4.8342e-05
4.73544e-05
-0.000164886
-8.53086e-05
-3.9761e-05
8.18386e-05
-0.000304708
-0.00146521
-0.000574212
-0.000569075
-9.67114e-05
-0.00154345
-0.000463375
-0.000454933
-0.00125189
-0.000645677
-0.000639115
-0.0013143
-0.00076981
-0.00132998
-0.00131415
-0.00124218
-0.0016339
-0.000757095
-0.00109353
-0.000912509
-0.000827903
-0.00120813
-0.00111733
-0.000772214
0.00032643
-0.000689518
-0.00056838
-0.000320655
-0.00132406
-0.000995821
-4.13011e-05
-6.53694e-05
-3.92459e-05
-0.000485883
-0.000460792
-0.000515494
-0.0009821
-0.0019194
-0.0004625
-0.000454371
8.61137e-06
-0.00160784
-0.00157975
-0.00113805
-0.000741186
0.000336712
-0.000701228
-0.000554839
-0.000343713
-0.00133065
-5.11497e-05
-0.000183417
-0.000208493
-0.00046162
-0.000157557
-0.000358517
-0.000110703
0.00215476
0.00138575
0.00118351
0.000779035
0.000776048
0.000996674
0.00289886
0.00304014
0.00447195
0.00181708
0.00181493
0.0015
0.00429102
0.00429011
0.00215623
0.00138201
0.00117762
0.00077382
0.000771725
0.000990344
0.00289788
-0.000388686
0.000151058
-0.000444307
-0.000475325
8.41669e-05
-0.000473623
-0.000457868
-0.000495783
-0.000642576
-0.000502685
-0.000908182
-0.000649437
-0.000393188
-0.00061342
-0.00172556
-0.000427541
-0.000429004
-0.000562662
-0.000576667
-0.000910377
-0.000913347
-0.000907604
0.000256319
0.000255233
-0.000664253
-4.28089e-05
-0.000791012
-0.000791145
-0.0010376
0.000137824
-0.000203485
-0.00209094
-0.000676571
-0.001712
-0.00103882
-0.00153759
-0.00221287
-0.00102693
-0.00204363
-0.00174622
-0.00186236
-0.00149636
-0.00225183
-0.000649329
-0.00104266
-0.00105441
-0.0010248
-0.00103103
-0.0017401
-0.0016389
-0.00157431
-0.00236954
-0.00236854
-0.00211165
-0.00160031
-0.00159971
-0.0015334
-0.00221308
-0.0010314
-0.0020419
-0.00174529
-0.00185754
-0.00149404
-0.000392413
-0.000444291
0.000149342
-0.000476458
8.34224e-05
-0.000476255
-0.000458677
-0.000498321
-0.000642308
-0.000920558
-0.000500924
-0.000649898
-0.000397175
-0.00061194
-0.00087724
-0.000826096
-0.000830197
-0.000202113
-0.00113715
-0.000604997
-0.000606781
-0.000934678
-0.00177633
-0.00177481
-0.00119583
-0.0015299
-0.00114165
-0.00113907
-0.000873764
-0.000943449
-0.00169908
-0.000673526
-0.00151995
-0.000503441
-0.000981665
0.00124401
0.00228114
0.00166046
0.00224744
0.000949252
0.00491809
0.00224803
0.00343595
0.00516788
0.00513918
0.00427486
0.00326571
0.00360443
0.00360078
0.00242709
0.00167552
0.00343997
0.00232072
0.00330191
0.0014668
0.0025094
0.000628971
4.95031e-05
0.000136775
3.68828e-05
0.000194456
0.000193601
0.000757428
0.0024345
0.00167285
0.00344899
0.00231655
0.00331508
0.00146008
0.0025158
0.000623688
4.6554e-05
3.47586e-05
0.000135314
0.000193338
0.00018912
0.000756455
0.00171056
0.000534771
0.000325445
0.000325419
0.000803595
0.000802292
0.00150154
0.00199407
0.00145102
0.00144861
0.000793991
0.00309939
0.000933842
0.000930503
-0.000314122
1.19745e-05
-0.000235807
-0.000313095
-0.000107517
-0.000250295
-0.000449454
-0.000313595
1.09235e-05
-0.000237069
-0.000314066
-0.000108581
-0.000249497
-0.000449543
0.00303218
0.00269142
0.00268633
0.00465603
0.00191839
0.00332747
0.00332729
0.00030022
0.000546629
0.000409403
0.000166341
0.000228063
0.000167064
0.000165823
0.0004018
0.000337756
0.000244467
3.57767e-05
0.000448646
0.000360613
0.00015141
0.000400222
0.000337019
0.00024195
3.37134e-05
0.000446587
0.000357833
0.000149882
0.00260598
0.000676331
0.00181036
0.00156444
0.00147604
0.00128527
0.0030502
0.000407345
0.000939561
0.000592599
0.000365604
0.00086263
0.000400328
0.000567965
0.00259421
0.000687847
0.00181785
0.00154949
0.00148742
0.00127475
0.0030397
0.000403193
0.000931425
0.000361711
0.000589635
0.000859491
0.00039743
0.000557936
0.0047307
0.00474506
0.00440952
0.00251786
0.00339934
0.00292076
0.00292094
0.000692039
0.000990768
0.000754286
0.00055364
0.000399823
0.00125005
0.00103035
0.000690271
0.000990814
0.000824459
0.00103254
0.000399275
0.00124954
0.000551341
0.000734167
0.000996533
0.00147405
0.00112012
0.000908288
0.00110333
0.000949534
0.000727704
0.00147601
0.00099791
0.00111855
0.000899305
0.00110289
0.000949991
0.0019685
0.00363745
0.00337686
0.00207305
0.00178316
0.00161837
0.00230314
0.00193788
0.00365785
0.00338283
0.00204572
0.00178341
0.0016162
0.00230587
0.0017624
0.000626878
0.00062829
0.00065134
0.00111495
0.00102516
0.00102382
0.00124305
0.00123877
0.00345903
0.00121897
0.00198498
0.00138821
0.00138758
)
;

boundaryField
{
    inlet
    {
        type            fixedValue;
        value           uniform 0;
    }
    wall
    {
        type            zeroGradient;
    }
    outlet
    {
        type            fixedValue;
        value           uniform 0;
    }
    procBoundary1to0
    {
        type            processor;
        value           nonuniform List<scalar> 
317
(
4.72003e-06
4.72761e-06
4.72458e-06
4.72893e-06
4.72749e-06
9.14595e-06
9.15072e-06
9.15096e-06
9.15315e-06
9.15335e-06
2.10764e-05
2.10863e-05
2.10853e-05
2.10909e-05
2.10906e-05
2.9037e-05
2.9048e-05
2.90474e-05
2.90536e-05
2.90537e-05
3.92104e-05
3.92269e-05
3.92254e-05
3.92349e-05
3.92344e-05
4.85914e-05
4.8613e-05
4.86109e-05
4.86234e-05
4.86225e-05
5.7953e-05
5.79842e-05
5.79818e-05
5.80004e-05
5.79995e-05
6.78966e-05
6.79388e-05
6.7935e-05
6.79605e-05
6.79592e-05
7.71922e-05
7.72538e-05
7.72502e-05
7.72876e-05
7.72866e-05
8.72445e-05
8.7328e-05
8.73282e-05
8.73843e-05
8.73876e-05
9.69527e-05
9.70855e-05
9.711e-05
9.72086e-05
9.72343e-05
0.000106978
0.000107175
0.000107282
0.000107536
0.000107651
0.000117325
0.000117714
0.00011799
0.000118464
0.000118687
0.000126989
0.000127735
0.000128189
0.000128684
0.000128845
0.000137112
0.000137903
0.000138276
0.000138781
0.00013891
0.000144696
0.000145459
0.000145702
0.000146257
0.000146387
0.00015265
0.000153729
0.000154055
0.000154775
0.000154948
0.000156513
0.000157911
0.000158241
0.000159129
0.000159313
0.000163823
0.000165858
0.000166519
0.000167771
0.000168127
0.000164618
0.000167275
0.000168089
0.000169792
0.000170316
0.000173731
0.000177519
0.000179189
0.000181504
0.000182542
0.000171334
0.000176464
0.000178911
0.000182323
0.000184314
0.000184922
0.000191678
0.000196108
0.000200323
0.000203473
0.000178769
0.000188634
0.000197016
0.000204262
0.000213404
0.000198477
0.000209537
0.000220042
0.000228181
0.000237455
0.000191835
0.000208941
0.00023923
0.000257045
0.000301359
0.000212572
0.000228976
0.000246957
0.00026861
0.000305117
0.000214908
0.000238093
0.00033388
0.00040215
0.000586616
0.000217258
0.000254361
0.000284053
0.000352541
0.000612742
0.000219141
0.000254205
0.000452982
0.00082712
0.00165693
0.000199022
0.00022569
0.000250225
0.000736136
0.0017838
0.000100984
0.000112825
-1.58427e-05
0.000185055
-0.00197446
0.000157175
0.000190039
0.000209459
0.000261122
-6.52439e-05
0.000114679
5.77654e-05
0.000275768
0.000147806
0.000922871
3.28922e-05
-3.36631e-05
-0.000179396
-0.00024995
0.00019511
1.81392e-05
-3.16151e-05
-8.6453e-05
-0.000266218
-0.00114723
-9.12058e-06
-3.78831e-05
-0.000114732
-0.000269795
-0.000399688
-1.09047e-05
-4.9674e-05
-8.17478e-05
-0.000159262
-0.000220197
-1.74123e-05
-1.95753e-05
-5.05793e-05
-6.87664e-05
-8.8621e-05
-9.66957e-06
-3.182e-05
-5.5542e-05
-7.83544e-05
-9.66112e-05
0.00146196
0.000101179
7.31499e-05
0.0077924
0.000446904
-0.00074375
-0.000250347
-0.000389245
0.000162302
-0.000539194
-0.000975335
0.00012757
0.000198482
0.0013164
0.000929618
0.00110815
0.000117529
0.00023552
0.00342583
0.00215275
0.00196937
-0.000383593
-0.00095432
-0.000259153
0.00050029
-0.00242742
-0.00135265
-0.000518259
-0.000429308
-0.000178103
-0.00242592
-0.000678354
-0.000507647
-0.000759712
-0.00120731
-0.00109596
-0.000201574
-0.00103917
-0.00209046
-0.00170151
-0.000979545
-0.000673276
0.000199945
0.00148781
0.0019251
0.00208081
0.000544822
-0.000258083
-0.000457302
-0.000107321
-0.000208343
-0.00131633
-0.00133026
-0.000646428
-0.000477447
-0.00159723
-0.00190058
-0.0007576
-0.00133031
-0.000689885
0.00181925
0.00429985
0.00447561
0.0013896
0.00290186
0.000779405
-0.000474601
-0.000457025
0.00015166
-0.000501906
-0.000612883
-0.000642886
-0.000664052
-0.000790897
0.000256932
-0.00236963
-0.00160048
-0.00157431
-0.00221269
-0.00149663
-0.0020424
-0.00119368
-0.00114069
-0.00177638
0.00227983
0.00492653
0.00224572
0.00427958
0.00360822
0.00516997
0.00344533
0.00252845
0.00231317
0.000138593
0.000757083
4.87165e-05
0.004659
0.00333265
0.00269673
0.00181299
0.00304958
0.00155971
0.000592607
0.000569188
0.000939304
0.00473194
0.00292284
0.00340467
0.000990545
0.00125056
0.000553397
0.00112187
0.000953699
0.000996632
0.00178356
0.00230938
0.00364169
)
;
    }
    procBoundary1to3
    {
        type            processor;
        value           nonuniform List<scalar> 
317
(
4.72734e-06
4.72864e-06
4.72437e-06
4.72738e-06
4.71976e-06
9.15347e-06
9.15341e-06
9.15144e-06
9.15152e-06
9.14736e-06
2.10905e-05
2.10908e-05
2.10852e-05
2.10865e-05
2.10767e-05
2.90539e-05
2.9054e-05
2.90481e-05
2.90492e-05
2.90388e-05
3.92345e-05
3.9235e-05
3.92258e-05
3.92276e-05
3.92113e-05
4.86229e-05
4.86241e-05
4.8612e-05
4.86145e-05
4.85933e-05
5.79998e-05
5.80011e-05
5.79827e-05
5.79855e-05
5.79543e-05
6.79596e-05
6.79615e-05
6.79363e-05
6.79404e-05
6.78984e-05
7.72867e-05
7.72884e-05
7.72512e-05
7.7255e-05
7.71934e-05
8.73874e-05
8.73847e-05
8.73287e-05
8.73287e-05
8.72453e-05
9.72338e-05
9.72085e-05
9.71098e-05
9.70854e-05
9.69528e-05
0.000107649
0.000107535
0.00010728
0.000107174
0.000106977
0.000118685
0.000118462
0.000117988
0.000117712
0.000117324
0.000128842
0.000128681
0.000128184
0.000127731
0.000126983
0.000138906
0.000138776
0.000138268
0.000137894
0.000137103
0.000146381
0.00014625
0.000145688
0.000145443
0.00014468
0.000154947
0.00015477
0.00015404
0.000153713
0.000152632
0.000159319
0.000159129
0.000158225
0.000157892
0.000156489
0.000168151
0.000167788
0.000166514
0.00016585
0.000163809
0.000170357
0.000169824
0.000168092
0.000167272
0.000164605
0.000182619
0.000181568
0.000179216
0.00017754
0.000173739
0.000184416
0.000182401
0.000178946
0.000176493
0.000171352
0.000203641
0.000200457
0.000196185
0.000191741
0.000184961
0.000213563
0.000204358
0.000197058
0.000188679
0.000178824
0.000237759
0.000228394
0.000220137
0.00020962
0.000198481
0.00030137
0.00025708
0.000239212
0.000208953
0.00019185
0.000305807
0.000268674
0.000246931
0.000228984
0.000212371
0.000585622
0.000402173
0.000333746
0.00023811
0.000214873
0.000615662
0.000351879
0.000284364
0.000253696
0.000216446
0.00228776
0.000993602
0.000452709
0.000253103
0.000217921
0.00776044
0.00146019
0.000249141
0.000223032
0.000197539
-0.00052838
-0.000248269
-1.52378e-05
0.000108879
9.96237e-05
3.45043e-05
0.000229296
0.000200711
0.000185652
0.000154973
0.00339433
0.0010508
0.000269973
5.34839e-05
0.000111962
0.00049887
-0.000386954
-0.000181509
-3.71937e-05
3.08076e-05
-0.00242996
-0.000518346
-8.71807e-05
-3.42843e-05
1.64096e-05
-0.000402806
-0.000271084
-0.000116377
-3.94236e-05
-1.06705e-05
-0.000220391
-0.000159918
-8.223e-05
-5.05577e-05
-1.20482e-05
-8.92569e-05
-6.91384e-05
-5.12193e-05
-2.02074e-05
-1.81915e-05
-9.64007e-05
-7.84502e-05
-5.57187e-05
-3.19561e-05
-1.01013e-05
0.000450082
-0.000742426
0.00178305
0.000101852
6.7723e-05
0.000729904
-0.000966875
0.000133018
-0.00196648
-0.000383828
0.000146402
0.000182272
0.00139039
0.00092355
2.03245e-05
0.00214999
0.00196042
0.000919005
0.000111454
0.000228861
0.000122702
-0.00242857
-0.00135337
0.000191217
-0.000948996
-0.000262883
-0.00025517
-0.000672227
-0.000507409
-0.00114845
-0.000426927
-0.000179962
-0.000269308
-0.00129342
-0.0012627
-0.000627028
-0.000457358
-0.000107426
-0.00020627
-0.000664588
-0.000791715
0.000254321
-0.000478245
-0.000460149
0.000148748
-0.0011963
-0.00113904
-0.00177461
0.000204755
0.00148629
0.00192373
0.00207436
0.000542619
-0.000256496
-0.000330128
-0.00140347
-0.00190712
-0.000703276
-0.00132089
-0.000681286
-0.000753423
-0.00120702
-0.00108882
0.00181346
0.00428794
0.00447206
0.00137739
0.00288949
0.000771587
-0.0023687
-0.00160009
-0.00157447
-0.00221377
-0.00149538
-0.00204311
-0.000204759
-0.00103989
-0.00209245
-0.000503755
-0.00061326
-0.000642566
-0.0017009
-0.000981645
-0.000672729
0.0049104
0.00224516
0.00165488
0.00427126
0.00359995
0.0051373
0.00344275
0.00251334
0.00231557
0.000136446
0.000756666
4.74282e-05
0.00466654
0.00333439
0.00266103
0.0018075
0.00303589
0.00153947
0.000587286
0.000546195
0.000917832
0.00474194
0.0029173
0.00339434
0.00124962
0.000552223
0.000823963
0.00111866
0.000949916
0.000996662
0.00178064
0.00229949
0.00363966
)
;
    }
}


// ************************************************************************* //
