/*--------------------------------*- C++ -*----------------------------------*\
| =========                 |                                                 |
| \\      /  F ield         | OpenFOAM: The Open Source CFD Toolbox           |
|  \\    /   O peration     | Version:  5.x                                   |
|   \\  /    A nd           | Web:      www.OpenFOAM.org                      |
|    \\/     M anipulation  |                                                 |
\*---------------------------------------------------------------------------*/
FoamFile
{
    version     2.0;
    format      ascii;
    class       volScalarField;
    location    "0.11";
    object      p;
}
// * * * * * * * * * * * * * * * * * * * * * * * * * * * * * * * * * * * * * //

dimensions      [0 2 -2 0 0 0 0];

internalField   nonuniform List<scalar> 
160
(
2.26274e-07
2.9481e-07
2.57193e-07
2.02049e-07
6.28121e-07
8.49214e-07
7.06412e-07
4.83743e-07
8.92063e-07
1.6031e-06
1.28804e-06
5.91217e-07
5.6255e-07
1.93439e-06
1.3069e-06
1.27064e-07
-1.45018e-06
-2.66711e-06
-2.00154e-06
-1.30864e-06
-2.47172e-06
-4.76236e-06
-3.36997e-06
-1.89334e-06
-9.52794e-07
2.2458e-06
6.49511e-07
-5.71304e-07
-1.2457e-06
1.62981e-06
8.56875e-07
9.30483e-08
-5.25858e-07
-1.3195e-08
-7.64081e-08
-3.02722e-07
-6.41098e-07
-6.45972e-07
-6.03426e-07
-5.50596e-07
2.9481e-07
6.74593e-07
5.0625e-07
4.07241e-07
8.49214e-07
2.58309e-06
1.80687e-06
1.21437e-06
1.6031e-06
6.79903e-06
4.3626e-06
2.10991e-06
1.93439e-06
1.61211e-05
9.1851e-06
2.58294e-06
-2.66711e-06
1.17625e-05
3.6507e-06
1.14506e-06
-4.76236e-06
-1.57942e-05
-9.99298e-06
-2.4097e-06
2.2458e-06
-1.56193e-05
-6.39719e-06
-2.91108e-06
1.62981e-06
-2.11607e-06
-1.24329e-06
-1.20929e-06
-1.3195e-08
-2.3003e-06
-1.26562e-06
-1.56167e-06
-6.45972e-07
-2.6591e-06
-1.70525e-06
-1.74379e-06
2.57193e-07
5.0625e-07
4.20174e-07
3.42287e-07
7.06412e-07
1.80687e-06
1.42789e-06
9.72163e-07
1.28804e-06
4.3626e-06
3.14424e-06
1.53689e-06
1.3069e-06
9.1851e-06
6.0237e-06
1.61578e-06
-2.00154e-06
3.6507e-06
1.76886e-06
-1.62214e-08
-3.36997e-06
-9.99298e-06
-7.48697e-06
-2.23273e-06
6.49511e-07
-6.39719e-06
-4.27696e-06
-1.64919e-06
8.56875e-07
-1.24329e-06
-8.6426e-07
-6.81546e-07
-7.64081e-08
-1.26562e-06
-8.26183e-07
-9.62499e-07
-6.03426e-07
-1.70525e-06
-1.39479e-06
-1.40219e-06
2.02049e-07
4.07241e-07
3.42287e-07
3.35361e-07
4.83743e-07
1.21437e-06
9.72163e-07
8.52098e-07
5.91217e-07
2.10991e-06
1.53689e-06
1.20715e-06
1.27064e-07
2.58294e-06
1.61578e-06
1.09497e-06
-1.30864e-06
1.14506e-06
-1.62214e-08
1.85983e-07
-1.89334e-06
-2.4097e-06
-2.23273e-06
-9.6926e-07
-5.71304e-07
-2.91108e-06
-1.64919e-06
-1.19024e-06
9.30483e-08
-1.20929e-06
-6.81546e-07
-1.27233e-06
-3.02722e-07
-1.56167e-06
-9.62499e-07
-1.39835e-06
-5.50596e-07
-1.74379e-06
-1.40219e-06
-1.6207e-06
)
;

boundaryField
{
    inlet
    {
        type            zeroGradient;
    }
    outlet
    {
        type            totalPressure;
        rho             rho;
        psi             none;
        gamma           1;
        p0              uniform 0;
        value           nonuniform List<scalar> 
16
(
-3.05284e-13
0
0
0
0
0
0
0
0
0
0
0
0
0
0
0
)
;
    }
    walls
    {
        type            zeroGradient;
    }
    procBoundary0to1
    {
        type            processor;
        value           nonuniform List<scalar> 
16
(
-8.62044e-07
-9.26297e-07
-9.67221e-07
-8.12907e-07
-9.26297e-07
-2.05284e-06
-1.63549e-06
-1.68159e-06
-9.67221e-07
-1.63549e-06
-1.56287e-06
-1.54178e-06
-8.12907e-07
-1.68159e-06
-1.54178e-06
-1.65604e-06
)
;
    }
}


// ************************************************************************* //
