/*--------------------------------*- C++ -*----------------------------------*\
| =========                 |                                                 |
| \\      /  F ield         | OpenFOAM: The Open Source CFD Toolbox           |
|  \\    /   O peration     | Version:  5.x                                   |
|   \\  /    A nd           | Web:      www.OpenFOAM.org                      |
|    \\/     M anipulation  |                                                 |
\*---------------------------------------------------------------------------*/
FoamFile
{
    version     2.0;
    format      ascii;
    class       surfaceScalarField;
    location    "0.11";
    object      phi;
}
// * * * * * * * * * * * * * * * * * * * * * * * * * * * * * * * * * * * * * //

dimensions      [0 3 -1 0 0 0 0];

internalField   nonuniform List<scalar> 
384
(
-2.88519e-12
4.62156e-12
-2.88519e-12
-8.71033e-13
-6.1135e-12
-1.12031e-11
3.64426e-13
-5.02112e-12
-8.84238e-12
-1.51255e-12
-7.86737e-12
-7.71927e-12
7.36728e-12
-7.71927e-12
-1.93565e-12
-6.05901e-12
-4.34868e-11
1.82492e-12
-3.33794e-12
-3.229e-11
3.75851e-12
-2.46849e-11
-1.7258e-11
1.39613e-11
-1.7258e-11
-1.71691e-12
-8.31122e-12
-1.09337e-10
8.83556e-12
-2.1393e-12
-7.48007e-11
1.50702e-11
-4.87613e-11
-2.01528e-11
1.88916e-11
-2.01528e-11
-1.77019e-12
2.6571e-12
-2.54519e-10
1.08303e-11
9.16769e-12
-1.63088e-10
2.86899e-11
-8.35098e-11
-3.51297e-11
7.55853e-12
-3.51297e-11
1.96135e-12
-3.83434e-11
-6.48113e-10
3.5234e-11
-8.27216e-12
-3.77175e-10
4.28263e-11
-1.35204e-10
-1.00455e-11
-1.28115e-11
-1.00455e-11
2.45069e-12
-1.82934e-10
-5.57135e-10
2.52718e-11
-7.82464e-11
-3.24203e-10
3.07963e-11
-1.2639e-10
4.83728e-12
5.35196e-12
4.83728e-12
3.03995e-11
-2.48896e-10
-3.16297e-11
3.67598e-11
-1.19095e-10
-5.5718e-11
1.25626e-11
-4.00519e-11
-4.79358e-12
1.32298e-11
-4.79358e-12
2.58031e-11
-2.61939e-10
1.95915e-10
3.32396e-11
-1.24951e-10
8.20563e-11
2.09528e-11
1.83046e-11
-3.04884e-13
2.71884e-11
-3.04884e-13
8.69199e-12
-1.96603e-10
3.25285e-10
2.89192e-11
-8.68972e-11
1.273e-10
2.58639e-11
7.48836e-11
4.56414e-11
4.56414e-11
3.68343e-12
4.95522e-10
-2.68898e-11
3.15191e-10
1.31428e-10
-1.12031e-11
-6.1135e-12
-8.71033e-13
-1.44173e-12
-7.556e-11
-1.44173e-12
2.04493e-12
-5.20487e-11
-2.16556e-12
-3.55587e-11
-2.74485e-12
-4.34868e-11
-6.05901e-12
-1.93565e-12
-2.37461e-12
-1.57784e-10
-2.37461e-12
1.37365e-11
-9.55671e-11
-4.88277e-12
-4.65706e-11
-6.49881e-12
-1.09337e-10
-8.31122e-12
-1.71691e-12
4.96321e-12
-3.86384e-10
4.96321e-12
5.06658e-11
-2.11851e-10
-4.21929e-12
-5.99378e-11
-9.20308e-12
-2.54519e-10
2.6571e-12
-1.77019e-12
3.35114e-11
-9.62445e-10
3.35114e-11
1.3595e-10
-4.78227e-10
8.48554e-13
-6.41987e-11
-1.00352e-11
-6.48113e-10
-3.83434e-11
1.96135e-12
1.64807e-10
-2.58828e-09
1.64807e-10
4.50243e-10
-1.18241e-09
4.15729e-11
5.67849e-12
-5.44201e-12
-5.57135e-10
-1.82934e-10
2.45069e-12
1.14141e-10
-3.93084e-09
1.14141e-10
4.21094e-10
-1.83777e-09
2.42063e-11
6.31166e-11
-7.0605e-12
-3.16297e-11
-2.48896e-10
3.03995e-11
-5.97837e-11
-3.87453e-09
-5.97837e-11
3.01832e-11
-1.97467e-09
-8.79075e-12
3.04736e-11
-1.82873e-11
1.95915e-10
-2.61939e-10
2.58031e-11
-4.75213e-11
-3.38766e-09
-4.75213e-11
-1.15072e-10
-1.81676e-09
-8.30346e-12
-1.08544e-11
-8.15564e-12
3.25285e-10
-1.96603e-10
8.69199e-12
-8.20369e-11
-2.57301e-09
-8.20369e-11
-1.88494e-10
-1.53681e-09
-4.6194e-11
-6.34938e-11
-1.30515e-12
4.95522e-10
3.68343e-12
-8.80939e-11
-8.80939e-11
-3.54155e-10
-2.11426e-11
5.2521e-12
-8.84238e-12
-5.02112e-12
3.64426e-13
-2.16556e-12
-5.20487e-11
2.04493e-12
8.68279e-13
-4.23787e-11
8.68279e-13
-2.97528e-11
-9.61227e-13
-3.229e-11
-3.33794e-12
1.82492e-12
-4.88277e-12
-9.55671e-11
1.37365e-11
8.56778e-12
-6.92797e-11
8.56778e-12
-3.25986e-11
4.53305e-13
-7.48007e-11
-2.1393e-12
8.83556e-12
-4.21929e-12
-2.11851e-10
5.06658e-11
3.26532e-11
-1.43025e-10
3.26532e-11
-3.22947e-11
5.23833e-12
-1.63088e-10
9.16769e-12
1.08303e-11
8.48554e-13
-4.78227e-10
1.3595e-10
8.72534e-11
-3.15834e-10
8.72534e-11
-2.04191e-11
1.64011e-11
-3.77175e-10
-8.27216e-12
3.5234e-11
4.15729e-11
-1.18241e-09
4.50243e-10
2.79161e-10
-7.91011e-10
2.79161e-10
2.76564e-11
4.30795e-11
-3.24203e-10
-7.82464e-11
2.52718e-11
2.42063e-11
-1.83777e-09
4.21094e-10
2.50164e-10
-1.24293e-09
2.50164e-10
4.70116e-11
3.96616e-11
-5.5718e-11
-1.19095e-10
3.67598e-11
-8.79075e-12
-1.97467e-09
3.01832e-11
5.54107e-11
-1.37133e-09
5.54107e-11
1.39512e-11
6.62564e-12
8.20563e-11
-1.24951e-10
3.32396e-11
-8.30346e-12
-1.81676e-09
-1.15072e-10
-3.80801e-11
-1.31178e-09
-3.80801e-11
-1.13126e-11
-6.33892e-12
1.273e-10
-8.68972e-11
2.89192e-11
-4.6194e-11
-1.53681e-09
-1.88494e-10
-3.28104e-11
-1.33854e-09
-3.28104e-11
-6.70716e-11
-1.65321e-11
3.15191e-10
-2.68898e-11
-2.11426e-11
-3.54155e-10
-2.24439e-10
-2.24439e-10
-4.85411e-11
-7.86737e-12
-1.51255e-12
-2.74485e-12
-3.55587e-11
-9.61227e-13
-2.97528e-11
-2.82423e-11
-2.46849e-11
3.75851e-12
-6.49881e-12
-4.65706e-11
4.53305e-13
-3.25986e-11
-2.52941e-11
-4.87613e-11
1.50702e-11
-9.20308e-12
-5.99378e-11
5.23833e-12
-3.22947e-11
-1.67299e-11
-8.35098e-11
2.86899e-11
-1.00352e-11
-6.41987e-11
1.64011e-11
-2.04191e-11
3.01165e-12
-1.35204e-10
4.28263e-11
-5.44201e-12
5.67849e-12
4.30795e-11
2.76564e-11
4.42671e-11
-1.2639e-10
3.07963e-11
-7.0605e-12
6.31166e-11
3.96616e-11
4.70116e-11
8.33804e-11
-4.00519e-11
1.25626e-11
-1.82873e-11
3.04736e-11
6.62564e-12
1.39512e-11
1.04285e-10
1.83046e-11
2.09528e-11
-8.15564e-12
-1.08544e-11
-6.33892e-12
-1.13126e-11
1.0004e-10
7.48836e-11
2.58639e-11
-1.30515e-12
-6.34938e-11
-1.65321e-11
-6.70716e-11
6.66185e-11
1.31428e-10
5.2521e-12
-4.85411e-11
)
;

boundaryField
{
    inlet
    {
        type            calculated;
        value           nonuniform 0();
    }
    outlet
    {
        type            calculated;
        value           nonuniform List<scalar> 
16
(
-3.4612e-12
5.6187e-12
5.26857e-12
3.2024e-12
5.6187e-12
5.60373e-11
4.18852e-11
3.16302e-11
5.26857e-12
4.18852e-11
3.6311e-11
2.85265e-11
3.2024e-12
3.16302e-11
2.85265e-11
2.82204e-11
)
;
    }
    walls
    {
        type            calculated;
        value           nonuniform List<scalar> 
160
(
2.30501e-12
6.34642e-12
1.3961e-11
1.76877e-11
4.07963e-11
2.02306e-11
-1.3919e-11
8.54658e-13
-6.67443e-12
-4.85713e-11
9.68376e-12
3.76487e-11
9.60479e-11
2.25168e-10
6.52023e-10
6.8923e-10
7.20293e-11
-2.13469e-10
-3.99617e-10
-5.61852e-10
7.35948e-12
2.68462e-11
6.30496e-11
1.39181e-10
3.61342e-10
3.71356e-10
9.0206e-11
-8.36362e-11
-1.85581e-10
-3.34468e-10
6.36165e-12
2.02751e-11
4.13982e-11
7.44505e-11
1.2962e-10
1.38845e-10
6.54697e-11
-1.75331e-11
-8.13923e-11
-1.36173e-10
1.8028e-13
9.63674e-13
4.88707e-12
6.26988e-12
2.66813e-11
2.48473e-11
2.95757e-11
2.4078e-11
3.05168e-11
-1.94256e-11
8.50918e-13
6.56226e-12
2.44748e-11
6.67364e-11
2.50604e-10
2.44326e-10
4.10617e-11
-4.72838e-11
-5.9666e-11
-1.98772e-10
3.10993e-13
4.46141e-12
1.79079e-11
4.89415e-11
1.82564e-10
1.84087e-10
6.35581e-11
-1.4633e-11
3.81755e-11
-1.52399e-10
-9.50252e-13
-1.02082e-12
9.5624e-13
6.53038e-12
2.24518e-11
2.01049e-11
-3.82648e-12
-4.21675e-12
1.7878e-13
-2.62168e-11
2.30501e-12
6.34642e-12
1.3961e-11
1.76877e-11
4.07963e-11
2.02306e-11
-1.3919e-11
8.54658e-13
-6.67443e-12
-4.85713e-11
9.68376e-12
3.76487e-11
9.60479e-11
2.25168e-10
6.52023e-10
6.8923e-10
7.20293e-11
-2.13469e-10
-3.99617e-10
-5.61852e-10
7.35948e-12
2.68462e-11
6.30496e-11
1.39181e-10
3.61342e-10
3.71356e-10
9.0206e-11
-8.36362e-11
-1.85581e-10
-3.34468e-10
6.36165e-12
2.02751e-11
4.13982e-11
7.44505e-11
1.2962e-10
1.38845e-10
6.54697e-11
-1.75331e-11
-8.13923e-11
-1.36173e-10
1.8028e-13
9.63674e-13
4.88707e-12
6.26988e-12
2.66813e-11
2.48473e-11
2.95757e-11
2.4078e-11
3.05168e-11
-1.94256e-11
8.50918e-13
6.56226e-12
2.44748e-11
6.67364e-11
2.50604e-10
2.44326e-10
4.10617e-11
-4.72838e-11
-5.9666e-11
-1.98772e-10
3.10993e-13
4.46141e-12
1.79079e-11
4.89415e-11
1.82564e-10
1.84087e-10
6.35581e-11
-1.4633e-11
3.81755e-11
-1.52399e-10
-9.50252e-13
-1.02082e-12
9.5624e-13
6.53038e-12
2.24518e-11
2.01049e-11
-3.82648e-12
-4.21675e-12
1.7878e-13
-2.62168e-11
)
;
    }
    procBoundary0to1
    {
        type            processor;
        value           nonuniform List<scalar> 
16
(
3.30481e-11
-8.83154e-11
-3.70471e-11
2.31442e-11
-8.83154e-11
-1.40578e-09
-9.3441e-10
-9.27009e-11
-3.70471e-11
-9.3441e-10
-9.31951e-10
-8.53183e-11
2.31442e-11
-9.27009e-11
-8.53183e-11
2.19698e-11
)
;
    }
}


// ************************************************************************* //
