/*--------------------------------*- C++ -*----------------------------------*\
| =========                 |                                                 |
| \\      /  F ield         | OpenFOAM: The Open Source CFD Toolbox           |
|  \\    /   O peration     | Version:  5.x                                   |
|   \\  /    A nd           | Web:      www.OpenFOAM.org                      |
|    \\/     M anipulation  |                                                 |
\*---------------------------------------------------------------------------*/
FoamFile
{
    version     2.0;
    format      ascii;
    class       volVectorField;
    location    "0.11";
    object      U;
}
// * * * * * * * * * * * * * * * * * * * * * * * * * * * * * * * * * * * * * //

dimensions      [0 1 -1 0 0 0 0];

internalField   nonuniform List<vector> 
160
(
(-3.82357e-07 5.6382e-07 -3.82357e-07)
(-3.92393e-07 -8.92016e-07 -1.62464e-06)
(4.86863e-08 -8.30061e-07 -1.22685e-06)
(3.97516e-08 -4.88175e-07 -1.05845e-06)
(-1.05909e-06 7.53823e-07 -1.05909e-06)
(-1.04493e-06 -1.2875e-06 -6.36672e-06)
(2.80065e-07 -9.6454e-07 -4.51305e-06)
(1.98159e-07 1.55048e-08 -3.3883e-06)
(-2.37417e-06 1.80872e-06 -2.37417e-06)
(-2.11234e-06 -2.3347e-07 -1.63953e-05)
(1.31184e-06 2.19398e-07 -1.0696e-05)
(9.19535e-07 1.34776e-06 -6.92361e-06)
(-3.1009e-06 2.33117e-06 -3.1009e-06)
(-2.71503e-06 -1.69238e-06 -3.8832e-05)
(1.88396e-06 -3.52228e-07 -2.38269e-05)
(1.23616e-06 3.01334e-06 -1.2397e-05)
(-6.28717e-06 2.74837e-06 -6.28717e-06)
(-4.84224e-06 1.02291e-06 -0.000107177)
(6.05564e-06 1.98773e-06 -5.89325e-05)
(4.1322e-06 5.4779e-06 -2.12237e-05)
(-2.78461e-06 -1.1606e-06 -2.78461e-06)
(-2.62726e-06 -1.75124e-05 -0.000108095)
(4.50781e-06 -6.04725e-06 -5.81071e-05)
(3.68397e-06 6.49073e-06 -2.21132e-05)
(1.59542e-06 -1.15611e-06 1.59542e-06)
(1.56425e-06 -3.89966e-05 -7.99128e-06)
(5.49559e-06 -1.71765e-05 -1.30392e-05)
(4.97319e-06 3.21337e-06 -1.00131e-05)
(-7.04579e-07 1.68696e-06 -7.04579e-07)
(4.6007e-07 -5.01496e-05 3.48959e-05)
(5.53702e-06 -2.57434e-05 1.37972e-05)
(4.00332e-06 1.38678e-06 3.06248e-06)
(9.66672e-07 2.17686e-06 9.66672e-07)
(-8.49102e-07 -4.31992e-05 6.43911e-05)
(3.24179e-06 -1.96803e-05 2.99282e-05)
(4.92738e-06 3.78957e-06 1.32714e-05)
(7.77237e-06 4.99862e-06 7.77237e-06)
(6.35275e-06 -2.50456e-05 9.02945e-05)
(-5.22279e-06 -1.13446e-05 5.37328e-05)
(-3.11852e-06 3.62075e-06 2.20233e-05)
(-1.62464e-06 -8.92016e-07 -3.92393e-07)
(-1.24992e-06 -9.07694e-06 -1.24992e-06)
(5.45997e-07 -6.7588e-06 -1.11266e-06)
(1.5576e-07 -5.05938e-06 -1.01715e-06)
(-6.36672e-06 -1.2875e-06 -1.04493e-06)
(-4.53521e-06 -1.66423e-05 -4.53521e-06)
(3.08706e-06 -1.08929e-05 -3.82532e-06)
(1.16715e-06 -6.1327e-06 -3.01984e-06)
(-1.63953e-05 -2.3347e-07 -2.11234e-06)
(-1.04714e-05 -3.37613e-05 -1.04714e-05)
(1.0512e-05 -1.97955e-05 -8.30531e-06)
(4.3615e-06 -7.93314e-06 -5.67975e-06)
(-3.8832e-05 -1.69238e-06 -2.71503e-06)
(-2.34639e-05 -9.68164e-05 -2.34639e-05)
(2.80523e-05 -5.10308e-05 -1.74015e-05)
(1.19834e-05 -1.16749e-05 -9.30011e-06)
(-0.000107177 1.02291e-06 -4.84224e-06)
(-5.73569e-05 -0.000170876 -5.73569e-05)
(9.24731e-05 -8.43537e-05 -4.06768e-05)
(4.05922e-05 -5.5695e-06 -1.4213e-05)
(-0.000108095 -1.75124e-05 -2.62726e-06)
(-5.75997e-05 -0.00065561 -5.75997e-05)
(9.16842e-05 -0.000319249 -4.05396e-05)
(3.75924e-05 6.32663e-06 -1.42598e-05)
(-7.99128e-06 -3.89966e-05 1.56425e-06)
(-1.23845e-05 -0.000550571 -1.23845e-05)
(4.37281e-06 -0.000283428 -1.27519e-05)
(5.88038e-06 9.77127e-06 -6.80554e-06)
(3.48959e-05 -5.01496e-05 4.6007e-07)
(1.54405e-05 -0.000560381 1.54405e-05)
(-2.59333e-05 -0.000298795 6.80399e-06)
(-7.57214e-06 2.52283e-07 9.67062e-07)
(6.43911e-05 -4.31992e-05 -8.49102e-07)
(2.70869e-05 -0.000473647 2.70869e-05)
(-4.81419e-05 -0.000261138 5.8258e-06)
(-9.48801e-06 -4.79532e-06 6.66266e-06)
(9.02945e-05 -2.50456e-05 6.35275e-06)
(5.19118e-05 -0.000309946 5.19118e-05)
(-7.50009e-05 -0.000214652 3.81047e-05)
(-3.17959e-05 -1.82836e-05 1.47446e-05)
(-1.22685e-06 -8.30061e-07 4.86863e-08)
(-1.11266e-06 -6.7588e-06 5.45997e-07)
(2.09201e-07 -5.84297e-06 2.09201e-07)
(6.51883e-08 -4.55341e-06 -8.79548e-08)
(-4.51305e-06 -9.6454e-07 2.80065e-07)
(-3.82532e-06 -1.08929e-05 3.08706e-06)
(1.60712e-06 -8.46419e-06 1.60712e-06)
(8.03962e-07 -4.82147e-06 2.95256e-07)
(-1.0696e-05 2.19398e-07 1.31184e-06)
(-8.30531e-06 -1.97955e-05 1.0512e-05)
(5.821e-06 -1.37611e-05 5.821e-06)
(3.18316e-06 -5.0279e-06 1.59293e-06)
(-2.38269e-05 -3.52228e-07 1.88396e-06)
(-1.74015e-05 -5.10308e-05 2.80523e-05)
(1.57334e-05 -3.41965e-05 1.57334e-05)
(8.70236e-06 -5.64446e-06 4.51375e-06)
(-5.89325e-05 1.98773e-06 6.05564e-06)
(-4.06768e-05 -8.43537e-05 9.24731e-05)
(4.93326e-05 -5.53699e-05 4.93326e-05)
(2.95633e-05 -1.60859e-07 1.10416e-05)
(-5.81071e-05 -6.04725e-06 4.50781e-06)
(-4.05396e-05 -0.000319249 9.16842e-05)
(4.84394e-05 -0.000215383 4.84394e-05)
(2.84148e-05 6.53558e-06 1.15057e-05)
(-1.30392e-05 -1.71765e-05 5.49559e-06)
(-1.27519e-05 -0.000283428 4.37281e-06)
(1.21652e-05 -0.000193499 1.21652e-05)
(9.64957e-06 6.09652e-06 3.1603e-06)
(1.37972e-05 -2.57434e-05 5.53702e-06)
(6.80399e-06 -0.000298795 -2.59333e-05)
(-8.13618e-06 -0.000214201 -8.13618e-06)
(-2.37742e-06 -1.40931e-06 -2.28951e-06)
(2.99282e-05 -1.96803e-05 3.24179e-06)
(5.8258e-06 -0.000261138 -4.81419e-05)
(-1.7842e-05 -0.000189988 -1.7842e-05)
(6.13504e-06 -3.20105e-06 -6.5081e-06)
(5.37328e-05 -1.13446e-05 -5.22279e-06)
(3.81047e-05 -0.000214652 -7.50009e-05)
(-4.32752e-05 -0.000221322 -4.32752e-05)
(-2.43824e-05 -2.11307e-05 -1.2263e-05)
(-1.05845e-06 -4.88175e-07 3.97516e-08)
(-1.01715e-06 -5.05938e-06 1.5576e-07)
(-8.79548e-08 -4.55341e-06 6.51883e-08)
(-1.5067e-07 -4.4848e-06 -1.5067e-07)
(-3.3883e-06 1.55048e-08 1.98159e-07)
(-3.01984e-06 -6.1327e-06 1.16715e-06)
(2.95256e-07 -4.82147e-06 8.03962e-07)
(-1.39622e-07 -4.11643e-06 -1.39622e-07)
(-6.92361e-06 1.34776e-06 9.19535e-07)
(-5.67975e-06 -7.93314e-06 4.3615e-06)
(1.59293e-06 -5.0279e-06 3.18316e-06)
(2.18114e-07 -3.3616e-06 2.18114e-07)
(-1.2397e-05 3.01334e-06 1.23616e-06)
(-9.30011e-06 -1.16749e-05 1.19834e-05)
(4.51375e-06 -5.64446e-06 8.70236e-06)
(1.14769e-06 -1.85655e-06 1.14769e-06)
(-2.12237e-05 5.4779e-06 4.1322e-06)
(-1.4213e-05 -5.5695e-06 4.05922e-05)
(1.10416e-05 -1.60859e-07 2.95633e-05)
(3.55237e-06 2.62821e-06 3.55237e-06)
(-2.21132e-05 6.49073e-06 3.68397e-06)
(-1.42598e-05 6.32663e-06 3.75924e-05)
(1.15057e-05 6.53558e-06 2.84148e-05)
(2.96729e-06 9.84963e-06 2.96729e-06)
(-1.00131e-05 3.21337e-06 4.97319e-06)
(-6.80554e-06 9.77127e-06 5.88038e-06)
(3.1603e-06 6.09652e-06 9.64957e-06)
(-7.02867e-07 1.50241e-05 -7.02867e-07)
(3.06248e-06 1.38678e-06 4.00332e-06)
(9.67062e-07 2.52283e-07 -7.57214e-06)
(-2.28951e-06 -1.40931e-06 -2.37742e-06)
(-5.58017e-07 1.57615e-05 -5.58017e-07)
(1.32714e-05 3.78957e-06 4.92738e-06)
(6.66266e-06 -4.79532e-06 -9.48801e-06)
(-6.5081e-06 -3.20105e-06 6.13504e-06)
(1.14674e-07 1.37715e-05 1.14674e-07)
(2.20233e-05 3.62075e-06 -3.11852e-06)
(1.47446e-05 -1.82836e-05 -3.17959e-05)
(-1.2263e-05 -2.11307e-05 -2.43824e-05)
(-4.15153e-06 5.27424e-06 -4.15153e-06)
)
;

boundaryField
{
    inlet
    {
        type            fixedValue;
        value           nonuniform 0();
    }
    outlet
    {
        type            zeroGradient;
    }
    walls
    {
        type            fixedValue;
        value           uniform (0 0 0);
    }
    procBoundary0to1
    {
        type            processor;
        value           nonuniform List<vector> 
16
(
(7.24712e-06 4.27654e-06 7.24712e-06)
(8.65424e-06 -5.95738e-06 6.46224e-05)
(-6.6818e-06 -2.28133e-06 4.54331e-05)
(-7.2114e-06 2.92653e-06 1.81255e-05)
(6.46224e-05 -5.95738e-06 8.65424e-06)
(4.78306e-05 -0.00011503 4.78306e-05)
(-5.43244e-05 -7.2831e-05 4.8696e-05)
(-3.31697e-05 -1.31849e-05 1.5032e-05)
(4.54331e-05 -2.28133e-06 -6.6818e-06)
(4.8696e-05 -7.2831e-05 -5.43244e-05)
(-3.92083e-05 -6.26392e-05 -3.92083e-05)
(-3.84173e-05 -8.32529e-06 -8.91679e-06)
(1.81255e-05 2.92653e-06 -7.2114e-06)
(1.5032e-05 -1.31849e-05 -3.31697e-05)
(-8.91679e-06 -8.32529e-06 -3.84173e-05)
(-4.84956e-06 1.03255e-06 -4.84956e-06)
)
;
    }
}


// ************************************************************************* //
