/*--------------------------------*- C++ -*----------------------------------*\
| =========                 |                                                 |
| \\      /  F ield         | OpenFOAM: The Open Source CFD Toolbox           |
|  \\    /   O peration     | Version:  5.x                                   |
|   \\  /    A nd           | Web:      www.OpenFOAM.org                      |
|    \\/     M anipulation  |                                                 |
\*---------------------------------------------------------------------------*/
FoamFile
{
    version     2.0;
    format      ascii;
    class       volVectorField;
    location    "0.11";
    object      Us;
}
// * * * * * * * * * * * * * * * * * * * * * * * * * * * * * * * * * * * * * //

dimensions      [0 1 -1 0 0 0 0];

internalField   nonuniform List<vector> 
160
(
(-1.13467e-14 -2.51653e-11 -1.13467e-14)
(-1.38403e-13 -3.06956e-10 -1.38403e-13)
(-1.31514e-13 -2.91678e-10 -1.31514e-13)
(-3.75782e-15 -8.33426e-12 -3.75782e-15)
(-5.45203e-13 -1.20918e-09 -5.45203e-13)
(-8.00424e-12 -1.77522e-08 -8.00424e-12)
(-7.70285e-12 -1.70837e-08 -7.70285e-12)
(-2.17249e-13 -4.81825e-10 -2.17249e-13)
(-2.40261e-11 -5.32862e-08 -2.40261e-11)
(-4.40988e-10 -9.78043e-07 -4.40988e-10)
(-4.29786e-10 -9.53198e-07 -4.29786e-10)
(-1.19697e-11 -2.65469e-08 -1.19697e-11)
(-8.82282e-10 -1.95676e-06 -8.82282e-10)
(-2.15923e-08 -4.78883e-05 -2.15923e-08)
(-2.13156e-08 -4.72748e-05 -2.13156e-08)
(-5.86521e-10 -1.30081e-06 -5.86521e-10)
(-2.16021e-08 -4.79102e-05 -2.16021e-08)
(-7.92839e-07 -0.00175839 -7.92839e-07)
(-7.92978e-07 -0.0017587 -7.92978e-07)
(-2.1604e-08 -4.79143e-05 -2.1604e-08)
(-5.84459e-10 -1.29624e-06 -5.84459e-10)
(-2.14547e-08 -4.75833e-05 -2.14547e-08)
(-2.14549e-08 -4.75836e-05 -2.14549e-08)
(-5.84543e-10 -1.29643e-06 -5.84543e-10)
(-7.80625e-12 -1.7313e-08 -7.80625e-12)
(-2.86557e-10 -6.3554e-07 -2.86557e-10)
(-2.9031e-10 -6.43862e-07 -2.9031e-10)
(-1.18633e-11 -2.6311e-08 -1.18633e-11)
(-1.04267e-13 -2.31248e-10 -1.04267e-13)
(-3.82752e-12 -8.48884e-09 -3.82752e-12)
(-3.92774e-12 -8.71112e-09 -3.92774e-12)
(-2.14019e-13 -4.74661e-10 -2.14019e-13)
(-1.39274e-15 -3.08889e-12 -1.39274e-15)
(-5.11258e-14 -1.13389e-10 -5.11258e-14)
(-5.31339e-14 -1.17843e-10 -5.31339e-14)
(-3.61967e-15 -8.02786e-12 -3.61967e-15)
(-1.85958e-17 -4.12426e-14 -1.85958e-17)
(-6.82753e-16 -1.51424e-12 -6.82753e-16)
(-7.1851e-16 -1.59354e-12 -7.1851e-16)
(-5.87511e-17 -1.30301e-13 -5.87511e-17)
(-1.38403e-13 -3.06956e-10 -1.38403e-13)
(-2.02726e-12 -4.49616e-09 -2.02726e-12)
(-1.95057e-12 -4.32606e-09 -1.95057e-12)
(-5.49328e-14 -1.21832e-10 -5.49328e-14)
(-8.00424e-12 -1.77522e-08 -8.00424e-12)
(-1.46962e-10 -3.25939e-07 -1.46962e-10)
(-1.43223e-10 -3.17647e-07 -1.43223e-10)
(-3.98016e-12 -8.82737e-09 -3.98016e-12)
(-4.40988e-10 -9.78043e-07 -4.40988e-10)
(-1.07951e-08 -2.39419e-05 -1.07951e-08)
(-1.0656e-08 -2.36333e-05 -1.0656e-08)
(-2.9226e-10 -6.48188e-07 -2.9226e-10)
(-2.15923e-08 -4.78883e-05 -2.15923e-08)
(-7.92686e-07 -0.00175805 -7.92686e-07)
(-7.92694e-07 -0.00175807 -7.92694e-07)
(-2.14568e-08 -4.75879e-05 -2.14568e-08)
(-7.92839e-07 -0.00175839 -7.92839e-07)
(-5.81765e-05 -0.129026 -5.81765e-05)
(-5.81765e-05 -0.129026 -5.81765e-05)
(-7.93125e-07 -0.00175903 -7.93125e-07)
(-2.14547e-08 -4.75833e-05 -2.14547e-08)
(-7.92969e-07 -0.00175868 -7.92969e-07)
(-7.92839e-07 -0.00175839 -7.92839e-07)
(-2.13215e-08 -4.72877e-05 -2.13215e-08)
(-2.86557e-10 -6.3554e-07 -2.86557e-10)
(-1.05238e-08 -2.33402e-05 -1.05238e-08)
(-1.0658e-08 -2.36377e-05 -1.0658e-08)
(-4.29914e-10 -9.53483e-07 -4.29914e-10)
(-3.82752e-12 -8.48884e-09 -3.82752e-12)
(-1.39666e-10 -3.09758e-07 -1.39666e-10)
(-1.43249e-10 -3.17705e-07 -1.43249e-10)
(-7.70521e-12 -1.7089e-08 -7.70521e-12)
(-5.11258e-14 -1.13389e-10 -5.11258e-14)
(-1.85358e-12 -4.11095e-09 -1.85358e-12)
(-1.92505e-12 -4.26946e-09 -1.92505e-12)
(-1.29462e-13 -2.87126e-10 -1.29462e-13)
(-6.82753e-16 -1.51424e-12 -6.82753e-16)
(-2.45954e-14 -5.45488e-11 -2.45954e-14)
(-2.58611e-14 -5.73558e-11 -2.58611e-14)
(-2.08764e-15 -4.63007e-12 -2.08764e-15)
(-1.31514e-13 -2.91678e-10 -1.31514e-13)
(-1.95057e-12 -4.32606e-09 -1.95057e-12)
(-1.87823e-12 -4.16561e-09 -1.87823e-12)
(-5.28574e-14 -1.17229e-10 -5.28574e-14)
(-7.70285e-12 -1.70837e-08 -7.70285e-12)
(-1.43223e-10 -3.17647e-07 -1.43223e-10)
(-1.39667e-10 -3.0976e-07 -1.39667e-10)
(-3.87914e-12 -8.60334e-09 -3.87914e-12)
(-4.29786e-10 -9.53198e-07 -4.29786e-10)
(-1.0656e-08 -2.36333e-05 -1.0656e-08)
(-1.05238e-08 -2.33401e-05 -1.05238e-08)
(-2.88515e-10 -6.39882e-07 -2.88515e-10)
(-2.13156e-08 -4.72748e-05 -2.13156e-08)
(-7.92694e-07 -0.00175807 -7.92694e-07)
(-7.92965e-07 -0.00175867 -7.92965e-07)
(-2.14587e-08 -4.75922e-05 -2.14587e-08)
(-7.92978e-07 -0.0017587 -7.92978e-07)
(-5.81765e-05 -0.129026 -5.81765e-05)
(-5.81765e-05 -0.129026 -5.81765e-05)
(-7.93129e-07 -0.00175904 -7.93129e-07)
(-2.14549e-08 -4.75836e-05 -2.14549e-08)
(-7.92839e-07 -0.00175839 -7.92839e-07)
(-7.92973e-07 -0.00175869 -7.92973e-07)
(-2.16003e-08 -4.79061e-05 -2.16003e-08)
(-2.9031e-10 -6.43862e-07 -2.9031e-10)
(-1.0658e-08 -2.36377e-05 -1.0658e-08)
(-1.07991e-08 -2.39507e-05 -1.07991e-08)
(-4.41155e-10 -9.78414e-07 -4.41155e-10)
(-3.92774e-12 -8.71112e-09 -3.92774e-12)
(-1.43249e-10 -3.17705e-07 -1.43249e-10)
(-1.47017e-10 -3.26061e-07 -1.47017e-10)
(-8.00734e-12 -1.7759e-08 -8.00734e-12)
(-5.31339e-14 -1.17843e-10 -5.31339e-14)
(-1.92505e-12 -4.26946e-09 -1.92505e-12)
(-2.00082e-12 -4.4375e-09 -2.00082e-12)
(-1.36228e-13 -3.02134e-10 -1.36228e-13)
(-7.1851e-16 -1.59354e-12 -7.1851e-16)
(-2.58611e-14 -5.73558e-11 -2.58611e-14)
(-2.72163e-14 -6.03615e-11 -2.72163e-14)
(-2.22401e-15 -4.93252e-12 -2.22401e-15)
(-3.75782e-15 -8.33426e-12 -3.75782e-15)
(-5.49328e-14 -1.21832e-10 -5.49328e-14)
(-5.28574e-14 -1.17229e-10 -5.28574e-14)
(-1.50803e-15 -3.34457e-12 -1.50803e-15)
(-2.17249e-13 -4.81825e-10 -2.17249e-13)
(-3.98016e-12 -8.82737e-09 -3.98016e-12)
(-3.87914e-12 -8.60334e-09 -3.87914e-12)
(-1.09207e-13 -2.42204e-10 -1.09207e-13)
(-1.19697e-11 -2.65469e-08 -1.19697e-11)
(-2.9226e-10 -6.48188e-07 -2.9226e-10)
(-2.88515e-10 -6.39882e-07 -2.88515e-10)
(-8.0162e-12 -1.77787e-08 -8.0162e-12)
(-5.86521e-10 -1.30081e-06 -5.86521e-10)
(-2.14568e-08 -4.75879e-05 -2.14568e-08)
(-2.14587e-08 -4.75922e-05 -2.14587e-08)
(-5.88421e-10 -1.30503e-06 -5.88421e-10)
(-2.1604e-08 -4.79143e-05 -2.1604e-08)
(-7.93125e-07 -0.00175903 -7.93125e-07)
(-7.93129e-07 -0.00175904 -7.93129e-07)
(-2.16102e-08 -4.79281e-05 -2.16102e-08)
(-5.84543e-10 -1.29643e-06 -5.84543e-10)
(-2.13215e-08 -4.72877e-05 -2.13215e-08)
(-2.16003e-08 -4.79061e-05 -2.16003e-08)
(-8.82612e-10 -1.9575e-06 -8.82612e-10)
(-1.18633e-11 -2.6311e-08 -1.18633e-11)
(-4.29914e-10 -9.53483e-07 -4.29914e-10)
(-4.41155e-10 -9.78414e-07 -4.41155e-10)
(-2.40352e-11 -5.33064e-08 -2.40352e-11)
(-2.14019e-13 -4.74661e-10 -2.14019e-13)
(-7.70521e-12 -1.7089e-08 -7.70521e-12)
(-8.00734e-12 -1.7759e-08 -8.00734e-12)
(-5.4541e-13 -1.20964e-09 -5.4541e-13)
(-3.61967e-15 -8.02786e-12 -3.61967e-15)
(-1.29462e-13 -2.87126e-10 -1.29462e-13)
(-1.36228e-13 -3.02134e-10 -1.36228e-13)
(-1.11379e-14 -2.47022e-11 -1.11379e-14)
(-5.87511e-17 -1.30301e-13 -5.87511e-17)
(-2.08764e-15 -4.63007e-12 -2.08764e-15)
(-2.22401e-15 -4.93252e-12 -2.22401e-15)
(-2.12214e-16 -4.70658e-13 -2.12214e-16)
)
;

boundaryField
{
    inlet
    {
        type            zeroGradient;
    }
    outlet
    {
        type            zeroGradient;
    }
    walls
    {
        type            zeroGradient;
    }
    procBoundary0to1
    {
        type            processor;
        value           uniform (0 0 0);
    }
}


// ************************************************************************* //
