ITEM: TIMESTEP
0
ITEM: NUMBER OF ATOMS
1
ITEM: BOX BOUNDS ff ff ff
0 0.1
0 0.1
0 0.1
ITEM: ATOMS id type x y z ix iy iz vx vy vz fx fy fz omegax omegay omegaz radius 
1 1 0.05 0.025 0.05 0 0 0 0 0 0 0 -1.54095e-08 0 0 0 0 5e-05 
ITEM: TIMESTEP
1000
ITEM: NUMBER OF ATOMS
1
ITEM: BOX BOUNDS ff ff ff
0 0.1
0 0.1
0 0.1
ITEM: ATOMS id type x y z ix iy iz vx vy vz fx fy fz omegax omegay omegaz radius 
1 1 0.05 0.0245938 0.05 0 0 0 -3.89116e-12 -0.0724446 -3.89116e-12 -4.02212e-18 -7.87565e-09 -4.02212e-18 0 0 0 5e-05 
ITEM: TIMESTEP
2000
ITEM: NUMBER OF ATOMS
1
ITEM: BOX BOUNDS ff ff ff
0 0.1
0 0.1
0 0.1
ITEM: ATOMS id type x y z ix iy iz vx vy vz fx fy fz omegax omegay omegaz radius 
1 1 0.05 0.0236834 0.05 0 0 0 -1.16177e-10 -0.105161 -1.16177e-10 -2.46315e-16 -3.41284e-09 -2.46315e-16 0 0 0 5e-05 
ITEM: TIMESTEP
3000
ITEM: NUMBER OF ATOMS
1
ITEM: BOX BOUNDS ff ff ff
0 0.1
0 0.1
0 0.1
ITEM: ATOMS id type x y z ix iy iz vx vy vz fx fy fz omegax omegay omegaz radius 
1 1 0.05 0.0225522 0.05 0 0 0 4.68246e-10 -0.119099 4.68246e-10 1.80857e-15 -1.43607e-09 1.80857e-15 0 0 0 5e-05 
ITEM: TIMESTEP
4000
ITEM: NUMBER OF ATOMS
1
ITEM: BOX BOUNDS ff ff ff
0 0.1
0 0.1
0 0.1
ITEM: ATOMS id type x y z ix iy iz vx vy vz fx fy fz omegax omegay omegaz radius 
1 1 0.0499999 0.0213286 0.0499999 0 0 0 -1.97528e-05 -0.124809 -1.97528e-05 -2.59552e-12 -5.95233e-10 -2.59552e-12 0 0 0 5e-05 
ITEM: TIMESTEP
5000
ITEM: NUMBER OF ATOMS
1
ITEM: BOX BOUNDS ff ff ff
0 0.1
0 0.1
0 0.1
ITEM: ATOMS id type x y z ix iy iz vx vy vz fx fy fz omegax omegay omegaz radius 
1 1 0.0499996 0.0200664 0.0499996 0 0 0 -3.0996e-05 -0.127309 -3.0996e-05 -1.22151e-12 -2.6926e-10 -1.22151e-12 0 0 0 5e-05 
ITEM: TIMESTEP
6000
ITEM: NUMBER OF ATOMS
1
ITEM: BOX BOUNDS ff ff ff
0 0.1
0 0.1
0 0.1
ITEM: ATOMS id type x y z ix iy iz vx vy vz fx fy fz omegax omegay omegaz radius 
1 1 0.0499993 0.0187882 0.0499993 0 0 0 -3.89031e-05 -0.128213 -3.89031e-05 -1.12508e-12 -1.04441e-10 -1.12508e-12 0 0 0 5e-05 
ITEM: TIMESTEP
7000
ITEM: NUMBER OF ATOMS
1
ITEM: BOX BOUNDS ff ff ff
0 0.1
0 0.1
0 0.1
ITEM: ATOMS id type x y z ix iy iz vx vy vz fx fy fz omegax omegay omegaz radius 
1 1 0.0499989 0.0175033 0.0499989 0 0 0 -4.40348e-05 -0.128738 -4.40348e-05 -5.68855e-13 -6.86537e-11 -5.68855e-13 0 0 0 5e-05 
ITEM: TIMESTEP
8000
ITEM: NUMBER OF ATOMS
1
ITEM: BOX BOUNDS ff ff ff
0 0.1
0 0.1
0 0.1
ITEM: ATOMS id type x y z ix iy iz vx vy vz fx fy fz omegax omegay omegaz radius 
1 1 0.0499984 0.0162155 0.0499984 0 0 0 -4.96026e-05 -0.128823 -4.96026e-05 -8.90229e-13 -2.09532e-11 -8.90229e-13 0 0 0 5e-05 
ITEM: TIMESTEP
9000
ITEM: NUMBER OF ATOMS
1
ITEM: BOX BOUNDS ff ff ff
0 0.1
0 0.1
0 0.1
ITEM: ATOMS id type x y z ix iy iz vx vy vz fx fy fz omegax omegay omegaz radius 
1 1 0.0499979 0.0149264 0.0499979 0 0 0 -5.36857e-05 -0.129011 -5.36857e-05 -3.88126e-13 -3.40799e-11 -3.88126e-13 0 0 0 5e-05 
ITEM: TIMESTEP
10000
ITEM: NUMBER OF ATOMS
1
ITEM: BOX BOUNDS ff ff ff
0 0.1
0 0.1
0 0.1
ITEM: ATOMS id type x y z ix iy iz vx vy vz fx fy fz omegax omegay omegaz radius 
1 1 0.0499973 0.0136369 0.0499973 0 0 0 -5.60313e-05 -0.128933 -5.60313e-05 -5.22253e-13 -9.59822e-12 -5.22253e-13 0 0 0 5e-05 
ITEM: TIMESTEP
11000
ITEM: NUMBER OF ATOMS
1
ITEM: BOX BOUNDS ff ff ff
0 0.1
0 0.1
0 0.1
ITEM: ATOMS id type x y z ix iy iz vx vy vz fx fy fz omegax omegay omegaz radius 
1 1 0.0499968 0.012347 0.0499968 0 0 0 -5.81765e-05 -0.129027 -5.81765e-05 3.57132e-13 4.66866e-11 3.57132e-13 0 0 0 5e-05 
ITEM: TIMESTEP
12000
ITEM: NUMBER OF ATOMS
1
ITEM: BOX BOUNDS ff ff ff
0 0.1
0 0.1
0 0.1
ITEM: ATOMS id type x y z ix iy iz vx vy vz fx fy fz omegax omegay omegaz radius 
1 1 0.0499962 0.0110574 0.0499962 0 0 0 -5.90342e-05 -0.128958 -5.90342e-05 -3.19368e-13 -1.01971e-11 -3.19368e-13 0 0 0 5e-05 
ITEM: TIMESTEP
13000
ITEM: NUMBER OF ATOMS
1
ITEM: BOX BOUNDS ff ff ff
0 0.1
0 0.1
0 0.1
ITEM: ATOMS id type x y z ix iy iz vx vy vz fx fy fz omegax omegay omegaz radius 
1 1 0.0499956 0.00976718 0.0499956 0 0 0 -6.03392e-05 -0.129051 -6.03392e-05 2.56028e-13 4.92111e-11 2.56028e-13 0 0 0 5e-05 
ITEM: TIMESTEP
14000
ITEM: NUMBER OF ATOMS
1
ITEM: BOX BOUNDS ff ff ff
0 0.1
0 0.1
0 0.1
ITEM: ATOMS id type x y z ix iy iz vx vy vz fx fy fz omegax omegay omegaz radius 
1 1 0.049995 0.00847734 0.049995 0 0 0 -6.16527e-05 -0.128975 -6.16527e-05 -3.4676e-13 -9.33626e-12 -3.4676e-13 0 0 0 5e-05 
ITEM: TIMESTEP
15000
ITEM: NUMBER OF ATOMS
1
ITEM: BOX BOUNDS ff ff ff
0 0.1
0 0.1
0 0.1
ITEM: ATOMS id type x y z ix iy iz vx vy vz fx fy fz omegax omegay omegaz radius 
1 1 0.0499944 0.00718709 0.0499944 0 0 0 -6.21606e-05 -0.129021 -6.21606e-05 5.92683e-13 3.99013e-11 5.92683e-13 0 0 0 5e-05 
