ITEM: TIMESTEP
0
ITEM: NUMBER OF ATOMS
1
ITEM: BOX BOUNDS ff ff ff
0 0.1
0 0.1
0 0.1
ITEM: ATOMS id type x y z ix iy iz vx vy vz fx fy fz omegax omegay omegaz radius 
1 1 0.05 0.025 0.05 0 0 0 0 0 0 0 -1.54095e-08 0 0 0 0 5e-05 
ITEM: TIMESTEP
1000
ITEM: NUMBER OF ATOMS
1
ITEM: BOX BOUNDS ff ff ff
0 0.1
0 0.1
0 0.1
ITEM: ATOMS id type x y z ix iy iz vx vy vz fx fy fz omegax omegay omegaz radius 
1 1 0.05 0.0245938 0.05 0 0 0 -3.89116e-12 -0.0724446 -3.89116e-12 -4.02212e-18 -7.87565e-09 -4.02212e-18 0 0 0 5e-05 
ITEM: TIMESTEP
2000
ITEM: NUMBER OF ATOMS
1
ITEM: BOX BOUNDS ff ff ff
0 0.1
0 0.1
0 0.1
ITEM: ATOMS id type x y z ix iy iz vx vy vz fx fy fz omegax omegay omegaz radius 
1 1 0.05 0.0236834 0.05 0 0 0 -1.16177e-10 -0.105161 -1.16177e-10 -2.46315e-16 -3.41284e-09 -2.46315e-16 0 0 0 5e-05 
ITEM: TIMESTEP
3000
ITEM: NUMBER OF ATOMS
1
ITEM: BOX BOUNDS ff ff ff
0 0.1
0 0.1
0 0.1
ITEM: ATOMS id type x y z ix iy iz vx vy vz fx fy fz omegax omegay omegaz radius 
1 1 0.05 0.0225522 0.05 0 0 0 4.68246e-10 -0.119099 4.68246e-10 1.80857e-15 -1.43607e-09 1.80857e-15 0 0 0 5e-05 
ITEM: TIMESTEP
4000
ITEM: NUMBER OF ATOMS
1
ITEM: BOX BOUNDS ff ff ff
0 0.1
0 0.1
0 0.1
ITEM: ATOMS id type x y z ix iy iz vx vy vz fx fy fz omegax omegay omegaz radius 
1 1 0.0499999 0.0213286 0.0499999 0 0 0 -1.97528e-05 -0.124809 -1.97528e-05 -2.59552e-12 -5.95233e-10 -2.59552e-12 0 0 0 5e-05 
ITEM: TIMESTEP
5000
ITEM: NUMBER OF ATOMS
1
ITEM: BOX BOUNDS ff ff ff
0 0.1
0 0.1
0 0.1
ITEM: ATOMS id type x y z ix iy iz vx vy vz fx fy fz omegax omegay omegaz radius 
1 1 0.0499996 0.0200664 0.0499996 0 0 0 -3.0996e-05 -0.127309 -3.0996e-05 -1.22151e-12 -2.6926e-10 -1.22151e-12 0 0 0 5e-05 
ITEM: TIMESTEP
6000
ITEM: NUMBER OF ATOMS
1
ITEM: BOX BOUNDS ff ff ff
0 0.1
0 0.1
0 0.1
ITEM: ATOMS id type x y z ix iy iz vx vy vz fx fy fz omegax omegay omegaz radius 
1 1 0.0499993 0.0187882 0.0499993 0 0 0 -3.89031e-05 -0.128213 -3.89031e-05 -1.12508e-12 -1.04441e-10 -1.12508e-12 0 0 0 5e-05 
