/*--------------------------------*- C++ -*----------------------------------*\
| =========                 |                                                 |
| \\      /  F ield         | OpenFOAM: The Open Source CFD Toolbox           |
|  \\    /   O peration     | Version:  5.x                                   |
|   \\  /    A nd           | Web:      www.OpenFOAM.org                      |
|    \\/     M anipulation  |                                                 |
\*---------------------------------------------------------------------------*/
FoamFile
{
    version     2.0;
    format      ascii;
    class       volScalarField;
    location    "0.075";
    object      interFace;
}
// * * * * * * * * * * * * * * * * * * * * * * * * * * * * * * * * * * * * * //

dimensions      [0 0 0 0 0 0 0];

internalField   nonuniform List<scalar> 
1574
(
0
0
0
0
0
0
0
0
0
0
0
0
0
0
0
0
0
0
0
0
0
0
0
0
0
0
0
0
0
0
0
0
0
0
0
0
0
0
0
0
0
0
0
0
0
0
0
0
0
0
0
0
0
0
0
0
0
0
0
0
0
0
0
0
0
0
0
0
0
0
0
0
0
0
0
0
0
0
0
0
0
0
0
0
0
0
0
0
0
0
0
0
0
0
0
0
0
0
0
0
0
0
0
0
0
0
0
0
0
0
0
0
0
0
0
0
0
0
0
0
0
0
0
0
0
0
0
0
0
0
0
0
0
0
0
0
0
0
0
0
0
0
0
0
0
0
0
0
0
0
0
0
0
0
0
0
0
0
0
0
0
0
0
0
0
0
0
0
0
0
0
0
0
0
0
0
0
0
0
0
0
0
0
0
0
0
0
0
0
0
0
0
0
0
0
0
0
0
0
0
0
0
0
0
0
0
0
0
0
0
0
0
0
0
0
0
0
0
0
0
0
0
0
0
0
0
0
0
0
0
0
0
0
0
0
0
0
0
0
0
0
0
0
0
0
0
0
0
0
0
0
0
0
0
0
0
0
0
0
0
0
0
0
0
0
0
0
0
0
0
0
0
0
0
0
0
0
0
0
0
0
0
0
0
0
0
0
0
0
0
0
0
0
0
0
0
0
0
0
0
0
0
0
0
0
0
0
0
0
0
0
0
0
0
0
0
0
0
0
0
0
0
0
0
0
0
0
0
0
0
0
0
0
0
0
0
0
0
0
0
0
0
0
0
0
0
0
0
0
0
0
0
0
0
0
0
0
0
0
0
0
0
0
0
0
0
0
0
0
0
0
0
0
0
0
0
0
0
0
0
0
0
0
0
0
0
0
0
0
0
0
0
0
0
0
0
0
0
0
0
0
0
0
0
0
0
0
0
0
0
0
0
0
0
0
0
0
0
0
0
0
0
0
0
0
0
0
0
0
0
0
0
0
0
0
0
0
0
0
0
0
0
0
0
0
0
0
0
0
0
0
0
0
0
0
0
0
0
0
0
0
0
0
0
0
0
0
0
0
0
0
0
0
0
0
0
0
0
0
0
0
0
0
0
0
0
0
0
0
0
0
0
0
0
0
0
0
0
0
0
0
0
0
0
0
0
0
0
0
0
0
0
0
0
0
0
0
0
0
0
0
0
0
0
0
0
0
0
0
0
0
0
0
0
0
0
0
0
0
0
0
0
0
0
0
0
0
0
0
0
0
0
0
0
0
0
0
0
0
0
0
0
0
0
0
0
0
0
0
0
0
0
0
0
0
0
0
0
0
0
0
0
0
0
0
0
0
0
0
0
0
0
0
0
0
0
0
0
0
0
0
0
0
0
0
0
0
0
0
0
0
0
0
0
0
0
0
0
0
0
0
0
0
0
0
0
0
0
0
0
0
0
0
0
0
0
0
0
0
0
0
0
0
0
0
0
0
0
0
0
0.69376
0
0
0
0
0
0
0
0
0
0
0
0
0
0
0
0
0
0
0
0
0
0
0
0
0.0629487
0.511412
0
0
0
0.511427
0
0
0
0
0
0
0
0
0
0
0
0
0
0
0
0
0
0
0
0.149266
0.59773
0
0
0
0.597745
0
0
0
0
0
0
0
0
0
0
0
0
0
0
0
0
0
0
0
0
0
0
0
0
0
0
0
0
0
0
0
0
0
0
0
0
0
0
0
0
0
0
0
0
0.222409
0.670814
0
0
0
0.670819
0
0
0
0
0
0
0
0
0
0
0
0
0
0
0
0
0
0
0
0.030657
0.479062
0
0
0
0.479067
0
0
0
0
0
0
0
0
0
0
0
0
0
0
0
0
0
0
0
0.705795
0
0
0
0
0
0
0
0
0
0
0
0
0
0
0
0
0
0
0
0
0
0
0
0
0
0
0
0
0
0
0
0
0
0
0
0
0
0
0
0
0
0
0
0
0
0
0
0
0
0
0
0
0
0
0
0
0
0
0
0
0
0
0
0
0
0
0
0
0
0
0
0
0
0
0
0
0
0
0
0
0
0
0
0
0
0
0
0
0
0
0
0
0
0
0
0
0
0
0
0
0
0
0
0
0
0
0
0
0
0
0
0
0
0
0
0
0
0
0
0
0
0
0
0
0
0
0
0
0
0
0
0
0
0
0
0
0
0
0
0
0
0
0
0
0
0
0
0
0
0
0
0
0
0
0
0
0
0
0
0
0
0
0
0
0
0
0
0
0
0
0
0
0
0
0
0
0
0
0
0
0
0
0
0
0
0
0
0
0
0
0
0
0
0
0
0
0
0
0
0.491482
0.491486
0.760558
0.0113641
0.280437
0.280441
0.549514
0.29973
0.299734
0.568807
0.357459
0.626532
0.626536
0.895609
0.885177
0.88518
0
0
0
0
0
0
0
0
0.382398
0.651471
0.651475
0.871633
0.418383
0.418394
0.687511
0.68462
0.953737
0.953748
0.959894
0.729506
0.729509
0.774394
0.551122
0.461349
0.506234
0.506237
0
0.961684
0
0
0
0
0
0.961692
0
0
0
0
0
0
0.819211
0.998626
0.8641
0.640828
0.730465
0.775354
0.595939
0.819219
0.998633
0.864104
0.640832
0.730477
0.775362
0.595947
0.293447
0.203704
0.402329
0.402331
0.447201
0.248575
0.248576
0
0.748139
0
0.846691
0
0
0
0.74814
0
0
0.846696
0
0
0
0.383138
0.472777
0.49202
0.671404
0.517649
0.536892
0.338266
0.383139
0.472781
0.492023
0.671406
0.517652
0.536893
0.338268
0.332066
0.332077
0.601194
0.0604562
0.329573
0.329584
0.598701
0.372671
0.194152
0.194155
0.282897
0.23904
0.327782
0.327786
0.462377
0.283857
0.463272
0.552014
0.328746
0.596903
0.417488
0.46238
0.283865
0.463279
0.552025
0.32875
0.59691
0.417495
0.47283
0.741854
0.761096
0.761097
0.607341
0.607343
0.626584
0.552086
0.552981
0.552985
0.821142
0.418455
0.686612
0.686616
0.184513
0.0755274
0.0755288
0.0947704
0.120399
0.139641
0.139642
0.274204
0.165218
0.344602
0.363843
0.21009
0.408715
0.229332
0.274205
0.165221
0.344604
0.363847
0.210091
0.408718
0.229334
0.105341
0.105345
0.15023
0.10624
0.0164665
0.0613516
0.0613553
0
0.78054
0
0.50892
0
0.778048
0
0.780544
0
0
0.508935
0.778051
0
0
0.642619
0.731361
0.77625
0
0.821897
0.866786
0.955528
0.64263
0.731376
0.776261
0
0.821916
0.866801
0.955547
0.195047
0.374462
0.239936
0.195946
0.285583
0.330472
0.151057
0.195054
0.374469
0.239939
0.19595
0.285594
0.33048
0.151065
0.363896
0.434294
0.434295
0.63292
0.299782
0.498407
0.498409
0.464171
0.464175
0.329645
0.285655
0.554711
0.420181
0.420185
0.126634
0.0368918
0.0562346
0.0562359
0.101106
0.0817622
0.0817635
0
0.910318
0
0.459769
0
0.728846
0
0.910321
0
0
0.459774
0.728847
0
0
0.703215
0.523934
0.543175
0.748086
0.588047
0.8122
0.767328
0.523938
0.703221
0.543181
0.748091
0.588051
0.812205
0.767334
0.216325
0.305965
0.145926
0.325309
0.350836
0.190797
0.171453
0.216326
0.305969
0.145928
0.325311
0.350839
0.190799
0.171456
0.788783
0.788791
0.968202
0.153421
0.422537
0.422549
0.691665
0.107071
0.107834
0.107837
0.0172973
0.152723
0.0621824
0.0621861
0.196777
0.197539
0.376954
0.286414
0.242428
0.331303
0.151888
0.19678
0.197547
0.376962
0.286425
0.242432
0.33131
0.151895
0.553809
0.733087
0.777976
0.46493
0.509819
0.733986
0.689097
0.55382
0.733105
0.777991
0.464945
0.50983
0.734001
0.689116
0.306017
0.575042
0.415001
0.415002
0.440529
0.44053
0.28049
0.286486
0.466664
0.466667
0.555542
0.332137
0.421012
0.421016
0.196982
0.267279
0.26728
0.10724
0.312151
0.15211
0.152112
0.286673
0.35697
0.536353
0.376313
0.401842
0.421185
0.241801
0.286674
0.356973
0.536356
0.376317
0.401843
0.421187
0.241804
0.485297
0.683922
0.504641
0.530168
0.728793
0.754321
0.709449
0.485302
0.504645
0.683928
0.530172
0.728799
0.754326
0.709456
0.198306
0.198309
0.243194
0.378487
0.288713
0.333598
0.333602
0
0
0
0.787251
0
0.966669
0
0
0
0
0.787265
0.966677
0
0
0.556301
0.465761
0.51065
0.734817
0.735579
0.780468
0.689928
0.556312
0.465776
0.510661
0.734832
0.735598
0.780483
0.689947
0.288011
0.467426
0.3329
0.468193
0.55783
0.602719
0.423304
0.288019
0.467434
0.332904
0.468196
0.557841
0.602726
0.423311
0
0
0
0
0
0
0
0.376365
0.626046
0.626047
0.64539
0.491534
0.510877
0.510878
0.643518
0
0.867685
0.734058
0.599528
0.823695
0.958225
0.643525
0
0.867696
0.734062
0.599536
0.823706
0.958233
0.557136
0.557139
0.422609
0.557902
0.826958
0.692428
0.692432
0.427268
0.42727
0.47214
0.67695
0.587208
0.632078
0.63208
0.64601
0.734889
0.600359
0.824526
0
0.870178
0.959056
0.646018
0.734893
0.600366
0.824537
0
0.870189
0.959063
0
0
0
0
0
0
0
0
0
0
0
0
0
0
0.894966
0.715685
0.555645
0.939838
0.600517
0.824669
0.779798
0.715689
0.894973
0.55565
0.939843
0.600521
0.824674
0.779804
0.516959
0.696343
0.561831
0.766641
0.856281
0.901152
0.721769
0.516962
0.696345
0.561832
0.766642
0.856285
0.901155
0.721772
0
0
0
0
0
0
0
0
0
0
0
0
0
0
0.613626
0.972291
0.812252
0.837779
0.677739
0.901892
0
0.613629
0.972294
0.812253
0.837782
0.677742
0.901896
0
0.754374
0.594333
0.952998
0.619861
0.818486
0.844013
0.978526
0.754375
0.594336
0.953001
0.619863
0.81849
0.844017
0.978529
0
0
0
0
0
0
0
0.5586
0.738645
0.738648
0.468826
0.783533
0.513711
0.513715
)
;

boundaryField
{
    inlet
    {
        type            calculated;
        value           uniform 0;
    }
    wall
    {
        type            calculated;
        value           uniform 0;
    }
    outlet
    {
        type            calculated;
        value           uniform 0;
    }
    procBoundary3to1
    {
        type            processor;
        value           uniform 0;
    }
    procBoundary3to2
    {
        type            processor;
        value           uniform 0;
    }
}


// ************************************************************************* //
