/*--------------------------------*- C++ -*----------------------------------*\
| =========                 |                                                 |
| \\      /  F ield         | OpenFOAM: The Open Source CFD Toolbox           |
|  \\    /   O peration     | Version:  5.x                                   |
|   \\  /    A nd           | Web:      www.OpenFOAM.org                      |
|    \\/     M anipulation  |                                                 |
\*---------------------------------------------------------------------------*/
FoamFile
{
    version     2.0;
    format      ascii;
    class       surfaceScalarField;
    location    "0.075";
    object      phi;
}
// * * * * * * * * * * * * * * * * * * * * * * * * * * * * * * * * * * * * * //

dimensions      [0 3 -1 0 0 0 0];

internalField   nonuniform List<scalar> 
4360
(
1.26461e-08
1.0884e-08
-1.69558e-07
1.03082e-07
7.81364e-09
-1.75522e-07
1.67834e-07
3.2338e-09
-1.4956e-07
2.25907e-07
1.31987e-09
-1.42972e-07
-3.14054e-09
-5.39473e-08
9.55135e-09
1.01414e-07
-1.75554e-07
1.00133e-07
9.84828e-08
-1.81232e-07
1.6523e-07
9.36569e-08
-1.55502e-07
2.23608e-07
9.165e-08
-1.48688e-07
8.64975e-08
-6.02133e-08
4.95163e-09
1.66324e-07
-1.49649e-07
9.53076e-08
1.6374e-07
-1.55594e-07
1.60637e-07
1.5913e-07
-1.30781e-07
2.19264e-07
1.57257e-07
-1.2421e-07
1.51974e-07
-3.73379e-08
2.99003e-09
2.24609e-07
-1.43091e-07
9.32878e-08
2.22301e-07
-1.48839e-07
1.58763e-07
2.17942e-07
-1.24263e-07
2.17528e-07
2.16205e-07
-1.17687e-07
2.11096e-07
-3.15047e-08
-1.49051e-09
-5.42851e-08
8.81217e-08
-6.06345e-08
1.53476e-07
-3.76698e-08
2.12419e-07
-3.1781e-08
5.20672e-08
-2.82662e-08
-2.96274e-08
-2.23674e-07
-6.98726e-09
-3.19251e-08
-2.2347e-07
-6.53122e-09
-3.43516e-08
-1.76299e-07
-5.23753e-09
-3.58623e-08
-1.70371e-07
-3.76654e-08
-8.94651e-08
-3.05575e-08
-8.26594e-09
-2.23604e-07
-9.435e-09
-1.06586e-08
-2.236e-07
-8.71369e-09
-1.3392e-08
-1.77159e-07
-6.91337e-09
-1.48876e-08
-1.71436e-07
-1.70025e-08
-9.11377e-08
-3.3042e-08
-7.50557e-09
-1.76647e-07
-1.22113e-08
-9.69848e-09
-1.77361e-07
-1.13914e-08
-1.23502e-08
-1.32614e-07
-9.26965e-09
-1.36453e-08
-1.27543e-07
-1.57826e-08
-4.92494e-08
-3.45128e-08
-5.88133e-09
-1.70824e-07
-1.37214e-08
-7.53536e-09
-1.71766e-07
-1.2746e-08
-9.89441e-09
-1.27663e-07
-1.03209e-08
-1.09357e-08
-1.22789e-07
-1.28317e-08
-4.51746e-08
-3.64424e-08
-9.0054e-08
-1.58851e-08
-9.17416e-08
-1.48816e-08
-4.95563e-08
-1.22355e-08
-4.53548e-08
2.97681e-08
1.55624e-08
1.37016e-08
-3.9956e-07
1.03573e-07
1.00264e-08
-3.99559e-07
1.54794e-07
4.43079e-09
-3.15174e-07
1.99764e-07
2.07802e-09
-3.02972e-07
-3.54031e-09
-1.56063e-07
1.18872e-08
1.01868e-07
-3.998e-07
1.00148e-07
9.84359e-08
-4.00254e-07
1.51849e-07
9.26226e-08
-3.17033e-07
1.97457e-07
9.02625e-08
-3.05211e-07
8.43158e-08
-1.59701e-07
6.2832e-09
1.53333e-07
-3.15719e-07
9.43342e-08
1.50345e-07
-3.17303e-07
1.46342e-07
1.44842e-07
-2.36821e-07
1.92396e-07
1.42702e-07
-2.26019e-07
1.36769e-07
-8.3859e-08
3.89151e-09
1.98664e-07
-3.03699e-07
9.19793e-08
1.9616e-07
-3.05651e-07
1.44201e-07
1.91162e-07
-2.26187e-07
1.90531e-07
1.89308e-07
-2.15708e-07
1.83745e-07
-7.47774e-08
-1.35185e-09
-1.57172e-07
8.60938e-08
-1.60376e-07
1.38279e-07
-8.43149e-08
1.84967e-07
-7.5076e-08
6.14468e-08
6.63304e-09
4.92192e-09
-5.55047e-07
8.19339e-08
1.8121e-09
-5.52381e-07
1.23736e-07
-3.00614e-09
-4.33637e-07
1.60192e-07
-5.24907e-09
-4.15895e-07
-1.03235e-08
-2.1945e-07
3.51602e-09
8.03969e-08
-5.52747e-07
7.87986e-08
7.72944e-08
-5.50997e-07
1.20937e-07
7.18426e-08
-4.34004e-07
1.57947e-07
6.95226e-08
-4.16985e-07
6.36249e-08
-2.22455e-07
-1.36942e-09
1.22478e-07
-4.34364e-07
7.33465e-08
1.1968e-07
-4.34389e-07
1.15562e-07
1.14302e-07
-3.21487e-07
1.52962e-07
1.12154e-07
-3.06048e-07
1.06076e-07
-1.16444e-07
-3.6429e-09
1.59317e-07
-4.16883e-07
7.10251e-08
1.56989e-07
-4.17621e-07
1.13414e-07
1.52028e-07
-3.063e-07
1.51116e-07
1.50189e-07
-2.91449e-07
1.44395e-07
-1.03655e-07
-8.67052e-09
-2.20797e-07
6.51481e-08
-2.23401e-07
1.07342e-07
-1.17023e-07
1.45323e-07
-1.03988e-07
7.73875e-08
4.61455e-08
4.38061e-08
-8.23436e-07
1.77063e-07
3.85393e-08
-8.17447e-07
2.49237e-07
2.96895e-08
-6.38705e-07
3.10395e-07
2.60193e-08
-6.09654e-07
1.73635e-08
-3.18966e-07
4.08812e-08
1.74914e-07
-8.17948e-07
1.71949e-07
1.698e-07
-8.133e-07
2.44661e-07
1.60087e-07
-6.37105e-07
3.06475e-07
1.56281e-07
-6.0907e-07
1.45943e-07
-3.21132e-07
3.20285e-08
2.47395e-07
-6.39691e-07
1.62234e-07
2.42811e-07
-6.37598e-07
2.35156e-07
2.33307e-07
-4.67637e-07
2.97663e-07
2.29738e-07
-4.42031e-07
2.18996e-07
-1.61868e-07
2.83553e-08
3.08947e-07
-6.10986e-07
1.5843e-07
3.05016e-07
-6.0991e-07
2.31589e-07
2.96201e-07
-4.42373e-07
2.94502e-07
2.93039e-07
-4.17692e-07
2.82725e-07
-1.40456e-07
1.96736e-08
-3.20748e-07
1.48085e-07
-3.22416e-07
2.20843e-07
-1.62658e-07
2.84186e-07
-1.40909e-07
1.26124e-07
7.25998e-08
7.00682e-08
-1.16627e-06
2.38043e-07
6.41959e-08
-1.15398e-06
3.29899e-07
5.40336e-08
-8.99493e-07
4.06501e-07
4.97098e-08
-8.54606e-07
3.90857e-08
-4.41665e-07
6.67335e-08
2.35749e-07
-1.15467e-06
2.32126e-07
2.29825e-07
-1.14431e-06
3.24461e-07
2.18092e-07
-8.9351e-07
4.01779e-07
2.13448e-07
-8.50154e-07
2.00237e-07
-4.41264e-07
5.65624e-08
3.27959e-07
-9.00782e-07
2.20388e-07
3.22513e-07
-8.94124e-07
3.12563e-07
3.10617e-07
-6.52366e-07
3.9052e-07
3.06135e-07
-6.12716e-07
2.91945e-07
-2.15337e-07
5.22412e-08
4.05033e-07
-8.56358e-07
2.15746e-07
4.00301e-07
-8.51232e-07
3.08085e-07
3.89041e-07
-6.13175e-07
3.86491e-07
3.85008e-07
-5.75018e-07
3.7115e-07
-1.82209e-07
4.16006e-08
-4.43953e-07
2.02527e-07
-4.42884e-07
2.93889e-07
-2.16342e-07
3.7263e-07
-1.8276e-07
1.94601e-07
1.31114e-07
1.27789e-07
-1.66953e-06
3.72302e-07
1.19028e-07
-1.64633e-06
5.02815e-07
1.02767e-07
-1.2774e-06
6.08105e-07
9.61699e-08
-1.20611e-06
7.91402e-08
-6.14415e-07
1.2236e-07
3.69267e-07
-1.64724e-06
3.63364e-07
3.60319e-07
-1.62662e-06
4.9454e-07
3.41138e-07
-1.26309e-06
6.00829e-07
3.33767e-07
-1.19408e-06
3.1198e-07
-6.08585e-07
1.06086e-07
5.00223e-07
-1.27907e-06
3.44177e-07
4.91938e-07
-1.26387e-06
4.75006e-07
4.72406e-07
-9.14509e-07
5.82169e-07
4.65139e-07
-8.51297e-07
4.41638e-07
-2.84078e-07
9.94922e-08
6.06104e-07
-1.20839e-06
3.3681e-07
5.98818e-07
-1.19547e-06
4.67743e-07
5.80154e-07
-8.51903e-07
5.7547e-07
5.7345e-07
-7.91102e-07
5.50376e-07
-2.31367e-07
8.24426e-08
-6.17375e-07
3.1501e-07
-6.10666e-07
4.44235e-07
-2.85382e-07
5.52394e-07
-2.32072e-07
3.02965e-07
2.12583e-07
2.08679e-07
-2.38099e-06
5.49515e-07
1.97462e-07
-2.33791e-06
7.32597e-07
1.76666e-07
-1.80936e-06
8.75458e-07
1.67931e-07
-1.69577e-06
1.45318e-07
-8.48629e-07
2.01378e-07
5.45978e-07
-2.33912e-06
5.37802e-07
5.3425e-07
-2.2999e-06
7.21557e-07
5.09267e-07
-1.7795e-06
8.65692e-07
4.99217e-07
-1.66954e-06
4.69744e-07
-8.32044e-07
1.80562e-07
7.29591e-07
-1.8115e-06
5.12808e-07
7.18536e-07
-1.78045e-06
6.9534e-07
6.92325e-07
-1.28014e-06
8.40558e-07
6.82156e-07
-1.17948e-06
6.49433e-07
-3.68838e-07
1.71833e-07
8.73185e-07
-1.69871e-06
5.02766e-07
8.63401e-07
-1.67131e-06
6.8518e-07
8.38264e-07
-1.18029e-06
8.31154e-07
8.28851e-07
-1.0838e-06
7.96696e-07
-2.85455e-07
1.49193e-07
-8.52407e-07
4.73274e-07
-8.34659e-07
6.52444e-07
-3.70498e-07
7.98995e-07
-2.86324e-07
4.74895e-07
3.31149e-07
3.26103e-07
-3.39255e-06
8.06384e-07
3.10252e-07
-3.31688e-06
1.06025e-06
2.77505e-07
-2.5556e-06
1.25145e-06
2.64286e-07
-2.37515e-06
2.27857e-07
-1.16589e-06
3.15316e-07
8.01809e-07
-3.31847e-06
7.89132e-07
7.84536e-07
-3.24807e-06
1.04352e-06
7.42725e-07
-2.49914e-06
1.23629e-06
7.2655e-07
-2.32457e-06
6.76339e-07
-1.13065e-06
2.8254e-07
1.05635e-06
-2.55834e-06
7.47307e-07
1.0396e-06
-2.50031e-06
9.99454e-07
9.9554e-07
-1.78511e-06
1.19331e-06
9.78648e-07
-1.62543e-06
9.22772e-07
-4.75793e-07
2.69329e-07
1.24849e-06
-2.37897e-06
7.31142e-07
1.23331e-06
-2.32683e-06
9.82572e-07
1.19033e-06
-1.62649e-06
1.1772e-06
1.17421e-06
-1.47397e-06
1.11863e-06
-3.44927e-07
2.32859e-07
-1.17074e-06
6.80904e-07
-1.13396e-06
9.26678e-07
-4.7793e-07
1.12162e-06
-3.46018e-07
7.22054e-07
5.26012e-07
5.19866e-07
-4.86949e-06
1.20662e-06
4.97474e-07
-4.73125e-06
1.57316e-06
4.54415e-07
-3.64006e-06
1.8318e-06
4.35202e-07
-3.34413e-06
3.85745e-07
-1.6103e-06
5.0365e-07
1.20109e-06
-4.73339e-06
1.18176e-06
1.17619e-06
-4.60493e-06
1.54877e-06
1.12236e-06
-3.53408e-06
1.80974e-06
1.09812e-06
-3.24842e-06
1.03077e-06
-1.54019e-06
4.60544e-07
1.56845e-06
-3.64358e-06
1.12791e-06
1.54403e-06
-3.5355e-06
1.48975e-06
1.48502e-06
-2.50959e-06
1.75298e-06
1.45913e-06
-2.24962e-06
1.38173e-06
-6.05087e-07
4.41346e-07
1.82829e-06
-3.34909e-06
1.10369e-06
1.80618e-06
-3.25129e-06
1.46388e-06
1.74942e-06
-2.25104e-06
1.7285e-06
1.72492e-06
-2.00436e-06
1.64943e-06
-3.95704e-07
3.91826e-07
-1.61652e-06
1.03629e-06
-1.54436e-06
1.38645e-06
-6.07825e-07
1.653e-06
-3.9705e-07
1.12152e-06
7.9019e-07
7.82255e-07
-6.96749e-06
1.75004e-06
7.51623e-07
-6.73278e-06
2.25717e-06
6.80017e-07
-5.15477e-06
2.59928e-06
6.50328e-07
-4.67962e-06
5.66418e-07
-2.19965e-06
7.596e-07
1.7429e-06
-6.73564e-06
1.71355e-06
1.70636e-06
-6.51358e-06
2.21924e-06
1.60708e-06
-4.9668e-06
2.56401e-06
1.56753e-06
-4.51033e-06
1.44401e-06
-2.07241e-06
6.87931e-07
2.25109e-06
-5.1593e-06
1.61424e-06
2.21312e-06
-4.96853e-06
2.11239e-06
2.10628e-06
-3.50689e-06
2.45897e-06
2.06249e-06
-3.09111e-06
1.92215e-06
-7.63189e-07
6.58262e-07
2.59475e-06
-4.68609e-06
1.57471e-06
2.55943e-06
-4.514e-06
2.06863e-06
2.45438e-06
-3.09302e-06
2.41643e-06
2.41182e-06
-2.70144e-06
2.27208e-06
-4.33996e-07
5.74264e-07
-2.20769e-06
1.45113e-06
-2.0777e-06
1.92825e-06
-7.66739e-07
2.27668e-06
-4.35678e-07
1.67985e-06
1.25159e-06
1.24174e-06
-1.01109e-05
2.63883e-06
1.19055e-06
-9.67095e-06
3.38666e-06
1.09716e-06
-7.40904e-06
3.83144e-06
1.04823e-06
-6.60212e-06
9.3419e-07
-3.03578e-06
1.20048e-06
2.63005e-06
-9.67489e-06
2.57679e-06
2.5679e-06
-9.26721e-06
3.32437e-06
2.44932e-06
-7.06651e-06
3.77441e-06
2.38146e-06
-6.29358e-06
2.22127e-06
-2.80287e-06
1.10697e-06
3.37917e-06
-7.41486e-06
2.45813e-06
3.31679e-06
-7.06856e-06
3.1867e-06
3.17917e-06
-4.96529e-06
3.6432e-06
3.10335e-06
-4.26948e-06
2.913e-06
-9.32904e-07
1.05809e-06
3.82599e-06
-6.61063e-06
2.39034e-06
3.76884e-06
-6.2983e-06
3.11095e-06
3.63763e-06
-4.27206e-06
3.57114e-06
3.56551e-06
-3.62376e-06
3.38439e-06
-3.99018e-07
9.43885e-07
-3.04614e-06
2.23004e-06
-2.80957e-06
2.92052e-06
-9.3751e-07
3.39e-06
-4.01111e-07
2.60314e-06
1.86783e-06
1.85506e-06
-1.46194e-05
3.85227e-06
1.79091e-06
-1.38855e-05
4.88701e-06
1.62069e-06
-1.05702e-05
5.44951e-06
1.54243e-06
-9.23934e-06
1.33434e-06
-4.11154e-06
1.80378e-06
3.84081e-06
-1.38907e-05
3.76798e-06
3.75645e-06
-1.3197e-05
4.78684e-06
3.49791e-06
-9.96261e-06
5.35586e-06
3.38699e-06
-8.7072e-06
3.0648e-06
-3.70785e-06
1.63344e-06
4.87727e-06
-1.05778e-05
3.50938e-06
4.77702e-06
-9.9651e-06
4.50757e-06
4.49777e-06
-6.96335e-06
5.0859e-06
4.36918e-06
-5.82999e-06
4.00016e-06
-1.1097e-06
1.55521e-06
5.44239e-06
-9.25049e-06
3.3985e-06
5.34866e-06
-8.71324e-06
4.37903e-06
5.07866e-06
-5.83349e-06
4.96237e-06
4.95508e-06
-4.79298e-06
4.59348e-06
-2.6257e-07
1.34695e-06
-4.12507e-06
3.07617e-06
-3.7164e-06
4.00993e-06
-1.11576e-06
4.60074e-06
-2.65223e-07
3.8872e-06
3.07511e-06
3.05895e-06
-2.17463e-05
5.99332e-06
2.90643e-06
-2.02658e-05
7.5291e-06
2.66802e-06
-1.54162e-05
8.15645e-06
2.50662e-06
-1.30498e-05
2.21493e-06
-5.60915e-06
2.92287e-06
5.97914e-06
-2.02731e-05
5.77991e-06
5.76536e-06
-1.8913e-05
7.32813e-06
5.4706e-06
-1.43134e-05
7.98015e-06
5.22926e-06
-1.20819e-05
4.81437e-06
-4.89142e-06
2.68402e-06
7.51693e-06
-1.54258e-05
5.4849e-06
7.31568e-06
-1.43163e-05
6.9733e-06
6.96104e-06
-9.9422e-06
7.65497e-06
6.69194e-06
-7.97433e-06
6.18884e-06
-1.17644e-06
2.52279e-06
8.14787e-06
-1.30646e-05
5.24378e-06
7.97125e-06
-1.20898e-05
6.70436e-06
7.64608e-06
-7.97911e-06
7.4112e-06
7.40214e-06
-6.21001e-06
6.94848e-06
2.16629e-07
2.23068e-06
-5.6268e-06
4.82859e-06
-4.90248e-06
6.20105e-06
-1.18446e-06
6.95746e-06
2.13207e-07
6.09651e-06
5.06259e-06
5.04049e-06
-3.30091e-05
9.32665e-06
4.73561e-06
-2.99302e-05
1.12709e-05
4.10019e-06
-2.22396e-05
1.17699e-05
3.7375e-06
-1.81057e-05
3.15465e-06
-7.35092e-06
4.7575e-06
9.30787e-06
-2.99408e-05
8.92975e-06
8.91074e-06
-2.72603e-05
1.08809e-05
8.01007e-06
-2.01745e-05
1.14586e-05
7.54201e-06
-1.64641e-05
6.62097e-06
-6.14261e-06
4.12153e-06
1.1255e-05
-2.22523e-05
8.0291e-06
1.08649e-05
-2.0178e-05
1.00093e-05
9.99317e-06
-1.39055e-05
1.07127e-05
9.49498e-06
-1.06307e-05
8.45406e-06
-1.01485e-06
3.7586e-06
1.17584e-05
-1.8125e-05
7.56091e-06
1.1447e-05
-1.64743e-05
9.51115e-06
1.07009e-05
-1.0637e-05
1.02905e-05
1.02787e-05
-7.77307e-06
9.31509e-06
1.20204e-06
3.17533e-06
-7.37419e-06
6.63957e-06
-6.1569e-06
8.47009e-06
-1.02564e-06
9.32691e-06
1.1975e-06
9.25519e-06
1.03327e-05
1.02999e-05
-5.55145e-05
1.75947e-05
9.30949e-06
-4.74675e-05
1.90299e-05
7.65419e-06
-3.23266e-05
1.83308e-05
6.57466e-06
-2.50174e-05
5.43952e-06
-9.40458e-06
9.34367e-06
1.75716e-05
-4.74892e-05
1.56504e-05
1.56238e-05
-3.98814e-05
1.77632e-05
1.38252e-05
-2.84582e-05
1.7653e-05
1.22244e-05
-2.20036e-05
1.07759e-05
-7.21584e-06
7.68233e-06
1.90107e-05
-3.23442e-05
1.38487e-05
1.77428e-05
-2.84634e-05
1.64412e-05
1.64204e-05
-1.90932e-05
1.6653e-05
1.50762e-05
-1.36944e-05
1.34896e-05
3.43853e-08
6.60138e-06
1.83172e-05
-2.50422e-05
1.22491e-05
1.76383e-05
-2.20174e-05
1.50975e-05
1.66382e-05
-1.37032e-05
1.56669e-05
1.56515e-05
-8.91777e-06
1.43855e-05
3.65127e-06
5.46533e-06
-9.43545e-06
1.07997e-05
-7.23536e-06
1.35102e-05
1.96003e-08
1.44007e-05
3.64489e-06
1.49207e-05
1.45216e-05
1.44824e-05
-8.63939e-05
2.63793e-05
1.37645e-05
-7.41628e-05
3.14826e-05
1.2275e-05
-5.10282e-05
2.7579e-05
1.02977e-05
-3.26633e-05
8.24041e-06
-1.08421e-05
1.38044e-05
2.63412e-05
-7.41864e-05
2.54521e-05
2.54152e-05
-6.31797e-05
2.87525e-05
2.12895e-05
-4.0773e-05
2.59086e-05
1.88086e-05
-2.76707e-05
1.54178e-05
-7.28786e-06
1.23155e-05
3.14578e-05
-5.10622e-05
2.13257e-05
2.87253e-05
-4.07837e-05
2.42297e-05
2.42043e-05
-2.4912e-05
2.34272e-05
2.19156e-05
-1.59988e-05
1.85148e-05
2.87325e-06
1.03334e-05
2.75611e-05
-3.26966e-05
1.8841e-05
2.58892e-05
-2.76889e-05
2.1944e-05
2.34076e-05
-1.60095e-05
2.17562e-05
2.1736e-05
-8.55036e-06
1.89642e-05
8.30472e-06
8.27415e-06
-1.08826e-05
1.54488e-05
-7.31377e-06
1.85422e-05
2.8531e-06
1.89844e-05
8.29568e-06
2.2972e-05
2.20952e-05
2.20541e-05
-0.000132674
3.69665e-05
2.03585e-05
-0.0001106
4.59495e-05
1.88006e-05
-8.03191e-05
4.54076e-05
1.70907e-05
-5.08672e-05
1.41494e-05
-1.00371e-05
2.04046e-05
3.69246e-05
-0.000110627
3.49455e-05
3.49009e-05
-9.22631e-05
4.39705e-05
3.37785e-05
-6.47759e-05
4.08849e-05
3.0355e-05
-3.78494e-05
2.49882e-05
-4.55923e-06
1.88451e-05
4.59057e-05
-8.03559e-05
3.38228e-05
4.39272e-05
-6.47878e-05
3.97608e-05
3.9724e-05
-3.67955e-05
3.61299e-05
3.44227e-05
-1.64355e-05
2.86716e-05
9.2899e-06
1.71393e-05
4.53885e-05
-5.09306e-05
3.04016e-05
4.08634e-05
-3.78873e-05
3.4457e-05
3.61054e-05
-1.64463e-05
3.25382e-05
3.2511e-05
-4.71986e-06
2.8063e-05
1.72279e-05
1.41944e-05
-1.00918e-05
2.50311e-05
-4.59224e-06
2.87078e-05
9.26472e-06
2.80895e-05
1.72152e-05
3.4211e-05
2.93477e-05
2.93065e-05
-0.000193439
4.75566e-05
2.66162e-05
-0.000156632
5.74387e-05
2.34202e-05
-0.00011517
5.54496e-05
2.11395e-05
-7.16242e-05
1.62101e-05
-1.20617e-05
2.66589e-05
4.75097e-05
-0.000156651
4.3826e-05
4.37824e-05
-0.000126596
5.34958e-05
3.96598e-05
-9.06853e-05
5.18603e-05
3.74244e-05
-5.24989e-05
2.88463e-05
-2.60829e-06
2.34566e-05
5.73936e-05
-0.000115205
3.96983e-05
5.34564e-05
-9.07034e-05
4.922e-05
4.91903e-05
-5.58477e-05
4.6706e-05
4.28066e-05
-1.93037e-05
3.44765e-05
1.57888e-05
2.11644e-05
5.54177e-05
-7.16846e-05
3.74505e-05
5.18276e-05
-5.25446e-05
4.2842e-05
4.66708e-05
-1.93183e-05
4.11057e-05
4.10746e-05
-1.2516e-06
3.42503e-05
2.665e-05
1.62547e-05
-1.21355e-05
2.88927e-05
-2.65896e-06
3.45175e-05
1.57536e-05
3.42823e-05
2.66335e-05
4.6207e-05
5.23484e-05
5.22888e-05
-0.00030114
7.92759e-05
4.47445e-05
-0.000230019
9.10872e-05
3.8735e-05
-0.000167923
8.19531e-05
3.1386e-05
-9.62065e-05
2.56229e-05
-1.6531e-05
4.48168e-05
7.9217e-05
-0.000230043
6.95702e-05
6.95063e-05
-0.000176112
8.16992e-05
6.19005e-05
-0.00012598
7.52349e-05
5.17931e-05
-6.64417e-05
4.29821e-05
1.58338e-06
3.87934e-05
9.10247e-05
-0.000167958
6.19602e-05
8.16395e-05
-0.000126003
7.34891e-05
7.34333e-05
-7.89094e-05
6.93677e-05
6.40466e-05
-2.74359e-05
5.3513e-05
2.34599e-05
3.14524e-05
8.18863e-05
-9.62664e-05
5.18569e-05
7.51843e-05
-6.6494e-05
6.41035e-05
6.93239e-05
-2.74556e-05
5.94084e-05
5.93624e-05
8.12778e-06
5.45531e-05
3.96169e-05
2.57049e-05
-1.66685e-05
4.30544e-05
1.51658e-06
5.35684e-05
2.34242e-05
5.45986e-05
3.95913e-05
6.94069e-05
8.22587e-05
8.22036e-05
-0.000468485
0.000120443
6.9377e-05
-0.000339159
0.00013262
5.77317e-05
-0.000240117
0.000113279
4.56901e-05
-0.000124953
3.55595e-05
-2.14526e-05
6.94467e-05
0.000120376
-0.000339179
0.000102935
0.000102868
-0.00024309
0.000116338
8.89052e-05
-0.000170557
0.000101953
7.18841e-05
-7.82508e-05
5.83537e-05
7.92485e-06
5.779e-05
0.000132554
-0.000240158
8.89693e-05
0.000116274
-0.00017059
0.000102214
0.000102151
-0.0001054
9.21517e-05
8.48677e-05
-3.03571e-05
7.08156e-05
3.56628e-05
4.57559e-05
0.000113222
-0.000125023
7.19533e-05
0.000101902
-7.83187e-05
8.49312e-05
9.20928e-05
-3.03749e-05
7.99757e-05
7.99194e-05
1.80316e-05
6.92979e-05
6.13034e-05
3.56182e-05
-2.16108e-05
5.84165e-05
7.83424e-06
7.08771e-05
3.56096e-05
6.93552e-05
6.12642e-05
0.00010115
0.000181424
0.000181318
-0.000836144
0.000235233
0.000133356
-0.00052908
0.000236587
0.000107522
-0.000352454
0.000187112
7.71774e-05
-0.000156148
5.74367e-05
-1.65794e-05
0.000133548
0.000235142
-0.000529147
0.000185885
0.000185769
-0.000347841
0.000196333
0.000156572
-0.000230055
0.000159576
0.00011754
-8.18563e-05
9.68168e-05
2.2387e-05
0.000107625
0.000236499
-0.000352518
0.000156669
0.000196232
-0.000230096
0.000170638
0.000170543
-0.00013334
0.000145435
0.000134744
-2.23582e-05
0.000112896
6.53262e-05
7.72976e-05
0.000187032
-0.000156234
0.000117651
0.000159502
-8.19424e-05
0.000134842
0.000145349
-2.23724e-05
0.000120033
0.000119952
4.76327e-05
0.000104867
0.000105124
5.75211e-05
-1.67752e-05
9.69102e-05
2.22607e-05
0.000112988
6.52492e-05
0.000104949
0.000105073
0.000155942
0.000326204
0.000326158
-0.00149174
0.00038925
0.000230127
-0.000823611
0.000365772
0.000172401
-0.000504568
0.000269572
0.000115548
-0.000178579
8.30913e-05
1.07981e-06
0.000230218
0.000389138
-0.000823613
0.000288828
0.000288738
-0.000465062
0.000286766
0.000232327
-0.000287919
0.000222704
0.00016342
-6.56669e-05
0.000128
6.11534e-05
0.000172471
0.000365629
-0.000504605
0.000232421
0.000286649
-0.000287957
0.000241248
0.000241139
-0.000150979
0.000197458
0.000182946
1.9064e-06
0.000144838
0.000117305
0.00011565
0.000269438
-0.000178675
0.000163531
0.000222605
-6.57795e-05
0.000183051
0.000197347
1.8994e-06
0.000154632
0.000154533
0.000104465
0.000129101
0.000170638
8.31743e-05
8.70079e-07
0.000128107
6.09812e-05
0.000144945
0.000117207
0.000129204
0.000170575
0.000227519
0.000777705
0.000777492
-0.00305543
0.00082443
0.000473772
-0.00134983
0.00068163
0.000332174
-0.000699675
0.000466432
0.000195423
-0.000164268
0.000134833
7.25548e-05
0.000474459
0.000824342
-0.00134998
0.000544101
0.00054387
-0.000604801
0.000496037
0.00041557
-0.00032325
0.000360058
0.000269149
-3.41429e-06
0.000198722
0.000153679
0.000332332
0.000681483
-0.000699732
0.000415724
0.000495834
-0.000323313
0.000406168
0.000405996
-0.000131849
0.000308217
0.000281318
8.76883e-05
0.000216218
0.00022064
0.000195678
0.000466272
-0.000164353
0.00026935
0.000359934
-3.55214e-06
0.000281499
0.000308047
8.76996e-05
0.000225389
0.000225223
0.000216671
0.000186051
0.000282982
0.0001349
7.22654e-05
0.00019886
0.000153396
0.000216373
0.000220498
0.000186224
0.000282871
0.000340726
0.00156251
0.00156262
-0.00155458
-0.0015155
-0.00151539
-0.00159409
0.0014469
0.000862788
-0.00209227
0.00106697
0.000536927
-0.000860534
0.000664656
0.000299466
-6.38685e-05
0.000181754
0.000220758
0.000862698
0.00144666
-0.00209222
0.000847225
0.000847156
-0.000573696
0.000702605
0.000609393
-0.000251097
0.000465357
0.00034816
0.000185141
0.000245558
0.000316141
0.000536983
0.00106662
-0.000860494
0.000609534
0.000702411
-0.000251118
0.000559724
0.000559535
-3.21813e-05
0.000392227
0.000348097
0.000255249
0.00025842
0.000377157
0.000299582
0.000664335
-6.3955e-05
0.000348319
0.000465133
0.000184989
0.000348276
0.000391984
0.000255295
0.000264755
0.00026454
0.000383749
0.000213874
0.000431993
0.000181838
0.000220445
0.000245725
0.000315749
0.000258614
0.000376965
0.000214108
0.00043182
0.00047946
0.000631594
0.000631476
-0.00282516
0.00321199
0.0017162
-0.00119023
-0.000584753
-0.000940846
-0.000576482
-0.000829268
-0.000907525
-0.00101669
-0.000994595
0.00188758
0.00091533
-0.000461518
0.00104488
0.000434101
0.000336292
0.000246222
0.000517852
0.00171843
0.00321237
-0.00119088
-0.000941157
-0.000584142
-0.000576639
-0.000828972
-0.000907322
-0.0010164
-0.000994367
0.00159771
0.00159734
-0.000334124
0.00113697
0.00101511
0.000109865
0.000693332
0.000514071
0.00054881
0.000332784
0.000581677
0.000915497
0.00188743
-0.000461672
0.00101516
0.00113658
0.000109982
0.000817902
0.000817673
0.000362514
0.000551936
0.0004791
0.000556187
0.000335422
0.000617949
0.000434604
0.00104467
0.000336312
0.000514323
0.000693043
0.000548806
0.000479394
0.000551637
0.00055626
0.000351002
0.000350698
0.000640542
0.000273202
0.000639673
0.000246253
0.000517286
0.000332953
0.000581052
0.000335683
0.000617647
0.000273521
0.000639424
0.000654735
0.00124317
0.00044447
0.000444724
-0.00213203
-0.00322726
0.0022681
0.000843132
-0.00106926
0.00275826
0.00146
0.00150786
-0.0014585
-0.00137432
-0.00182583
-0.00153508
0.00138339
0.000569269
0.00114575
0.000299684
0.00105159
-0.00322844
0.00084186
0.00226655
-0.00107134
0.00237232
0.00237116
0.000635054
-0.000911739
-0.000780771
-0.00125151
-0.000660352
-0.000911252
-0.000781167
-0.00125227
-0.000660532
0.000538
0.000537905
0.000421038
0.00128674
0.00136857
0.00128686
0.000769323
0.000561385
0.00107411
0.000359615
0.000977754
0.00146016
0.00275749
0.00150662
-0.00145688
-0.00137388
-0.00182591
-0.00153499
0.00136892
0.00128626
0.00128612
0.000972385
0.000971965
0.00115566
0.000606603
0.000482464
0.00100089
0.000342979
0.000938483
0.000569538
0.00138272
0.00114598
0.00056163
0.000768749
0.00107422
0.000482792
0.000606069
0.00100099
0.000339654
0.000339238
0.000926905
0.000266558
0.000872213
0.000299874
0.00105115
0.000360048
0.000976915
0.000343463
0.000938129
0.00026705
0.000871956
0.000839478
0.00472293
3.37729e-05
3.38136e-05
-0.00479157
-0.00157404
0.000121634
0.000288146
-0.000204462
0.00136658
0.00267953
0.00132963
0.00345069
-0.00203628
-0.00164053
-0.00127242
-0.0010221
0.00139083
0.000548089
0.00187781
0.000270557
0.00156373
-0.00157342
0.000120479
0.000289299
-0.000203802
0.00136694
-0.0004107
-0.000410976
0.00106869
0.00106894
0.00128322
-0.000335177
-0.000347103
-0.000299464
-0.000335361
-0.000347395
-0.000299624
0.0013901
0.00138864
0.00249721
-0.00085654
-0.000687753
-0.000563079
-0.000552078
0.000833454
0.000569729
0.00160912
0.000354622
0.00137731
0.00132931
0.00267885
0.00344743
-0.00203808
-0.00164135
-0.001273
-0.00102199
0.00138908
0.00138939
0.00249563
-0.000856507
-0.000687531
-0.000562823
-0.000551815
0.00100298
0.00100264
0.00192776
0.000628341
0.000501583
0.00144368
0.000335751
0.00123801
0.000547875
0.00139066
0.00187822
0.000569816
0.000832602
0.00160907
0.000501929
0.000627838
0.00144368
0.000355112
0.000354627
0.00122068
0.000270852
0.0010954
0.000270388
0.0015627
0.000354921
0.00137582
0.000336316
0.00123738
0.000271385
0.00109519
0.000994791
0.00494221
1.35124e-05
1.36459e-05
-0.00497103
7.93697e-05
0.0013012
-9.58278e-05
-0.00135194
5.77508e-05
0.000841902
0.000405237
0.003164
-0.000832175
-0.000454257
0.000199544
0.000131754
0.000500972
0.000278421
0.00194009
0.000105277
0.00161869
7.9739e-05
0.00129806
-9.60306e-05
-0.00134973
5.82304e-05
0.000123905
0.000122178
0.00264465
0.000258795
-0.000256448
0.000475884
-0.000134663
0.000259294
-0.000254637
0.000472973
-0.00013508
-0.00116262
-0.000791519
-0.000791549
-0.000831167
0.000289111
0.000370224
0.00236701
0.000262552
0.000238401
0.0016757
0.000145316
0.00143098
0.00041174
0.000840825
0.00316504
-0.000834965
-0.000454339
0.000196888
0.00013244
0.000373839
0.000288626
0.00236709
0.000325038
0.000324314
0.00202247
0.00026588
0.000204456
0.00153678
0.000159325
0.00132408
0.000277849
0.000500931
0.0019399
0.000238442
0.000261492
0.00167561
0.000204889
0.000264687
0.00153686
0.000161694
0.000161112
0.00130722
0.000143768
0.00116675
0.000107515
0.00161873
0.00014683
0.00143128
0.000160212
0.00132418
0.000144668
0.0011667
0.00105645
-0.000529026
-0.000528286
0.00512953
0.00504535
0.0050451
0.00491374
-0.00463276
-0.00487082
-0.00479552
-0.00479556
0.000990321
0.00178284
-0.000872932
-0.000343774
-0.00155618
0.000367344
-0.000262189
0.00219517
0.000357366
0.000274412
-8.63473e-07
0.000221212
0.000153056
0.000191151
0.00195574
-5.28022e-05
0.00145549
0.000988638
0.00178511
-0.000346437
-0.000872849
-0.00155634
-0.000142065
-0.00014147
0.000412514
0.000257521
6.05824e-05
-3.80238e-05
0.00021232
0.000259339
6.29385e-05
-3.66235e-05
0.000213572
0.000502132
0.000502169
0.000519748
5.84813e-05
-8.7079e-05
0.00199136
0.000119533
0.000139074
0.00166672
1.44314e-05
0.00135185
-0.000260902
0.000365916
0.00219681
0.00035745
0.000274385
-1.28114e-06
0.000220838
-8.57472e-05
5.81105e-05
0.00199235
4.49712e-05
4.40025e-05
0.00176067
0.000121231
0.000100262
0.00149933
4.77913e-05
0.00125783
0.000190485
0.000152119
0.00195501
0.000139212
0.00011857
0.00166642
0.000100652
0.000120304
0.00149912
9.59979e-05
9.53946e-05
0.00131674
8.32517e-05
0.00115099
-5.20144e-05
0.00145566
1.5424e-05
0.00135242
4.87955e-05
0.00125795
8.40255e-05
0.00115125
0.00102697
0.00496335
1.40271e-05
1.39421e-05
-0.00499207
-0.000482577
0.000438914
0.000335953
0.000149375
-0.000445003
-0.000126263
-9.77063e-05
0.00259629
-0.000276582
-3.77337e-05
3.75196e-06
0.000119623
-9.19906e-05
-3.58006e-05
0.00194551
-5.91655e-05
0.00140256
-0.00048238
0.000438823
0.000149579
0.000335818
-0.000444918
-0.000252586
-0.000253023
0.00016241
0.000161909
0.000593805
-0.000133551
-0.000125909
0.00220254
-7.82773e-05
2.39987e-05
-4.28255e-05
4.76775e-05
-0.00011475
-7.91187e-05
0.00169124
-6.6231e-05
0.00128165
-9.55288e-05
-0.000126845
0.00259669
-0.000276463
-3.75329e-05
3.98937e-06
0.000119812
-0.000124222
-0.000134292
0.00220334
-7.8091e-05
2.4427e-05
-4.24519e-05
4.81135e-05
-0.0001305
-0.00013179
0.00177283
-6.95832e-05
-8.50886e-05
0.00144438
-5.21852e-05
0.00117573
-3.53884e-05
-9.32123e-05
0.00194528
-7.86114e-05
-0.000115881
0.00169123
-8.46848e-05
-7.07723e-05
0.00144418
-5.50776e-05
-5.5682e-05
0.00125772
-6.34582e-06
0.00106499
-5.8027e-05
0.00140313
-6.50226e-05
0.00128227
-5.10688e-05
0.00117596
-4.98068e-06
0.00106508
0.000961355
0.00505404
1.65281e-05
1.64728e-05
-0.00508445
-0.000110709
0.000473854
0.000286252
-2.27146e-05
-0.000640683
-0.00106114
-0.000584691
0.00217303
0.000136069
0.000326913
0.000800618
0.000825432
-0.000526797
-0.000185161
0.00160168
-0.000161835
0.00119624
-0.00011067
0.00047378
-2.26958e-05
0.00028619
-0.000640596
8.40412e-05
8.39969e-05
-0.000827874
-0.000339195
-0.000339405
0.000858285
8.08865e-05
9.20128e-05
6.72396e-05
8.08387e-05
9.19744e-05
6.71976e-05
-0.00077746
-0.000593142
0.00174976
0.000318448
0.000325289
0.000306439
0.000288509
-0.000398154
-0.000274452
0.00140123
-0.000158079
0.00109927
-0.000584079
-0.00106174
0.00217331
0.000136227
0.00032695
0.000800699
0.000825558
-0.000592444
-0.000778013
0.00175019
0.000318657
0.000325503
0.000306648
0.000288719
-0.000440569
-0.000441201
0.00146901
-0.000246292
-0.000252309
0.00122796
-0.000142777
0.00100371
-0.00018496
-0.000527643
0.00160167
-0.000274091
-0.000398978
0.00140133
-0.000251948
-0.000247036
0.00122787
-0.000164982
-0.000165459
0.00108391
-7.49521e-05
0.000927884
-0.000161207
0.0011968
-0.000157344
0.00109997
-0.000142142
0.00100406
-7.43844e-05
0.000928147
0.000822163
0.00504008
-0.00224349
-0.00224364
-0.0151242
0.00494255
0.00494255
0.00473865
-0.00462769
-0.00300928
-0.00248859
0.00292392
0.00242626
0.00272867
0.00203674
0.000765516
-0.000344656
-0.000406678
-3.17117e-05
-0.00226191
-0.00112178
0.000924726
-0.00113438
-0.000401352
0.000869408
-0.000243571
0.00080854
-0.00300867
-0.00462817
-0.0024885
0.00292403
0.00242636
0.00272874
0.00203684
0.000765386
-0.000406745
-0.000344687
-3.17466e-05
-0.00224258
-0.002243
0.000995143
-0.000607792
-0.000635288
-0.000635278
-0.000649153
-0.00149529
-0.00111324
0.000993922
-0.000801089
-0.000527816
0.000833487
-0.000274411
0.000795938
-0.00112146
-0.00226237
0.000924976
-0.00111283
-0.00149571
0.000994268
-0.000833479
-0.000833874
0.000910301
-0.000496472
-0.000471982
0.000835122
-0.000246559
0.000741205
-0.000401134
-0.00113487
0.000869471
-0.000527506
-0.000801608
0.000833597
-0.000471644
-0.000496951
0.000835084
-0.000319046
-0.000319443
0.000778772
-0.000154784
0.000720738
-0.000243165
0.00080914
-0.000273914
0.000796605
-0.000246071
0.000741561
-0.000154346
0.000721018
0.000649568
-0.00587609
-0.0058763
-0.0196209
0.01011
0.0079653
0.00796523
0.00532792
-0.00365055
-0.00234173
-0.00237724
-0.00187563
-0.000969133
0.000112701
-0.00106641
-0.000361253
0.000416175
-0.00024972
0.0004797
-0.00234158
-0.00365075
-0.00237716
-0.00183197
-0.00183219
-2.40148e-05
-0.00120303
-0.00101015
0.000406006
-0.000733732
-0.000468607
0.000471545
-0.000285664
0.000526145
-0.000968949
-0.00187586
0.000113018
-0.0010099
-0.00120324
0.000406264
-0.000784872
-0.000785111
0.000460231
-0.000500927
-0.000441948
0.000524518
-0.000268866
0.000511598
-0.000361091
-0.00106669
0.000416326
-0.000468433
-0.000733996
0.000471698
-0.000441724
-0.000501243
0.000524507
-0.000325499
-0.000325784
0.000546383