/*--------------------------------*- C++ -*----------------------------------*\
| =========                 |                                                 |
| \\      /  F ield         | OpenFOAM: The Open Source CFD Toolbox           |
|  \\    /   O peration     | Version:  5.x                                   |
|   \\  /    A nd           | Web:      www.OpenFOAM.org                      |
|    \\/     M anipulation  |                                                 |
\*---------------------------------------------------------------------------*/
FoamFile
{
    version     2.0;
    format      ascii;
    class       volScalarField;
    location    "0.054";
    object      interFace;
}
// * * * * * * * * * * * * * * * * * * * * * * * * * * * * * * * * * * * * * //

dimensions      [0 0 0 0 0 0 0];

internalField   nonuniform List<scalar> 
1560
(
0
0
0
0
0
0
0
0
0
0
0
0
0
0
0
0
0
0
0
0
0
0
0
0
0
0
0
0
0
0
0
0
0
0
0
0
0
0
0
0
0
0
0
0
0
0
0
0
0
0
0
0
0
0
0
0
0
0
0
0
0
0
0
0
0
0
0
0
0
0
0
0
0
0
0
0
0
0
0
0
0
0
0
0
0
0
0
0
0
0
0
0
0
0
0
0
0
0
0
0
0
0
0
0
0
0
0
0
0
0
0
0
0
0
0
0
0
0
0
0
0
0
0
0
0
0
0
0
0
0
0
0
0
0
0
0
0
0
0
0
0
0
0
0
0
0
0
0
0
0
0
0
0
0
0
0
0
0
0
0
0
0
0
0
0
0
0
0
0
0
0
0
0
0
0
0
0
0
0
0
0
0
0
0
0
0
0
0
0
0
0
0
0
0
0
0
0
0
0
0
0
0
0
0
0
0
0
0
0
0
0
0
0
0
0
0
0
0
0
0
0
0
0
0
0
0
0
0
0
0
0
0
0
0
0
0
0
0
0
0
0
0
0
0
0
0
0
0
0
0
0
0
0
0
0
0
0
0
0
0
0
0
0
0
0
0
0
0
0
0
0
0
0
0
0
0
0
0
0
0
0
0
0
0
0
0
0
0
0
0
0
0
0
0
0
0
0
0
0
0
0
0
0
0
0
0
0
0
0
0
0
0
0
0
0
0
0
0
0
0
0
0
0
0
0
0
0
0
0
0
0
0
0
0
0
0
0
0
0
0
0
0
0
0
0
0
0
0
0
0
0
0
0
0
0
0
0
0
0
0
0
0
0
0
0
0
0
0
0
0
0
0
0
0
0
0
0
0
0
0
0
0
0
0
0
0
0
0
0
0
0
0
0
0
0
0
0
0
0
0
0
0
0
0
0
0
0
0
0
0
0
0
0
0
0
0
0
0
0
0
0
0
0
0
0
0
0
0
0
0
0
0
0
0
0
0
0
0
0
0
0
0
0
0
0
0
0
0
0
0
0
0
0
0
0
0
0
0
0
0
0
0
0
0
0
0
0
0
0
0
0
0
0
0
0
0
0
0
0
0
0
0
0
0
0
0
0
0
0
0
0
0
0
0
0
0
0
0
0
0
0
0
0
0
0
0
0
0
0
0
0
0
0
0
0
0
0
0
0
0
0
0
0
0
0
0
0
0
0
0
0
0
0
0
0
0
0
0
0
0
0
0
0
0
0
0
0
0
0
0
0
0
0
0
0
0
0
0
0
0
0
0
0
0
0
0
0
0
0
0
0
0
0
0
0
0
0
0
0
0
0
0
0
0
0
0
0
0
0
0
0
0
0
0
0
0
0
0
0
0
0
0
0
0
0
0
0
0
0
0
0
0
0
0
0
0
0
0
0
0
0
0
0
0
0
0
0
0
0
0
0
0
0
0
0
0
0
0
0
0
0
0
0
0
0
0
0
0
0
0
0
0
0
0
0
0
0
0
0
0
0
0
0
0
0
0
0
0
0
0
0
0
0
0
0
0
0
0
0
0
0
0
0
0
0
0
0
0
0
0
0
0
0
0
0
0
0
0
0
0
0.385118
0.870799
0
0
0
0.870805
0
0
0
0
0
0
0
0
0
0
0
0
0
0
0
0
0
0
0
0.0113964
0.459723
0
0
0
0.459729
0
0
0
0
0
0
0
0
0
0
0
0
0
0
0
0
0
0
0
0.354804
0
0
0
0
0
0
0
0
0
0
0
0
0
0
0
0
0
0
0
0
0
0
0
0
0.730332
0
0
0
0
0
0
0
0
0
0
0
0
0
0
0
0
0
0
0
0
0
0
0
0
0.0733318
0.521652
0
0
0
0.521654
0
0
0
0
0
0
0
0
0
0
0
0
0
0
0
0
0
0
0
0.13346
0.58178
0
0
0
0.581782
0
0
0
0
0
0
0
0
0
0
0
0
0
0
0
0
0
0
0
0
0
0
0
0
0
0
0
0
0
0
0
0
0
0
0
0
0
0
0
0
0
0
0
0
0
0
0
0
0
0
0
0
0
0
0
0
0
0
0
0
0
0
0
0
0
0
0
0
0
0
0
0
0
0
0
0
0
0
0
0
0
0
0
0
0
0
0
0
0
0
0
0
0
0
0
0
0
0
0
0
0
0
0
0
0
0
0
0
0
0
0
0
0
0
0
0
0
0
0
0
0
0
0
0
0
0
0
0
0
0
0
0
0
0
0
0
0
0
0
0
0
0
0
0
0
0
0
0
0
0
0
0
0
0
0
0
0
0
0
0
0
0
0
0
0
0
0
0
0
0.623817
0.623822
0.892836
0.967246
0
0
0
0
0
0
0
0
0
0
0
0
0
0
0
0
0
0.821973
0.821974
0
0.170351
0.43936
0.439362
0.708371
0.342341
0.342342
0.611352
0.0511971
0.320206
0.320208
0.589217
0.402469
0.402471
0.67148
0.649172
0.918181
0.918182
0.927531
0
0.942345
0
0
0
0
0
0.942346
0
0
0
0
0
0
0
0
0
0
0
0
0
0.522146
0.432447
0.694021
0.694021
0.738871
0.477296
0.477297
0.611816
0.701456
0.783691
0.963031
0.746306
0.82854
0.566966
0.611816
0.701458
0.783692
0.963032
0.746307
0.828541
0.566967
0.28041
0.280415
0.549429
0.201721
0.470735
0.47074
0.739754
0.64241
0.399654
0.399656
0.552707
0.444507
0.597557
0.597559
0.732081
0.489326
0.66867
0.821721
0.534178
0.866573
0.687229
0.732083
0.489329
0.668673
0.821726
0.53418
0.866576
0.687232
0.821754
0.758343
0.758345
0
0.623851
0.956246
0.956248
0.350242
0.178309
0.17831
0.260543
0.223159
0.305393
0.305393
0.439912
0.267979
0.447319
0.529553
0.312829
0.574402
0.395062
0.439912
0.26798
0.44732
0.529554
0.312829
0.574403
0.395063
0.246572
0.246573
0.291424
0.183162
0.0934589
0.13831
0.138311
0
0.728742
0
0.650047
0
0.892947
0
0.728743
0
0
0.650054
0.892951
0
0
0.336243
0.515587
0.381095
0.272833
0.362473
0.407325
0.227981
0.336246
0.515591
0.381097
0.272835
0.362478
0.407329
0.227984
0.529582
0.536989
0.53699
0.798563
0.402499
0.664072
0.664073
0.60526
0.605262
0.470768
0.362506
0.631492
0.496998
0.497
0.103454
0.0137548
0.0960463
0.0960468
0.140896
0.058604
0.0586045
0
0.790662
0
0.499517
0
0.768528
0
0.790663
0
0
0.499519
0.768528
0
0
0.977844
0.805911
0.62663
0.708863
0.850761
0.753713
0.932995
0.977846
0.626631
0.805914
0.708865
0.850763
0.753715
0.932997
0.193123
0.282764
0.185716
0.365056
0.327614
0.230566
0.148274
0.193124
0.282765
0.185717
0.365057
0.327615
0.230566
0.148275
0.654132
0.654137
0.923151
0.037596
0.30661
0.306615
0.575629
0.119721
0.0562472
0.0562489
0.0300174
0.1011
0.0748682
0.0748698
0.209392
0.145919
0.325263
0.299031
0.190771
0.343884
0.16454
0.209394
0.145922
0.325266
0.299036
0.190773
0.343887
0.164543
0.87418
0.6949
0.919033
0.541785
0.586638
0.810771
0.765918
0.694905
0.874189
0.919039
0.541792
0.586643
0.810777
0.765927
0.282794
0.551775
0.454726
0.454727
0.417284
0.417284
0.320236
0.299065
0.414936
0.414938
0.56805
0.280444
0.433557
0.433558
0.110832
0.118181
0.118181
0.021133
0.163031
0.0659822
0.0659827
0.462075
0.723648
0.544367
0.506925
0.768498
0.731056
0.686206
0.462077
0.544368
0.723651
0.506926
0.7685
0.731058
0.686209
0.200502
0.207851
0.387191
0.290142
0.2527
0.334992
0.155652
0.200502
0.207852
0.387192
0.290144
0.252701
0.334993
0.155653
0.0824468
0.0824485
0.127299
0.198319
0.108616
0.153467
0.153469
0
0
0
0.485922
0
0.818463
0
0
0
0
0.485929
0.818467
0
0
0.504575
0.478344
0.523196
0.747329
0.683856
0.728708
0.702477
0.50458
0.47835
0.523201
0.747336
0.683864
0.728715
0.702485
0.290172
0.476861
0.476861
0.559153
0.342371
0.424662
0.424663
0.172118
0.351462
0.216971
0.287991
0.37763
0.422483
0.243138
0.172121
0.351466
0.216972
0.287992
0.377635
0.422486
0.243142
0.441135
0.441137
0.306644
0.377664
0.646649
0.512156
0.512157
0
0
0
0
0
0
0
0.731085
0.634037
0.992659
0.596595
0.858168
0.820726
0.955217
0.731086
0.634038
0.99266
0.596596
0.85817
0.820728
0.955218
0.40189
0.312191
0.2152
0.215201
0.26005
0.35704
0.357041
0
0
0
0.807274
0
0.986614
0
0
0
0
0.807276
0.986615
0
0
0.745783
0.566501
0.469453
0.790633
0.514303
0.738434
0.693584
0.566503
0.745786
0.469455
0.790635
0.514304
0.738436
0.693587
0.49156
0.5812
0.30487
0.48421
0.62605
0.34972
0.44671
0.49156
0.581202
0.304871
0.484211
0.626051
0.34972
0.446711
0
0
0
0.743795
0.923137
0.923141
0
0.31416
0.429969
0.42997
0.224457
0.474821
0.269308
0.269309
0.403831
0.51964
0.698984
0.493471
0.564493
0.538323
0.358979
0.403833
0.519643
0.698988
0.493476
0.564494
0.538327
0.358982
0.530775
0.710055
0.754908
0.556942
0.601795
0.825928
0.781075
0.53078
0.710064
0.754914
0.556949
0.6018
0.825935
0.781084
0.58123
0.850211
0.57388
0.573881
0.71572
0.715721
0.43939
0.493504
0.788657
0.788659
0.76249
0.654166
0.627996
0.627998
0.656172
0
0.738464
0.880303
0.603973
0.828104
0.962595
0.656173
0
0.738464
0.880305
0.603974
0.828106
0.962596
0
0
0
0
0
0
0
0.594248
0.747363
0.612869
0.837002
0.952875
0.818381
0.971496
0.594252
0.747364
0.612873
0.837007
0.952878
0.818386
0.971499
0.58855
0.775181
0.775182
0.498851
0.820031
0.543701
0.543701
)
;

boundaryField
{
    inlet
    {
        type            calculated;
        value           uniform 0;
    }
    wall
    {
        type            calculated;
        value           uniform 0;
    }
    outlet
    {
        type            calculated;
        value           uniform 0;
    }
    procBoundary3to1
    {
        type            processor;
        value           uniform 0;
    }
    procBoundary3to2
    {
        type            processor;
        value           uniform 0;
    }
}


// ************************************************************************* //
