/*--------------------------------*- C++ -*----------------------------------*\
| =========                 |                                                 |
| \\      /  F ield         | OpenFOAM: The Open Source CFD Toolbox           |
|  \\    /   O peration     | Version:  5.x                                   |
|   \\  /    A nd           | Web:      www.OpenFOAM.org                      |
|    \\/     M anipulation  |                                                 |
\*---------------------------------------------------------------------------*/
FoamFile
{
    version     2.0;
    format      ascii;
    class       surfaceScalarField;
    location    "0.054";
    object      phi;
}
// * * * * * * * * * * * * * * * * * * * * * * * * * * * * * * * * * * * * * //

dimensions      [0 3 -1 0 0 0 0];

internalField   nonuniform List<scalar> 
4318
(
2.2953e-08
2.26209e-08
-6.54791e-08
5.89521e-08
2.23359e-08
-6.88382e-08
7.76071e-08
2.20829e-08
-5.13068e-08
1.01638e-07
2.19466e-08
-5.66877e-08
2.16322e-08
-2.16963e-08
2.2667e-08
5.86129e-08
-6.88135e-08
5.87312e-08
5.83923e-08
-7.21651e-08
7.74436e-08
5.79736e-08
-5.46367e-08
1.01506e-07
5.78374e-08
-5.99832e-08
5.7201e-08
-2.50236e-08
2.24138e-08
7.72899e-08
-5.13119e-08
5.83127e-08
7.71266e-08
-5.46667e-08
7.6947e-08
7.66297e-08
-3.73205e-08
1.00923e-07
7.65144e-08
-4.26807e-08
7.56947e-08
-8.06936e-09
2.2277e-08
1.01321e-07
-5.66722e-08
5.81764e-08
1.0119e-07
-5.99922e-08
7.68317e-08
1.00606e-07
-4.26592e-08
1.00803e-07
1.00486e-07
-4.79694e-08
9.95163e-08
-1.34112e-08
2.19617e-08
-2.17354e-08
5.75395e-08
-2.50874e-08
7.60116e-08
-8.10274e-09
9.98334e-08
-1.34664e-08
2.04632e-08
1.17992e-08
1.1576e-08
-1.06943e-07
2.77844e-08
1.17399e-08
-1.0549e-07
3.60248e-08
1.17743e-08
-7.99731e-08
3.57634e-08
1.17881e-08
-7.67904e-08
1.16499e-08
-3.52757e-08
1.19651e-08
2.75901e-08
-1.05493e-07
2.78666e-08
2.7671e-08
-1.04041e-07
3.60407e-08
2.75209e-08
-7.85935e-08
3.57504e-08
2.74865e-08
-7.54248e-08
2.71568e-08
-3.39866e-08
1.19985e-08
3.58625e-08
-8.00089e-08
2.77156e-08
3.58773e-08
-7.86264e-08
3.57902e-08
3.56274e-08
-5.35351e-08
3.54473e-08
3.55644e-08
-5.04479e-08
3.51331e-08
-9.54576e-09
1.20132e-08
3.56563e-08
-7.68279e-08
2.76818e-08
3.56427e-08
-7.54595e-08
3.57276e-08
3.53399e-08
-5.04496e-08
3.53889e-08
3.52812e-08
-4.73787e-08
3.48078e-08
-6.58385e-09
1.18746e-08
-3.53449e-08
2.73517e-08
-3.40532e-08
3.5296e-08
-9.57945e-09
3.49153e-08
-6.6159e-09
3.33593e-08
2.86709e-08
2.83409e-08
-1.83326e-07
6.68626e-08
2.80418e-08
-1.81919e-07
8.65801e-08
2.75469e-08
-1.37672e-07
1.05579e-07
2.73573e-08
-1.33753e-07
2.67893e-08
-6.24054e-08
2.83718e-08
6.65391e-08
-1.81917e-07
6.66003e-08
6.62767e-08
-1.80529e-07
8.63543e-08
6.55586e-08
-1.3638e-07
1.05394e-07
6.53574e-08
-1.32485e-07
6.43831e-08
-6.12598e-08
2.78765e-08
8.62814e-08
-1.37722e-07
6.58821e-08
8.60553e-08
-1.36432e-07
8.55373e-08
8.52382e-08
-9.28906e-08
1.0451e-07
8.50453e-08
-8.91295e-08
8.38517e-08
-1.88596e-08
2.76868e-08
1.05302e-07
-1.33801e-07
6.5681e-08
1.05115e-07
-1.32534e-07
8.53446e-08
1.04232e-07
-8.91274e-08
1.0433e-07
1.04052e-07
-8.53918e-08
1.02719e-07
-1.5312e-08
2.71178e-08
-6.25108e-08
6.47061e-08
-6.13669e-08
8.41506e-08
-1.89152e-08
1.02998e-07
-1.53699e-08
5.32137e-08
3.02432e-08
2.99737e-08
-2.65113e-07
6.84319e-08
3.00287e-08
-2.60923e-07
8.90495e-08
2.98307e-08
-1.98612e-07
1.04585e-07
2.97868e-08
-1.89536e-07
2.92565e-08
-9.03139e-08
3.02992e-08
6.81819e-08
-2.60936e-07
6.84141e-08
6.8163e-08
-2.56785e-07
8.89808e-08
6.7529e-08
-1.94655e-07
1.04487e-07
6.74139e-08
-1.85628e-07
6.62924e-08
-8.6624e-08
3.01003e-08
8.88246e-08
-1.98683e-07
6.77793e-08
8.8755e-08
-1.94712e-07
8.81121e-08
8.78867e-08
-1.33591e-07
1.03454e-07
8.77347e-08
-1.24803e-07
8.6275e-08
-2.73263e-08
3.00569e-08
1.04395e-07
-1.89614e-07
6.76647e-08
1.04296e-07
-1.85693e-07
8.79606e-08
1.03263e-07
-1.2481e-07
1.03284e-07
1.03093e-07
-1.16084e-07
1.01427e-07
-1.89366e-08
2.95256e-08
-9.04468e-08
6.65425e-08
-8.67448e-08
8.65003e-08
-2.73896e-08
1.01618e-07
-1.89925e-08
7.58185e-08
5.04657e-08
5.01019e-08
-3.8852e-07
1.10249e-07
4.9732e-08
-3.8238e-07
1.41482e-07
4.87492e-08
-2.90881e-07
1.68542e-07
4.84508e-08
-2.77543e-07
4.71796e-08
-1.32875e-07
5.00963e-08
1.09898e-07
-3.82395e-07
1.09868e-07
1.09517e-07
-3.76339e-07
1.41113e-07
1.07962e-07
-2.85112e-07
1.68209e-07
1.07591e-07
-2.71866e-07
1.05402e-07
-1.27551e-07
4.91124e-08
1.41159e-07
-2.90969e-07
1.08313e-07
1.40789e-07
-2.85186e-07
1.39279e-07
1.38955e-07
-1.95552e-07
1.66204e-07
1.38563e-07
-1.82703e-07
1.35859e-07
-4.0827e-08
4.88142e-08
1.68248e-07
-2.77639e-07
1.07943e-07
1.67914e-07
-2.71948e-07
1.38887e-07
1.65909e-07
-1.82711e-07
1.65822e-07
1.65527e-07
-1.69985e-07
1.62532e-07
-2.86701e-08
4.75412e-08
-1.33044e-07
1.05753e-07
-1.27707e-07
1.36182e-07
-4.09092e-08
1.62828e-07
-2.87445e-08
1.08815e-07
6.95757e-08
6.92266e-08
-5.54505e-07
1.48678e-07
6.90635e-08
-5.44336e-07
1.90435e-07
6.80707e-08
-4.14365e-07
2.24665e-07
6.78288e-08
-3.93313e-07
6.61785e-08
-1.87804e-07
6.94138e-08
1.48347e-07
-5.4436e-07
1.48402e-07
1.4807e-07
-5.34326e-07
1.90098e-07
1.46067e-07
-4.04801e-07
2.24305e-07
1.45657e-07
-3.83898e-07
1.42518e-07
-1.78994e-07
6.84194e-08
1.90132e-07
-4.14472e-07
1.46398e-07
1.89793e-07
-4.04884e-07
1.87563e-07
1.87258e-07
-2.77906e-07
2.21423e-07
1.86766e-07
-2.5767e-07
1.82772e-07
-5.66359e-08
6.81781e-08
2.24394e-07
-3.93434e-07
1.45989e-07
2.24033e-07
-3.83996e-07
1.87071e-07
2.21152e-07
-2.57683e-07
2.20896e-07
2.20623e-07
-2.37665e-07
2.16148e-07
-3.75893e-08
6.65258e-08
-1.88004e-07
1.42848e-07
-1.79173e-07
1.83076e-07
-5.67305e-08
2.16419e-07
-3.76709e-08
1.56474e-07
1.01161e-07
1.00722e-07
-7.86514e-07
2.12015e-07
1.00126e-07
-7.7101e-07
2.70165e-07
9.79477e-08
-5.86653e-07
3.18225e-07
9.73365e-08
-5.55172e-07
9.42827e-08
-2.647e-07
1.00566e-07
2.11595e-07
-7.71039e-07
2.11284e-07
2.10862e-07
-7.55773e-07
2.69394e-07
2.07182e-07
-5.72141e-07
3.17477e-07
2.06298e-07
-5.40938e-07
2.0093e-07
-2.515e-07
9.83858e-08
2.69779e-07
-5.86781e-07
2.07602e-07
2.69007e-07
-5.72242e-07
2.6492e-07
2.64533e-07
-3.9257e-07
3.12554e-07
2.63538e-07
-3.62536e-07
2.56813e-07
-7.91862e-08
9.77749e-08
3.17875e-07
-5.55316e-07
2.0672e-07
3.17125e-07
-5.41055e-07
2.63926e-07
3.12202e-07
-3.62552e-07
3.11547e-07
3.11194e-07
-3.32934e-07
3.03794e-07
-5.12905e-08
9.47176e-08
-2.64939e-07
2.01349e-07
-2.51713e-07
2.572e-07
-7.92997e-08
3.04146e-07
-5.1389e-08
2.20892e-07
1.50608e-07
1.50148e-07
-1.12285e-06
3.09814e-07
1.49512e-07
-1.09798e-06
3.93006e-07
1.46465e-07
-8.34697e-07
4.59514e-07
1.45661e-07
-7.859e-07
1.411e-07
-3.71316e-07
1.49973e-07
3.09378e-07
-1.09801e-06
3.08861e-07
3.08422e-07
-1.07356e-06
3.91907e-07
3.02858e-07
-8.11576e-07
4.58401e-07
3.01545e-07
-7.63311e-07
2.93215e-07
-3.50538e-07
1.46924e-07
3.92604e-07
-8.34846e-07
3.03296e-07
3.91503e-07
-8.1169e-07
3.85037e-07
3.84633e-07
-5.5608e-07
4.50811e-07
3.83063e-07
-5.09822e-07
3.72569e-07
-1.06709e-07
1.4612e-07
4.59151e-07
-7.8607e-07
3.01984e-07
4.58037e-07
-7.63447e-07
3.83467e-07
4.50446e-07
-5.09842e-07
4.49182e-07
4.48816e-07
-4.64395e-07
4.37265e-07
-6.42273e-08
1.41555e-07
-3.71592e-07
2.9365e-07
-3.50781e-07
3.72971e-07
-1.06838e-07
4.37631e-07
-6.43376e-08
3.21038e-07
2.0885e-07
2.08291e-07
-1.58144e-06
4.25243e-07
2.0704e-07
-1.54301e-06
5.38881e-07
2.01826e-07
-1.17258e-06
6.28416e-07
2.00248e-07
-1.0985e-06
1.92587e-07
-5.16176e-07
2.07602e-07
4.24713e-07
-1.54306e-06
4.23466e-07
4.22932e-07
-1.50531e-06
5.3689e-07
4.13837e-07
-1.13701e-06
6.26379e-07
4.11316e-07
-1.06386e-06
3.97744e-07
-4.84796e-07
2.02383e-07
5.38395e-07
-1.17276e-06
4.14368e-07
5.36401e-07
-1.13714e-06
5.25633e-07
5.25144e-07
-7.78647e-07
6.14071e-07
5.22207e-07
-7.09146e-07
5.0507e-07
-1.4527e-07
2.00806e-07
6.27978e-07
-1.0987e-06
4.11849e-07
6.25937e-07
-1.06402e-06
5.22698e-07
6.13628e-07
-7.0917e-07
6.11029e-07
6.10584e-07
-6.41098e-07
5.91994e-07
-8.26664e-08
1.93137e-07
-5.16496e-07
3.98271e-07
-4.85077e-07
5.05557e-07
-1.4542e-07
5.92438e-07
-8.27939e-08
4.52354e-07
3.20187e-07
3.19578e-07
-2.26875e-06
6.4029e-07
3.17541e-07
-2.20526e-06
8.07018e-07
3.09091e-07
-1.67357e-06
9.32672e-07
3.06504e-07
-1.55619e-06
2.94333e-07
-7.22195e-07
3.18155e-07
6.39716e-07
-2.20532e-06
6.37207e-07
6.36627e-07
-2.14343e-06
8.03497e-07
6.21765e-07
-1.61596e-06
9.29201e-07
6.17507e-07
-1.50057e-06
5.95724e-07
-6.72427e-07
3.09698e-07
8.06491e-07
-1.67377e-06
6.2234e-07
8.02964e-07
-1.61611e-06
7.85321e-07
7.8479e-07
-1.10465e-06
9.09612e-07
7.79676e-07
-9.95604e-07
7.52311e-07
-1.91552e-07
3.07112e-07
9.32199e-07
-1.55643e-06
6.18085e-07
9.28721e-07
-1.50075e-06
7.80209e-07
9.09132e-07
-9.95634e-07
9.04408e-07
9.03925e-07
-8.89545e-07
8.7442e-07
-9.50553e-08
2.94933e-07
-7.22558e-07
5.96296e-07
-6.72743e-07
7.52841e-07
-1.91721e-07
8.74901e-07
-9.51966e-08
6.62585e-07
4.36524e-07
4.35793e-07
-3.19869e-06
8.67697e-07
4.32506e-07
-3.09909e-06
1.09428e-06
4.19225e-07
-2.35098e-06
1.25965e-06
4.14245e-07
-2.16805e-06
3.94228e-07
-9.96594e-07
4.33243e-07
8.67014e-07
-3.09916e-06
8.62478e-07
8.61788e-07
-3.00192e-06
1.0881e-06
8.38095e-07
-2.26045e-06
1.25331e-06
8.29783e-07
-2.08132e-06
7.94401e-07
-9.20536e-07
4.19951e-07
1.09365e-06
-2.35121e-06
8.38781e-07
1.08747e-06
-2.26061e-06
1.05868e-06
1.05805e-06
-1.5445e-06
1.22192e-06
1.04833e-06
-1.3774e-06
1.0037e-06
-2.54874e-07
4.14973e-07
1.25909e-06
-2.16831e-06
8.30472e-07
1.25275e-06
-2.08153e-06
1.04897e-06
1.22135e-06
-1.37743e-06
1.21195e-06
1.21137e-06
-1.21557e-06
1.16412e-06
-1.10831e-07
3.9494e-07
-9.97005e-07
7.9508e-07
-9.20892e-07
1.00433e-06
-2.55064e-07
1.16469e-06
-1.10989e-07
9.35668e-07
6.81563e-07
6.80751e-07
-4.62532e-06
1.32748e-06
6.7349e-07
-4.45207e-06
1.66418e-06
6.50255e-07
-3.37269e-06
1.8966e-06
6.42001e-07
-3.07788e-06
6.09499e-07
-1.39224e-06
6.74312e-07
1.32673e-06
-4.45216e-06
1.31695e-06
1.31619e-06
-4.28724e-06
1.6526e-06
1.2771e-06
-3.22293e-06
1.88517e-06
1.26345e-06
-2.93534e-06
1.20647e-06
-1.26973e-06
6.51062e-07
1.66349e-06
-3.37295e-06
1.27786e-06
1.6519e-06
-3.22312e-06
1.60521e-06
1.60451e-06
-2.19926e-06
1.83496e-06
1.58786e-06
-1.93157e-06
1.51638e-06
-3.26853e-07
6.42812e-07
1.89599e-06
-3.07819e-06
1.26421e-06
1.88455e-06
-2.93557e-06
1.58856e-06
1.83434e-06
-1.93161e-06
1.81781e-06
1.81718e-06
-1.67415e-06
1.74218e-06
-1.01536e-07
6.10291e-07
-1.3927e-06
1.20721e-06
-1.27012e-06
1.51707e-06
-3.27064e-07
1.7428e-06
-1.01708e-07
1.37999e-06
9.25312e-07
9.24349e-07
-6.55512e-06
1.80107e-06
9.16246e-07
-6.28627e-06
2.26122e-06
8.80761e-07
-4.75835e-06
2.55216e-06
8.6315e-07
-4.27768e-06
8.09628e-07
-1.90869e-06
9.17221e-07
1.80019e-06
-6.28638e-06
1.78483e-06
1.78393e-06
-6.02253e-06
2.23963e-06
1.71742e-06
-4.51439e-06
2.53137e-06
1.68846e-06
-4.05237e-06
1.59437e-06
-1.71783e-06
8.81714e-07
2.26042e-06
-4.75865e-06
1.71831e-06
2.23882e-06
-4.51459e-06
2.15858e-06
2.15777e-06
-3.07986e-06
2.44962e-06
2.12442e-06
-2.65857e-06
2.00595e-06
-4.19753e-07
8.64108e-07
2.55146e-06
-4.27804e-06
1.68935e-06
2.53065e-06
-4.05264e-06
2.12524e-06
2.4489e-06
-2.65863e-06
2.41636e-06
2.41563e-06
-2.25648e-06
2.29385e-06
-7.61029e-08
8.10552e-07
-1.9092e-06
1.59525e-06
-1.71826e-06
2.00675e-06
-4.19985e-07
2.29458e-06
-7.62874e-08
1.95875e-06
1.45482e-06
1.45373e-06
-9.55066e-06
2.75552e-06
1.42764e-06
-9.06032e-06
3.46616e-06
1.37048e-06
-6.88711e-06
3.89105e-06
1.35105e-06
-6.10239e-06
1.26206e-06
-2.65129e-06
1.42875e-06
2.75454e-06
-9.06046e-06
2.72506e-06
2.72405e-06
-8.61523e-06
3.4306e-06
2.63516e-06
-6.48459e-06
3.85156e-06
2.59987e-06
-5.72213e-06
2.44741e-06
-2.34254e-06
1.37156e-06
3.46526e-06
-6.88744e-06
2.63614e-06
3.42969e-06
-6.4848e-06
3.31237e-06
3.31147e-06
-4.4324e-06
3.72261e-06
3.2593e-06
-3.72823e-06
3.07041e-06
-5.10027e-07
1.35214e-06
3.89027e-06
-6.1028e-06
2.60087e-06
3.85076e-06
-5.72242e-06
3.26021e-06
3.72181e-06
-3.7283e-06
3.66506e-06
3.66425e-06
-3.06626e-06
3.47332e-06
4.32572e-08
1.26311e-06
-2.65186e-06
2.44838e-06
-2.34301e-06
3.07131e-06
-5.10282e-07
3.47412e-06
4.30638e-08
2.92692e-06
2.17837e-06
2.17704e-06
-1.40178e-05
4.0063e-06
2.10079e-06
-1.3048e-05
4.891e-06
1.94549e-06
-9.7802e-06
5.31743e-06
1.85815e-06
-8.45077e-06
1.71405e-06
-3.55033e-06
2.10214e-06
4.00513e-06
-1.30482e-05
3.91075e-06
3.90956e-06
-1.22326e-05
4.79864e-06
3.65473e-06
-9.08171e-06
5.23532e-06
3.53711e-06
-7.83775e-06
3.28372e-06
-3.06144e-06
1.94678e-06
4.88998e-06
-9.78057e-06
3.65589e-06
4.79759e-06
-9.08193e-06
4.54404e-06
4.54299e-06
-6.2088e-06
4.99974e-06
4.41832e-06
-5.06513e-06
4.09387e-06
-5.46191e-07
1.85943e-06
5.31656e-06
-8.45124e-06
3.53827e-06
5.23442e-06
-7.83808e-06
4.41937e-06
4.99883e-06
-5.06522e-06
4.88253e-06
4.8816e-06
-3.99269e-06
4.56092e-06
3.2292e-07
1.71526e-06
-3.55096e-06
3.28485e-06
-3.06194e-06
4.0949e-06
-5.46466e-07
4.56184e-06
3.22725e-07
4.27207e-06
4.29241e-06
4.29052e-06
-2.2752e-05
7.16956e-06
3.84319e-06
-1.98437e-05
8.37606e-06
3.42973e-06
-1.44831e-05
8.51936e-06
3.20691e-06
-1.18655e-05
2.91052e-06
-4.75524e-06
3.8451e-06
7.16816e-06
-1.98442e-05
6.79233e-06
6.79082e-06
-1.81275e-05
8.02734e-06
6.19571e-06
-1.30827e-05
8.30188e-06
5.85396e-06
-1.07593e-05
5.39235e-06
-3.88038e-06
3.43138e-06
8.37488e-06
-1.44836e-05
6.19711e-06
8.02611e-06
-1.30829e-05
7.41338e-06
7.41214e-06
-8.6415e-06
7.82911e-06
7.11528e-06
-6.74217e-06
6.53998e-06
-2.41572e-07
3.20845e-06
8.51839e-06
-1.18661e-05
5.85533e-06
8.30086e-06
-1.07597e-05
7.11648e-06
7.82809e-06
-6.74231e-06
7.60253e-06
7.60149e-06
-4.96495e-06
7.08664e-06
1.1599e-06
2.91197e-06
-4.75596e-06
5.39366e-06
-3.88092e-06
6.54117e-06
-2.41876e-07
7.08768e-06
1.15971e-06
6.75509e-06
6.45951e-06
6.4574e-06
-3.58295e-05
1.21056e-05
6.40177e-06
-3.19797e-05
1.35577e-05
5.63845e-06
-2.16748e-05
1.24574e-05
4.76271e-06
-1.56176e-05
4.23233e-06
-5.57257e-06
6.40394e-06
1.21037e-05
-3.19802e-05
1.15492e-05
1.15473e-05
-2.84183e-05
1.25509e-05
9.57693e-06
-1.80229e-05
1.17916e-05
8.5449e-06
-1.37823e-05
7.58095e-06
-4.23057e-06
5.64057e-06
1.35564e-05
-2.16756e-05
9.57871e-06
1.25495e-05
-1.80232e-05
1.09446e-05
1.09432e-05
-1.13737e-05
1.07801e-05
1.00991e-05
-8.13183e-06
8.9283e-06
7.89418e-07
4.76457e-06
1.24565e-05
-1.56183e-05
8.54649e-06
1.17905e-05
-1.37827e-05
1.01004e-05
1.0779e-05
-8.13201e-06
1.02698e-05
1.02686e-05
-5.30384e-06
9.29153e-06
2.96483e-06
4.23405e-06
-5.57327e-06
7.58245e-06
-4.23103e-06
8.92965e-06
7.89148e-07
9.29266e-06
2.9647e-06
1.03866e-05
8.7357e-06
8.73373e-06
-5.34227e-05
1.53876e-05
8.49608e-06
-4.71954e-05
1.94895e-05
8.23589e-06
-3.40888e-05
2.03092e-05
7.86685e-06
-2.4386e-05
6.7354e-06
-5.75632e-06
8.49816e-06
1.53859e-05
-4.7196e-05
1.51096e-05
1.51078e-05
-4.16415e-05
1.90706e-05
1.52872e-05
-2.90352e-05
1.89972e-05
1.39747e-05
-1.98167e-05
1.1915e-05
-3.73096e-06
8.23798e-06
1.94878e-05
-3.40896e-05
1.5289e-05
1.90689e-05
-2.90354e-05
1.73955e-05
1.7394e-05
-1.5587e-05
1.68292e-05
1.57914e-05
-9.38225e-06
1.37055e-05
3.09841e-06
7.8691e-06
2.03081e-05
-2.43872e-05
1.39766e-05
1.89961e-05
-1.98173e-05
1.57929e-05
1.68281e-05
-9.38241e-06
1.56459e-05
1.56446e-05
-5.01006e-06
1.40513e-05
6.06712e-06
6.73728e-06
-5.75706e-06
1.19166e-05
-3.73125e-06
1.3707e-05
3.09821e-06
1.40525e-05
6.06706e-06
1.57964e-05
1.12745e-05
1.12724e-05
-7.61155e-05
1.91649e-05
1.06485e-05
-6.58143e-05
2.39704e-05
9.83254e-06
-4.88192e-05
2.49597e-05
9.19123e-06
-3.46621e-05
7.91791e-06
-7.06087e-06
1.06506e-05
1.91632e-05
-6.58152e-05
1.82606e-05
1.82589e-05
-5.6862e-05
2.29568e-05
1.71601e-05
-4.1059e-05
2.38408e-05
1.66491e-05
-2.81585e-05
1.40267e-05
-3.57855e-06
9.83444e-06
2.39689e-05
-4.88199e-05
1.71617e-05
2.29553e-05
-4.1059e-05
2.19622e-05
2.19608e-05
-2.51881e-05
2.18318e-05
1.99524e-05
-1.25552e-05
1.66759e-05
5.69975e-06
9.19316e-06
2.49586e-05
-3.46634e-05
1.66505e-05
2.38397e-05
-2.81591e-05
1.99539e-05
2.18307e-05
-1.25557e-05
1.97132e-05
1.97119e-05
-4.52876e-06
1.65659e-05
1.0239e-05
7.91964e-06
-7.0617e-06
1.40282e-05
-3.57876e-06
1.66773e-05
5.69961e-06
1.65671e-05
1.0239e-05
2.07022e-05
1.74726e-05
1.74701e-05
-0.000111188
2.91468e-05
1.62477e-05
-9.38071e-05
3.5604e-05
1.49292e-05
-7.02872e-05
3.5543e-05
1.34404e-05
-4.81258e-05
1.22438e-05
-1.12617e-05
1.62503e-05
2.91448e-05
-9.38081e-05
2.733e-05
2.7328e-05
-7.9022e-05
3.3664e-05
2.53512e-05
-5.78149e-05
3.40983e-05
2.30918e-05
-3.82442e-05
2.02753e-05
-3.80826e-06
1.49316e-05
3.56022e-05
-7.0288e-05
2.53531e-05
3.36622e-05
-5.78147e-05
3.12971e-05
3.12954e-05
-3.70762e-05
3.21498e-05
2.8893e-05
-1.92092e-05
2.43721e-05
8.65252e-06
1.34429e-05
3.55415e-05
-4.81274e-05
2.30938e-05
3.4097e-05
-3.82447e-05
2.88947e-05
3.21486e-05
-1.92099e-05
2.8569e-05
2.85676e-05
-3.87755e-06
2.57643e-05
1.42524e-05
1.22462e-05
-1.12633e-05
2.02773e-05
-3.80827e-06
2.43737e-05
8.65273e-06
2.57657e-05
1.42524e-05
2.89556e-05
2.85052e-05
2.85027e-05
-0.00016833
4.44701e-05
2.53526e-05
-0.000135203
5.18382e-05
2.24058e-05
-0.000100162
4.8065e-05
1.91855e-05
-6.36471e-05
1.63986e-05
-1.6509e-05
2.53554e-05
4.44682e-05
-0.000135205
4.00883e-05
4.00862e-05
-0.000108488
4.75122e-05
3.61518e-05
-7.89848e-05
4.50253e-05
3.14964e-05
-4.80683e-05
2.67968e-05
-3.78821e-06
2.24083e-05
5.18367e-05
-0.000100163
3.61536e-05
4.75104e-05
-7.89842e-05
4.32038e-05
4.32022e-05
-5.11768e-05
4.16721e-05
3.84575e-05
-2.46384e-05
3.29408e-05
1.15442e-05
1.91881e-05
4.80641e-05
-6.36489e-05
3.14984e-05
4.50243e-05
-4.80688e-05
3.84592e-05
4.16709e-05
-2.46393e-05
3.73436e-05
3.73423e-05
-1.64672e-06
3.35948e-05
2.11922e-05
1.64006e-05
-1.65104e-05
2.67984e-05
-3.78799e-06
3.29424e-05
1.15441e-05
3.3596e-05
2.11925e-05
4.16235e-05
5.00005e-05
4.99972e-05
-0.000268483
7.41756e-05
4.25622e-05
-0.000202028
8.38995e-05
3.67581e-05
-0.000146738
7.58235e-05
3.00722e-05
-8.57386e-05
2.44786e-05
-2.13654e-05
4.25661e-05
7.41737e-05
-0.00020203
6.51814e-05
6.51789e-05
-0.00015372
7.52464e-05
5.78869e-05
-0.000110179
6.95074e-05
4.88235e-05
-6.10806e-05
4.0595e-05
-2.52629e-06
3.67611e-05
8.38978e-05
-0.000146739
5.78891e-05
7.52444e-05
-0.000110178
6.76814e-05
6.76794e-05
-7.07616e-05
6.37542e-05
5.82747e-05
-3.01624e-05
4.94047e-05
1.76347e-05
3.00754e-05
7.58223e-05
-8.57412e-05
4.88259e-05
6.95063e-05
-6.10812e-05
5.82769e-05
6.37529e-05
-3.01637e-05
5.61563e-05
5.61549e-05
2.59363e-06
4.9792e-05
3.31624e-05
2.44814e-05
-2.13674e-05
4.0597e-05
-2.52565e-06
4.94066e-05
1.76344e-05
4.97933e-05
3.3163e-05
6.14401e-05
0.000102376
0.000102371
-0.000473357
0.000134604
7.87161e-05
-0.000313066
0.000138518
6.36715e-05
-0.000214434
0.000112466
4.67194e-05
-0.000106523
3.55452e-05
-2.21536e-05
7.87215e-05
0.000134602
-0.000313071
0.000108163
0.00010816
-0.000212605
0.00011616
9.19257e-05
-0.00014643
9.78745e-05
7.12505e-05
-6.73266e-05
5.84234e-05
3.3171e-06
6.36755e-05
0.000138517
-0.000214437
9.1928e-05
0.000116157
-0.000146428
0.000101203
0.000101201
-8.93113e-05
8.90016e-05
8.21048e-05
-2.88157e-05
6.84112e-05
3.20935e-05
4.67233e-05
0.000112465
-0.000106526
7.12533e-05
9.78734e-05
-6.73272e-05
8.2107e-05
8.90006e-05
-2.88173e-05
7.56313e-05
7.563e-05
1.55442e-05
6.49144e-05
5.66793e-05
3.55482e-05
-2.21566e-05
5.84255e-05
3.31785e-06
6.8413e-05
3.2093e-05
6.49155e-05
5.66801e-05
9.18853e-05
0.000166495
0.000166492
-0.000806653
0.000219264
0.000129389
-0.000495403
0.000222143
0.000102633
-0.000320083
0.00017724
7.36901e-05
-0.000135427
5.3782e-05
-1.49067e-05
0.000129394
0.000219262
-0.000495411
0.000174719
0.000174716
-0.000303257
0.000183636
0.000145376
-0.00019809
0.000151405
0.000109456
-7.08608e-05
8.65156e-05
2.01978e-05
0.000102638
0.000222141
-0.000320085
0.000145379
0.000183634
-0.000198087
0.000157408
0.000157406
-0.000113371
0.00013483
0.000124119
-2.09001e-05
0.000100084
5.98302e-05
7.36952e-05
0.00017724
-0.000135432
0.000109459
0.000151404
-7.08618e-05
0.000124122
0.000134829
-2.09028e-05
0.000110546
0.000110545
4.26941e-05
9.27044e-05
9.57117e-05
5.37857e-05
-1.49112e-05
8.65175e-05
2.01992e-05
0.000100086
5.98292e-05
9.27055e-05
9.57126e-05
0.000137865
0.000424772
0.000424762
-0.00165606
0.000463847
0.000268942
-0.000803609
0.000402917
0.000197291
-0.000456551
0.000286322
0.000122618
-0.0001416
8.54131e-05
1.94528e-05
0.000268954
0.000463846
-0.00080363
0.000314043
0.000314037
-0.000393442
0.000299069
0.000247684
-0.000233509
0.000226069
0.000164837
-4.00797e-05
0.000122814
7.35646e-05
0.0001973
0.000402918
-0.000456556
0.000247687
0.000299064
-0.000233502
0.000247313
0.00024731
-0.000112623
0.000196505
0.00017823
1.65143e-05
0.000134528
0.000120368
0.000122626
0.000286322
-0.000141606
0.000164841
0.000226068
-4.00802e-05
0.000178234
0.000196505
1.65091e-05
0.000146426
0.000146425
0.000106307
0.000118252
0.000162012
8.54195e-05
1.94437e-05
0.000122817
7.3567e-05
0.000134531
0.000120367
0.000118253
0.000162014
0.000205211
0.000670757
0.000670757
-0.00299865
0.000748851
0.000446022
-0.00132835
0.000618814
0.000302913
-0.000629558
0.000421941
0.00018103
-0.000125895
0.000115342
8.85866e-05
0.000446025
0.000748854
-0.00132837
0.000502318
0.000502316
-0.000506029
0.000446867
0.000372799
-0.000247943
0.000321628
0.000239772
2.64167e-05
0.000166415
0.000156027
0.000302915
0.000618811
-0.000629556
0.000372799
0.000446863
-0.000247932
0.000355678
0.000355677
-7.83792e-05
0.000267812
0.000241659
0.000102494
0.000178028
0.000208612
0.000181036
0.000421941
-0.000125904
0.000239775
0.000321629
2.64154e-05
0.000241661
0.000267812
0.000102488
0.000194732
0.000194732
0.000200164
0.000155153
0.000251144
0.000115344
8.85766e-05
0.000166416
0.000156029
0.000178029
0.000208609
0.000155153
0.000251146
0.000293257
0.00212994
0.00212991
-0.00232935
-0.00175395
-0.0017538
-0.00142117
0.00185389
0.000979819
-0.0020349
0.0011604
0.000590896
-0.000527337
0.000688627
0.00030073
4.4767e-05
0.000168126
0.0002742
0.000979852
0.0018539
-0.00203498
0.000930752
0.000930732
-0.000407843
0.000707936
0.000637943
-7.21744e-05
0.000458567
0.000340694
0.000235821
0.000218783
0.000328771
0.000590918
0.00116042
-0.000527364
0.000637949
0.000707927
-7.21579e-05
0.000536933
0.000536932
0.000123647
0.000368592
0.000319715
0.000291814
0.000222437
0.00036395
0.00030074
0.000688626
4.47763e-05
0.0003407
0.000458561
0.000235822
0.00031972
0.00036859
0.00029181
0.000238284
0.000238282
0.000363033
0.000181053
0.000387309
0.000168139
0.000274183
0.000218789
0.000328772
0.000222441
0.000363945
0.000181055
0.000387309
0.000409215
0.000676488
0.000676526
-0.00368686
0.00342949
0.00183086
-0.00102546
-0.000347716
-0.000615908
-0.000226227
-0.000819412
-0.000814294
-0.00200931
-0.0014385
0.00174833
0.000854276
0.000301015
0.000911109
0.000378313
0.000503788
0.000203038
0.000543428
0.00183079
0.0034294
-0.00102527
-0.000615961
-0.000347607
-0.000226216
-0.000819405
-0.000814306
-0.00200932
-0.00143867
0.00148596
0.00148596
0.000281874
0.000938339
0.000858198
0.000471528
0.000567582
0.000418716
0.000566173
0.000257216
0.000552423
0.000854253
0.00174831
0.000300942
0.000858181
0.000938329
0.00047155
0.000656361
0.000656363
0.000527303
0.000440748
0.000374096
0.000552048
0.000251786
0.000555057
0.00037832
0.000911098
0.000503791
0.00041872
0.00056758
0.000566171
0.000374101
0.000440749
0.000552043
0.000276314
0.000276314
0.000558602
0.000208012
0.000538344
0.000203039
0.000543396
0.000257215
0.000552417
0.000251786
0.000555048
0.000208012
0.000538342
0.000530486
0.00234547
0.000601858
0.000601821
-0.00355048
-0.00100885
0.00257469
0.00101454
-0.00097197
-0.0013589
-0.00126709
-0.000110883
-5.4478e-05
7.01295e-05
8.39869e-05
0.00230424
0.00116997
0.00219495
-0.0014757
-0.00124289
-0.00147501
-0.00117752
0.00113409
0.000449974
0.00122113
0.000227261
0.000958945
-0.0010088
0.00101461
0.00257459
-0.00097186
-0.00135901
-0.0012668
-0.000110995
-5.44547e-05
7.00469e-05
8.396e-05
0.00212719
0.0021271
0.000760167
-0.00103847
-0.000664687
-0.00124151
-0.000548975
-0.00103855
-0.000664695
-0.00124105
-0.000548864
0.000750916
0.00075091
0.00075239
0.00114384
0.00109337
0.00153148
0.000649132
0.000471208
0.00103964
0.000265277
0.000860195
0.00117004
0.00230418
0.00219491
-0.00147576
-0.00124292
-0.00147495
-0.00117755
0.0010934
0.00114381
0.00153148
0.000757747
0.000757752
0.00119858
0.000475163
0.000388645
0.000917195
0.000246771
0.000794015
0.00044997
0.00113408
0.0012211
0.000471204
0.000649109
0.00103964
0.000388653
0.000475153
0.000917193
0.000271052
0.000271046
0.000793802
0.000192289
0.00070993
0.000227288
0.000958932
0.000265292
0.000860181
0.000246782
0.000794005
0.000192297
0.000709926
0.000656037
0.00430371
2.81381e-05
2.80878e-05
-0.00436165
-0.00059004
9.38407e-05
0.000115819
-0.000519448
0.000895322
0.00125973
0.000652804
0.00268294
-0.00118363
-0.000858207
-0.000235183
-0.000109685
0.000717427
0.000291517
0.00147504
0.000148428
0.00118641
-0.000590041
9.36791e-05
0.000115654
-0.000519277
0.000895364
-0.000152001
-0.00015202
0.00034226
0.000342209
0.00115489
-0.000116763
-0.000134758
-0.000136026
-0.00011679
-0.000134782
-0.000136056
0.00064602
0.00067256
0.00185673
-0.000254265
-0.000236127
-0.000227338
-0.000273292
0.00043309
0.000306025
0.00123807
0.000198811
0.00103119
0.000652861
0.00125974
0.00268292
-0.00118367
-0.000858201
-0.000235208
-0.000109716
0.00067256
0.000645989
0.0018567
-0.000254239
-0.000236098
-0.000227308
-0.000273264
0.00050761
0.000507619
0.00152847
0.000341189
0.000272768
0.00111687
0.000189733
0.00093056
0.000291539
0.000717428
0.00147503
0.000306023
0.000433078
0.00123806
0.000272775
0.000341184
0.00111687
0.000203304
0.000203299
0.000932743
0.000162101
0.000815824
0.000148452
0.00118638
0.000198821
0.00103118
0.000189738
0.000930549
0.000162105
0.000815816
0.000723015
0.00446109
-1.60649e-05
-1.60923e-05
-0.00442168
0.000620223
-0.00120365
-0.000637017
-0.00161163
0.000614158
0.000628854
0.000603425
0.000722948
-1.21745e-05
0.000388875
-0.000115617
-0.00013501
-0.000208906
0.00147928
0.000299385
0.000353474
0.000500755
0.00039093
1.49684e-06
6.03294e-05
0.00127661
-4.20092e-06
0.00103542
0.000620225
-0.000637033
-0.00120355
-0.00161157
0.000614165
0.000628855
0.000603424
0.000722914
0.000388763
-1.21709e-05
-0.000115662
-0.000433453
-0.00043351
0.00114636
0.000594477
0.000149641
0.000636237
7.68448e-05
0.00059443
0.0001496
0.000636212
7.68332e-05
-0.000770374
-0.00079778
-0.000797778
-0.000827743
-5.11767e-06
-0.000141835
0.00136132
4.77694e-05
7.26797e-05
0.00117283
2.38732e-05
0.00096455
-0.000208801
-0.000135008
0.00147924
0.000299363
0.000353458
0.000500737
0.000390917
-0.000141776
-5.1512e-06
0.00136132
9.83041e-06
9.81386e-06
0.00122522
6.80056e-05
6.92365e-05
0.00106214
4.65388e-05
0.000892168
6.03503e-05
1.48204e-06
0.00127664
7.2691e-05
4.77451e-05
0.00117283
6.92493e-05
6.79834e-05
0.00106215
6.61852e-05
6.61721e-05
0.000938872
5.95485e-05
0.000814288
-4.15944e-06
0.0010354
2.39053e-05
0.000964536
4.65612e-05
0.00089216
5.95658e-05
0.000814279
0.000723936
0.00342889
4.49205e-05
4.49505e-05
-0.00352968
0.00168604
5.23145e-05
-0.000309128
-9.59032e-05
-0.00133964
0.00010322
-0.00018024
0.00133897
0.000309647
0.000287756
-0.000343091
-3.68602e-05
-1.3183e-07
4.45804e-05
0.00133388
-4.36763e-05
0.000946822
0.00168602
5.26083e-05
-9.59613e-05
-0.000309307
-0.0013397
-6.62228e-05
-6.6359e-05
0.000408381
0.00043195
0.000431955
0.000338524
9.89586e-05
-6.54198e-05
-0.000376178
0.000176705
9.8974e-05
-6.5395e-05
-0.000376227
0.000176718
-3.59298e-05
-0.000142359
0.00129315
-2.30538e-05
2.3488e-05
0.00118104
-3.59097e-05
0.000898037
-0.000180128
0.000103154
0.00133895
0.000309684
0.000287744
-0.000343125
-3.68935e-05
-0.000142304
-3.59749e-05
0.00129311
-9.08004e-05
-9.08091e-05
0.00112216
-3.75953e-06
-8.40334e-06
0.00100699
-2.04114e-05
0.000823707
4.4595e-05
-1.44158e-07
0.00133388
2.34952e-05
-2.30914e-05
0.00118104
-8.37916e-06
-3.7805e-06
0.00100699
4.82379e-06
4.81202e-06
0.000912453
1.64685e-05
0.000765417
-4.36322e-05
0.000946808
-3.58829e-05
0.000898013
-2.03915e-05
0.000823696
1.6484e-05
0.000765408
0.000672028
0.0043083
-9.04403e-06
-9.05472e-06
-0.00429231
-0.00101019
0.000163545
0.000717994
0.000181982
-5.10779e-05
-0.000105703
2.66249e-05
0.00218653
-0.000573245
-0.000331579
1.95679e-05
0.000115318
-0.000103482
-7.15669e-05
0.00140185
-3.09941e-05
0.000998932
-0.00101017
0.000163539
0.000181947
0.000717943
-5.10352e-05
-0.000221319
-0.000221302
0.000409887
0.000409877
0.00100929
-0.000173972
-0.000171933
-0.000143153
-0.00017395
-0.000171915
-0.000143129
-0.000200695
-1.23103e-05
0.00169049
-0.000258144
-7.57106e-05
3.43809e-05
0.00014176
-0.000142587
-0.000118866
0.00117024
-3.70997e-05
0.000903546
2.67659e-05
-0.000105795
0.00218656
-0.000573181
-0.000331668
1.95337e-05
0.000115317
-1.22235e-05
-0.000200752
0.00169047
-0.00025812
-7.57025e-05
3.44138e-05
0.000141787
-8.87622e-05
-8.87863e-05
0.00127518
-9.59054e-05
-0.000119828
0.0010151
-5.1344e-05
0.00079309
-7.15558e-05
-0.000103513
0.00140184
-0.000118872
-0.000142624
0.00117023
-0.000119824
-9.59393e-05
0.0010151
-9.20647e-05
-9.208e-05
0.000856946
-3.24723e-05
0.000718609
-3.09414e-05
0.00099894
-3.70549e-05
0.000903531
-5.13105e-05
0.000793088
-3.24425e-05
0.000718603
0.000615992
0.00435899
8.97364e-06
8.95676e-06
-0.00437787
0.00038826
0.000463076
-0.000269949
-8.30259e-05
-0.00049871
-0.00156043
-0.000689674
0.00148656
0.000472528
0.000535602
0.00104395
0.000895448
-0.000775131
-0.000290934
0.000905701
-0.000163688
0.000758205
0.000388267
0.000463057
-8.30246e-05
-0.000269953
-0.000498691
-0.00167296
-0.00167302
0.0012951
0.000609687
0.000355004
0.0010657
0.000441214
0.000609694
0.000355007
0.00106569
0.000441196
-0.00107743
-0.000642727
-0.000642699
-0.00052945
-0.00098376
-0.000767059
0.00107867
-0.000545055
-0.000363399
0.000803995
-0.000194331
0.00069148
-0.000689619
-0.00156049
0.0014866
0.000472522
0.000535589
0.00104397
0.00089545
-0.000767015
-0.000983812
0.00107866
-0.000587907
-0.000587934
0.000916942
-0.00035239
-0.000328929
0.00074511
-0.000184435
0.000624368
-0.000290913
-0.000775159
0.000905679
-0.000363387
-0.000545087
0.00080398
-0.000328914
-0.000352418
0.000745109
-0.000228596
-0.000228617
0.000656316
-0.00012323
0.000575462