/*--------------------------------*- C++ -*----------------------------------*\
| =========                 |                                                 |
| \\      /  F ield         | OpenFOAM: The Open Source CFD Toolbox           |
|  \\    /   O peration     | Version:  5.x                                   |
|   \\  /    A nd           | Web:      www.OpenFOAM.org                      |
|    \\/     M anipulation  |                                                 |
\*---------------------------------------------------------------------------*/
FoamFile
{
    version     2.0;
    format      ascii;
    class       volScalarField;
    location    "0.069";
    object      interFace;
}
// * * * * * * * * * * * * * * * * * * * * * * * * * * * * * * * * * * * * * //

dimensions      [0 0 0 0 0 0 0];

internalField   nonuniform List<scalar> 
1553
(
0
0
0
0
0
0
0
0
0
0
0
0
0
0
0
0
0
0
0
0
0
0
0
0
0
0
0
0
0
0
0
0
0
0
0
0
0
0
0
0
0
0
0
0
0
0
0
0
0
0
0
0
0
0
0
0
0
0
0
0
0
0
0
0
0
0
0
0
0
0
0
0
0
0
0
0
0
0
0
0
0
0
0
0
0
0
0
0
0
0
0
0
0
0
0
0
0
0
0
0
0
0
0
0
0
0
0
0
0
0
0
0
0
0
0
0
0
0
0
0
0
0
0
0
0
0
0
0
0
0
0
0
0
0
0
0
0
0
0
0
0
0
0
0
0
0
0
0
0
0
0
0
0
0
0
0
0
0
0
0
0
0
0
0
0
0
0
0
0
0
0
0
0
0
0
0
0
0
0
0
0
0
0
0
0
0
0
0
0
0
0
0
0
0
0
0
0
0
0
0
0
0
0
0
0
0
0
0
0
0
0
0
0
0
0
0
0
0
0
0
0
0
0
0
0
0
0
0
0
0
0
0
0
0
0
0
0
0
0
0
0
0
0
0
0
0
0
0
0
0
0
0
0
0
0
0
0
0
0
0
0
0
0
0
0
0
0
0
0
0
0
0
0
0
0
0
0
0
0
0
0
0
0
0
0
0
0
0
0
0
0
0
0
0
0
0
0
0
0
0
0
0
0
0
0
0
0
0
0
0
0
0
0
0
0
0
0
0
0
0
0
0
0
0
0
0
0
0
0
0
0
0
0
0
0
0
0
0
0
0
0
0
0
0
0
0
0
0
0
0
0
0
0
0
0
0
0
0
0
0
0
0
0
0
0
0
0
0
0
0
0
0
0
0
0
0
0
0
0
0
0
0
0
0
0
0
0
0
0
0
0
0
0
0
0
0
0
0
0
0
0
0
0
0
0
0
0
0
0
0
0
0
0
0
0
0
0
0
0
0
0
0
0
0
0
0
0
0
0
0
0
0
0
0
0
0
0
0
0
0
0
0
0
0
0
0
0
0
0
0
0
0
0
0
0
0
0
0
0
0
0
0
0
0
0
0
0
0
0
0
0
0
0
0
0
0
0
0
0
0
0
0
0
0
0
0
0
0
0
0
0
0
0
0
0
0
0
0
0
0
0
0
0
0
0
0
0
0
0
0
0
0
0
0
0
0
0
0
0
0
0
0
0
0
0
0
0
0
0
0
0
0
0
0
0
0
0
0
0
0
0
0
0
0
0
0
0
0
0
0
0
0
0
0
0
0
0
0
0
0
0
0
0
0
0
0
0
0
0
0
0
0
0
0
0
0
0
0
0
0
0
0
0
0
0
0
0
0
0
0
0
0
0
0
0
0
0
0
0
0
0
0
0
0
0
0
0
0
0
0
0
0
0
0
0
0
0
0
0
0
0
0
0
0
0
0
0
0
0
0
0
0
0
0
0
0
0
0
0
0
0
0
0
0
0
0
0
0
0
0
0
0
0
0
0
0
0
0
0
0
0
0
0
0
0
0
0
0
0
0
0
0
0
0
0
0
0
0
0
0.548404
0
0
0
0
0.958578
0
0
0
0
0
0
0
0
0
0
0
0
0
0
0
0
0
0
0
0.286464
0
0
0
0
0.786279
0
0
0
0
0
0
0
0
0
0
0
0
0
0
0
0
0
0
0
0.741652
0
0
0
0
0
0
0
0
0
0
0
0
0
0
0
0
0
0
0
0
0
0
0
0
0.851679
0
0
0
0
0
0
0
0
0
0
0
0
0
0
0
0
0
0
0
0
0
0
0
0
0.304722
0
0
0
0
0.753135
0
0
0
0
0
0
0
0
0
0
0
0
0
0
0
0
0
0
0
0.474893
0
0
0
0
0
0
0
0
0
0
0
0
0
0
0
0
0
0
0
0
0
0
0
0
0
0
0
0
0
0
0
0
0
0
0
0
0
0
0
0
0
0
0
0
0
0
0
0
0
0
0
0
0
0
0
0
0
0
0
0
0
0
0
0
0
0
0
0
0
0
0
0
0
0
0
0
0
0
0
0
0
0
0
0
0
0
0
0
0
0
0
0
0
0
0
0
0
0
0
0
0
0
0
0
0
0
0
0
0
0
0
0
0
0
0
0
0
0
0
0
0
0
0
0
0
0
0
0
0
0
0
0
0
0
0
0
0
0
0
0
0
0
0
0
0
0
0
0
0
0
0
0
0
0
0
0
0
0
0
0
0
0
0
0
0
0
0
0
0
0
0
0
0
0
0
0
0
0
0
0
0
0
0
0
0
0
0
0
0
0
0
0
0
0
0
0.582909
0.867503
0.851988
0.374231
0.10546
0.643309
0.374539
0.0359515
0.573801
0.30503
0.36512
0.0963492
0.634199
0.365428
0.206123
0.743972
0.475202
0.889443
0.710263
0
0.889649
0.472905
0.972417
0.742017
0
0
0
0
0
0
0
0
0
0
0
0
0
0
0
0
0
0
0.849076
0
0
0
0
0
0
0.849487
0
0
0
0
0
0
0.0177168
0.555576
0.286829
0.560624
0.291877
0.829737
0.56099
0.788399
0.517667
0.517788
0.698753
0.56255
0.743515
0.743637
0.877981
0.607249
0.786535
0.9675
0.652133
0
0.833097
0.878103
0.607493
0.786779
0.967866
0.652254
0
0.833341
0.450359
0.250892
0.250995
0.360717
0.295765
0.405487
0.405589
0.539949
0.340483
0.519766
0.629487
0.385355
0.67436
0.495077
0.540052
0.340688
0.519971
0.629796
0.385458
0.674566
0.495282
0.336639
0.336761
0.381522
0.245315
0.15567
0.200432
0.200553
0.465687
0
0.7348
0
0.739847
0
0.968808
0.466175
0
0
0.969052
0.740335
0
0
0.629642
0.609459
0.609562
0.898566
0.475048
0.764053
0.764156
0.426221
0.605508
0.471105
0.334898
0.424417
0.4693
0.290014
0.426465
0.605751
0.471227
0.335019
0.424782
0.469544
0.290258
0.695212
0.695334
0.560809
0.424602
0.693529
0.559005
0.559126
0.121038
0.0313961
0.141119
0.141222
0.185991
0.0761657
0.0762685
0.483953
0
0.753032
0
0.544351
0
0.81343
0.484364
0
0
0.813533
0.544762
0
0
0.210628
0.300167
0.230709
0.409992
0.345039
0.275581
0.165756
0.210731
0.300475
0.230915
0.410198
0.345245
0.275684
0.165962
0.279657
0.817517
0.54877
0.284718
0.0159711
0.553831
0.285084
0.153928
0.0624786
0.0626005
0.064283
0.107362
0.109045
0.109167
0.243511
0.152061
0.331347
0.33303
0.196945
0.377914
0.198627
0.243633
0.152305
0.331591
0.333396
0.197066
0.378157
0.198871
0.784731
0.963891
0
0.60364
0.648524
0.872568
0.827684
0.785097
0.964501
0
0.604128
0.648889
0.873055
0.828294
0.300321
0.569245
0.499685
0.499788
0.434732
0.434835
0.365274
0.333215
0.421052
0.421174
0.602143
0.286649
0.467618
0.46774
0.100906
0.0807212
0.080824
0.0112636
0.125594
0.0560332
0.056136
0
0
0
0
0
0
0
0.190496
0.170311
0.349594
0.280034
0.215184
0.324906
0.145623
0.190599
0.170517
0.3498
0.280342
0.215287
0.325112
0.145829
0.479398
0.768403
0.589223
0.52427
0.813275
0.748322
0.70345
0.479809
0.589532
0.768917
0.524579
0.813686
0.748733
0.703964
0.0607329
0.0608548
0.105617
0.148691
0.059046
0.103808
0.10393
0.778926
0
0.958334
0
0.463942
0
0.733054
0.779413
0
0
0.782787
0.464429
0
0
0.510571
0.512253
0.557137
0.781181
0.689731
0.734615
0.736297
0.510937
0.512741
0.557503
0.781669
0.690341
0.735102
0.736907
0.150315
0.329602
0.195199
0.238274
0.327793
0.372677
0.19339
0.150559
0.329846
0.195321
0.238396
0.328159
0.37292
0.193634
0.280189
0.439287
0.43939
0.549113
0.304877
0.414599
0.414702
0.419306
0.419428
0.284903
0.327978
0.596906
0.462381
0.462503
0
0
0
0
0
0
0
0.748477
0.678916
0
0.613963
0.902968
0.838015
0.972529
0.74858
0.679122
0
0.614169
0.903277
0.838323
0.972734
0.309431
0.219789
0.15023
0.150332
0.195102
0.264559
0.264662
0.600275
0.781366
0.646841
0.870885
0.958844
0.824319
0
0
0
0
0
0.553462
0
0.907667
0
0
0
0.907872
0.553873
0
0
0.399021
0.48856
0.23982
0.419103
0.533432
0.284692
0.354149
0.399124
0.488868
0.240025
0.419309
0.533638
0.284795
0.354355
0.708005
0.528826
0.459265
0.752877
0.504138
0.728189
0.683317
0.529134
0.708519
0.459676
0.753289
0.504446
0.728601
0.683831
0
0
0
0.775552
0.457194
0.954961
0.775796
0.236587
0.324419
0.324541
0.146941
0.369303
0.191703
0.191825
0.326169
0.414002
0.593288
0.415688
0.458885
0.460572
0.281286
0.326291
0.414245
0.593532
0.416054
0.459007
0.460816
0.281529
0.508825
0.687985
0.732869
0.507016
0.5519
0.775944
0.73106
0.509191
0.688595
0.733357
0.507504
0.552266
0.776432
0.73167
0.488714
0.757638
0.508796
0.508899
0.623125
0.623228
0.374385
0.415873
0.682992
0.683114
0.684801
0.548589
0.550276
0.550398
0.618724
0.97729
0.728447
0.842879
0.594036
0.818191
0.952602
0.618519
0.977084
0.728344
0.84257
0.593831
0.817882
0.952396
0
0
0
0
0
0
0
0.468581
0.627678
0.627781
0.378939
0.672551
0.423708
0.423811
0.598529
0.957098
0.822573
0.776129
0.641604
0.865648
0
0.558171
0.717269
0.896552
0.647709
0.762141
0.692582
0.513298
0.558274
0.717474
0.896757
0.648018
0.762244
0.692787
0.513504
0.667791
0.777514
0.598334
0.712663
0.822386
0.936715
0.891843
0.668202
0.598643
0.778028
0.712972
0.822797
0.937126
0.892357
0.501956
0.502078
0.546839
0.769196
0.679551
0.724313
0.724435
)
;

boundaryField
{
    inlet
    {
        type            calculated;
        value           uniform 0;
    }
    wall
    {
        type            calculated;
        value           uniform 0;
    }
    outlet
    {
        type            calculated;
        value           uniform 0;
    }
    procBoundary2to0
    {
        type            processor;
        value           uniform 0;
    }
    procBoundary2to3
    {
        type            processor;
        value           uniform 0;
    }
}


// ************************************************************************* //
