/*--------------------------------*- C++ -*----------------------------------*\
| =========                 |                                                 |
| \\      /  F ield         | OpenFOAM: The Open Source CFD Toolbox           |
|  \\    /   O peration     | Version:  5.x                                   |
|   \\  /    A nd           | Web:      www.OpenFOAM.org                      |
|    \\/     M anipulation  |                                                 |
\*---------------------------------------------------------------------------*/
FoamFile
{
    version     2.0;
    format      ascii;
    class       volScalarField;
    location    "0.069";
    object      phiIB;
}
// * * * * * * * * * * * * * * * * * * * * * * * * * * * * * * * * * * * * * //

dimensions      [0 2 -1 0 0 0 0];

internalField   nonuniform List<scalar> 
1553
(
-0.000212915
-0.000212831
-0.000212821
-0.000212792
-0.000212793
-0.000212918
-0.000212833
-0.000212822
-0.000212793
-0.000212794
-0.000212936
-0.000212851
-0.00021284
-0.00021281
-0.000212811
-0.000212948
-0.000212863
-0.000212852
-0.000212822
-0.000212823
-0.000213011
-0.000212925
-0.000212914
-0.000212884
-0.000212885
-0.000429125
-0.000429103
-0.000429083
-0.000429068
-0.000429062
-0.000429126
-0.000429104
-0.000429085
-0.000429071
-0.000429065
-0.000429132
-0.000429111
-0.000429091
-0.000429077
-0.000429071
-0.000429146
-0.000429125
-0.000429105
-0.000429091
-0.000429085
-0.000429155
-0.000429134
-0.000429114
-0.0004291
-0.000429093
-0.000994097
-0.000993988
-0.000993944
-0.000993896
-0.000993885
-0.000994103
-0.000993995
-0.000993951
-0.000993902
-0.00099389
-0.000994134
-0.000994025
-0.00099398
-0.000993931
-0.000993918
-0.000994168
-0.000994059
-0.000994015
-0.000993965
-0.000993952
-0.000994249
-0.00099414
-0.000994095
-0.000994045
-0.000994031
-0.00129943
-0.00129933
-0.00129928
-0.00129923
-0.00129921
-0.00129944
-0.00129934
-0.00129929
-0.00129924
-0.00129922
-0.00129948
-0.00129938
-0.00129932
-0.00129927
-0.00129925
-0.00129952
-0.00129942
-0.00129936
-0.00129931
-0.00129929
-0.00129959
-0.00129949
-0.00129944
-0.00129939
-0.00129937
-0.00182027
-0.0018201
-0.00182002
-0.00181994
-0.00181991
-0.00182028
-0.00182011
-0.00182003
-0.00181995
-0.00181992
-0.00182034
-0.00182017
-0.00182009
-0.00182
-0.00181998
-0.00182041
-0.00182024
-0.00182015
-0.00182007
-0.00182005
-0.00182054
-0.00182037
-0.00182029
-0.00182021
-0.00182018
-0.0021682
-0.00216799
-0.00216788
-0.00216778
-0.00216775
-0.00216823
-0.00216801
-0.0021679
-0.0021678
-0.00216777
-0.0021683
-0.00216809
-0.00216798
-0.00216787
-0.00216784
-0.00216839
-0.00216818
-0.00216807
-0.00216797
-0.00216793
-0.00216857
-0.00216836
-0.00216825
-0.00216814
-0.00216811
-0.00265392
-0.00265361
-0.00265345
-0.0026533
-0.00265326
-0.00265395
-0.00265364
-0.00265348
-0.00265333
-0.00265329
-0.00265406
-0.00265375
-0.0026536
-0.00265345
-0.0026534
-0.00265419
-0.00265389
-0.00265373
-0.00265358
-0.00265354
-0.00265445
-0.00265415
-0.00265399
-0.00265384
-0.0026538
-0.00302898
-0.00302856
-0.00302835
-0.00302815
-0.00302809
-0.00302902
-0.00302861
-0.00302839
-0.0030282
-0.00302814
-0.00302918
-0.00302876
-0.00302855
-0.00302835
-0.00302829
-0.00302937
-0.00302895
-0.00302874
-0.00302854
-0.00302848
-0.00302972
-0.00302931
-0.0030291
-0.0030289
-0.00302884
-0.0034907
-0.00349011
-0.00348982
-0.00348954
-0.00348946
-0.00349076
-0.00349017
-0.00348988
-0.0034896
-0.00348952
-0.00349099
-0.0034904
-0.00349011
-0.00348983
-0.00348975
-0.00349124
-0.00349066
-0.00349037
-0.00349009
-0.00349001
-0.00349175
-0.00349118
-0.00349089
-0.00349062
-0.00349054
-0.00388222
-0.00388141
-0.003881
-0.00388063
-0.00388052
-0.00388231
-0.0038815
-0.00388109
-0.00388072
-0.00388061
-0.00388262
-0.00388181
-0.00388141
-0.00388103
-0.00388092
-0.00388298
-0.00388218
-0.00388178
-0.0038814
-0.00388129
-0.00388369
-0.0038829
-0.00388251
-0.00388214
-0.00388203
-0.0043263
-0.00432515
-0.00432461
-0.0043241
-0.00432396
-0.00432641
-0.00432526
-0.00432472
-0.00432421
-0.00432407
-0.00432684
-0.0043257
-0.00432516
-0.00432465
-0.00432451
-0.00432732
-0.0043262
-0.00432566
-0.00432515
-0.00432501
-0.00432832
-0.00432723
-0.00432671
-0.00432621
-0.00432607
-0.00472635
-0.00472477
-0.00472401
-0.00472333
-0.00472314
-0.00472651
-0.00472494
-0.00472418
-0.0047235
-0.0047233
-0.00472711
-0.00472554
-0.00472479
-0.0047241
-0.0047239
-0.00472778
-0.00472623
-0.00472549
-0.00472481
-0.00472462
-0.00472918
-0.00472767
-0.00472695
-0.00472628
-0.00472609
-0.00515493
-0.00515271
-0.00515179
-0.00515089
-0.0051507
-0.0051551
-0.00515289
-0.00515196
-0.00515106
-0.00515086
-0.00515584
-0.00515368
-0.00515275
-0.00515187
-0.00515167
-0.00515667
-0.00515455
-0.00515363
-0.00515275
-0.00515254
-0.00515855
-0.00515654
-0.00515566
-0.00515482
-0.00515464
-0.00555567
-0.00555272
-0.0055515
-0.00555048
-0.00555026
-0.00555588
-0.00555294
-0.00555174
-0.00555068
-0.00555046
-0.00555687
-0.00555394
-0.00555274
-0.00555163
-0.00555138
-0.00555795
-0.00555508
-0.00555389
-0.00555279
-0.00555254
-0.00556059
-0.0055578
-0.00555667
-0.00555557
-0.00555534
-0.00596639
-0.0059626
-0.00596174
-0.00596078
-0.00596119
-0.00596642
-0.00596266
-0.00596175
-0.00596067
-0.00596077
-0.00596735
-0.00596368
-0.0059627
-0.00596165
-0.00596162
-0.00596836
-0.00596471
-0.00596363
-0.00596249
-0.00596243
-0.00597157
-0.00596818
-0.00596713
-0.00596609
-0.00596605
-0.00635496
-0.00635098
-0.00635162
-0.00635193
-0.00635336
-0.0063549
-0.00635077
-0.00635097
-0.00635111
-0.00635199
-0.00635596
-0.00635156
-0.00635126
-0.00635087
-0.00635161
-0.00635676
-0.00635226
-0.00635153
-0.00635064
-0.00635093
-0.00636104
-0.00635654
-0.00635571
-0.00635454
-0.00635465
-0.00673284
-0.00673009
-0.00673378
-0.0067424
-0.00674859
-0.00673222
-0.00672864
-0.00673102
-0.00673683
-0.00674244
-0.00673272
-0.00672853
-0.00672984
-0.0067309
-0.00673375
-0.00673247
-0.0067277
-0.00672855
-0.00672857
-0.00672996
-0.00673698
-0.00673223
-0.00673247
-0.00673192
-0.00673252
-0.00707035
-0.00706832
-0.00707297
-0.0070737
-0.00707483
-0.00706894
-0.00706539
-0.00706986
-0.00707194
-0.00707356
-0.00706996
-0.00706438
-0.00706617
-0.00706962
-0.00707252
-0.00707033
-0.00706345
-0.00706449
-0.00706522
-0.00706799
-0.00707894
-0.00707
-0.00706965
-0.00706847
-0.00706995
-0.00735326
-0.00734565
-0.0073435
-0.00733846
-0.00733727
-0.00735397
-0.00734646
-0.00734453
-0.00733949
-0.00733818
-0.00735755
-0.00734831
-0.00734849
-0.00734411
-0.00734292
-0.00736232
-0.00734939
-0.00734804
-0.00734574
-0.00734497
-0.00737974
-0.00736184
-0.00735682
-0.0073529
-0.00735235
-0.00755719
-0.00753504
-0.00751688
-0.00750048
-0.00748826
-0.00756158
-0.00754062
-0.00752432
-0.0075094
-0.00749981
-0.00757481
-0.00755082
-0.00753758
-0.00752339
-0.00751543
-0.00758955
-0.00756253
-0.00755038
-0.00753927
-0.00753341
-0.00761292
-0.00758879
-0.00757362
-0.0075597
-0.00755516
-0.00771052
-0.00766841
-0.00763811
-0.00760979
-0.00759208
-0.00771433
-0.00767582
-0.00764854
-0.00762448
-0.00760856
-0.00773032
-0.00769359
-0.00766947
-0.00764757
-0.00763628
-0.00774654
-0.00771309
-0.00769299
-0.00767435
-0.0076664
-0.00777362
-0.00774577
-0.00772917
-0.00771245
-0.00770893
-0.00778583
-0.00771439
-0.00764869
-0.00760661
-0.00755398
-0.00779421
-0.00773011
-0.00767805
-0.0076443
-0.00760491
-0.00780829
-0.00775293
-0.00770896
-0.00767651
-0.00764585
-0.00782699
-0.00778472
-0.00775225
-0.00772809
-0.00771175
-0.00786263
-0.00782577
-0.00780647
-0.00779119
-0.00778249
-0.00785193
-0.00777658
-0.00772929
-0.00768907
-0.00765489
-0.00785565
-0.00779035
-0.0077467
-0.00772196
-0.00768645
-0.00786651
-0.00780737
-0.00777333
-0.00774564
-0.00772724
-0.0078782
-0.00783117
-0.00780681
-0.00778899
-0.00777488
-0.00791748
-0.007877
-0.00786509
-0.00785349
-0.00785073
-0.00783463
-0.00773677
-0.00763955
-0.00760839
-0.00746884
-0.00783898
-0.0077603
-0.0076861
-0.00765891
-0.00760195
-0.00784948
-0.00777835
-0.00771797
-0.00768424
-0.00763462
-0.00786933
-0.00781179
-0.00777789
-0.0077583
-0.007734
-0.00792042
-0.00786741
-0.00784703
-0.00783542
-0.00783138
-0.0078768
-0.00778463
-0.00772481
-0.0076753
-0.00747811
-0.00787769
-0.00781486
-0.00776597
-0.00780343
-0.00766309
-0.0078865
-0.00781172
-0.00778116
-0.00776575
-0.00772337
-0.00789579
-0.00784066
-0.00781193
-0.00781496
-0.00778486
-0.00794507
-0.00789432
-0.00788545
-0.00787535
-0.00787771
-0.00778911
-0.0076808
-0.0075457
-0.00761537
-0.00746704
-0.0077961
-0.00770173
-0.00762504
-0.0076202
-0.00758321
-0.00781653
-0.00770811
-0.00764071
-0.00762569
-0.00753764
-0.00784609
-0.00776539
-0.00770798
-0.00770006
-0.00767571
-0.00791347
-0.00784346
-0.00781302
-0.00779047
-0.00778128
-0.00778531
-0.00759646
-0.00742687
-0.00719505
-0.00625415
-0.00779115
-0.00771791
-0.00754221
-0.00778082
-0.00712766
-0.00780861
-0.00769539
-0.00758906
-0.0075461
-0.00741653
-0.00783235
-0.00776827
-0.00769645
-0.00771736
-0.00758583
-0.00790096
-0.00783011
-0.00780747
-0.00778518
-0.00778097
-0.00770668
-0.00755859
-0.00735685
-0.00703562
-0.00582997
-0.00768756
-0.0076035
-0.00737986
-0.00726573
-0.00593811
-0.00773459
-0.00759154
-0.00750167
-0.0073759
-0.00729536
-0.00775847
-0.0076825
-0.00759197
-0.00760017
-0.00753477
-0.0078362
-0.00775528
-0.00772974
-0.00767825
-0.00768855
-0.00774721
-0.00772818
-0.00782177
-0.00772025
-0.0105681
-0.00771493
-0.00768447
-0.00772566
-0.00761468
-0.0082991
-0.00770521
-0.00767877
-0.0076678
-0.00772239
-0.00781486
-0.00771165
-0.00768215
-0.00768224
-0.00768861
-0.0077335
-0.00775651
-0.00771053
-0.00770847
-0.00771764
-0.00775633
-0.00766323
-0.00751834
-0.00739586
-0.00724608
-0.00753253
-0.00761104
-0.00755559
-0.00740129
-0.00753093
-0.00739455
-0.00762811
-0.00755516
-0.00752494
-0.00740971
-0.00740891
-0.00763384
-0.00759661
-0.00755879
-0.00756522
-0.00752924
-0.0076802
-0.00763385
-0.00763191
-0.00762258
-0.00767603
-0.00745042
-0.00734433
-0.00736046
-0.00736818
-0.00709659
-0.00742072
-0.00738171
-0.00733522
-0.00734369
-0.00731445
-0.00740714
-0.0073803
-0.00737214
-0.00735497
-0.00741455
-0.00741804
-0.00740158
-0.00738922
-0.00740615
-0.00738829
-0.00744353
-0.00742075
-0.00741929
-0.00744421
-0.00748858
-0.00745109
-0.00747067
-0.00779284
-0.00764784
-0.00633902
-0.00739788
-0.0074436
-0.00758673
-0.00759741
-0.00785842
-0.00738675
-0.00741216
-0.00752236
-0.00761477
-0.00787801
-0.00736547
-0.0073892
-0.00742406
-0.00747722
-0.00753064
-0.00737238
-0.00736865
-0.00740052
-0.00742902
-0.00749809
-0.00701461
-0.00705615
-0.00731002
-0.00807184
-0.010427
-0.00698369
-0.00701817
-0.00714694
-0.00730241
-0.00860367
-0.00695933
-0.0069945
-0.00707162
-0.00718
-0.00739534
-0.0069467
-0.00696648
-0.00700927
-0.00705611
-0.00712321
-0.00693341
-0.00695213
-0.00697737
-0.00702008
-0.00706846
-0.00687745
-0.00691467
-0.00700981
-0.00547937
-0.00986555
-0.00689603
-0.00690827
-0.0068563
-0.00657865
-0.0055845
-0.00688733
-0.00691054
-0.00687559
-0.00688872
-0.00709277
-0.00689562
-0.00691354
-0.00692298
-0.00694436
-0.0069766
-0.00688388
-0.00689995
-0.00690346
-0.00693118
-0.00693238
-0.00618608
-0.00628192
-0.00633986
-0.00570406
-0.00602319
-0.00616635
-0.00621372
-0.00617855
-0.0059025
-0.00569753
-0.00614496
-0.00617715
-0.00617674
-0.00619393
-0.00637336
-0.00613683
-0.00616192
-0.0061884
-0.00624116
-0.00633069
-0.00613223
-0.00614158
-0.00616021
-0.00619602
-0.00623136
-0.0057035
-0.00570128
-0.00549617
-0.00498732
-0.00464049
-0.00572432
-0.00570417
-0.00554768
-0.00525067
-0.00497966
-0.00573495
-0.0057309
-0.00563367
-0.00555885
-0.00551342
-0.00576232
-0.00576328
-0.00573825
-0.00572423
-0.00573324
-0.00576459
-0.00576507
-0.00574556
-0.00574669
-0.00573759
-0.00423226
-0.00422361
-0.00409458
-0.00395227
-0.0039859
-0.00426216
-0.00424409
-0.00414818
-0.00402591
-0.00395609
-0.00429463
-0.00426991
-0.00420934
-0.00415365
-0.00410537
-0.00433809
-0.00431943
-0.00427505
-0.00425563
-0.00424211
-0.0043616
-0.00434092
-0.00430205
-0.00427603
-0.00425282
-0.00347447
-0.00349845
-0.00352759
-0.00360443
-0.0037103
-0.00348435
-0.00349941
-0.00350562
-0.00355278
-0.00360676
-0.00349207
-0.00349843
-0.00348212
-0.00350931
-0.00353409
-0.00350496
-0.00350894
-0.00350074
-0.00350372
-0.00350392
-0.00350818
-0.0035055
-0.00349481
-0.00348901
-0.00348187
-0.00148699
-0.00150982
-0.00157963
-0.00159244
-0.00158893
-0.00148509
-0.00149051
-0.00154798
-0.00159315
-0.00159415
-0.00148566
-0.00148354
-0.00150097
-0.00154976
-0.0015825
-0.00148893
-0.00148638
-0.00148429
-0.00149146
-0.00151116
-0.00149328
-0.00148972
-0.00148682
-0.00148644
-0.001489
-0.000804691
-0.000840872
-0.000890726
-0.00100212
-0.00108865
-0.000802792
-0.000830268
-0.000860006
-0.000932444
-0.00100153
-0.000802631
-0.000815706
-0.000827201
-0.000858086
-0.000887
-0.0008017
-0.000810514
-0.00081548
-0.00082934
-0.000839704
-0.000805941
-0.000801593
-0.000802329
-0.000802397
-0.000804887
-0.00646773
-0.00660624
-0.00718299
-0.00521851
-0.00536925
-0.00714819
-0.00537692
-0.00750994
-0.00786742
-0.00648751
-0.01078
-0.0116843
-0.00874333
-0.0111141
-0.0131278
-0.00858856
-0.0108613
-0.0103658
-0.0133736
-0.00646916
-0.0113184
-0.00763339
-0.00727392
-0.00760146
-0.00659654
-0.00615711
-0.00724881
-0.00659686
-0.00754967
-0.00726577
-0.007359
-0.00737754
-0.00714602
-0.00745667
-0.00743112
-0.00761779
-0.00733588
-0.00731887
-0.00744601
-0.007193
-0.00749401
-0.00742959
-0.00849383
-0.00751518
-0.00846747
-0.00730879
-0.00764979
-0.006959
-0.00751836
-0.00880483
-0.00765954
-0.00833746
-0.00771085
-0.00791267
-0.00710754
-0.00752838
-0.00844624
-0.00800399
-0.0106165
-0.00798763
-0.00833531
-0.00678864
-0.00808202
-0.0066662
-0.00768882
-0.0077082
-0.00798898
-0.00749977
-0.00740798
-0.0074176
-0.00772006
-0.00754537
-0.00743706
-0.0070691
-0.00774108
-0.0066968
-0.00791204
-0.00775386
-0.0075956
-0.00748695
-0.00712602
-0.00777212
-0.00674072
-0.00795661
-0.0116655
-0.0122922
-0.0124775
-0.0155702
-0.0115272
-0.0136258
-0.0138828
-0.011456
-0.0115319
-0.00987436
-0.0095237
-0.0109588
-0.00841104
-0.0133017
-0.0120852
-0.0119046
-0.0101836
-0.010446
-0.0111679
-0.00917841
-0.0141325
-0.00807836
-0.00810503
-0.00779145
-0.00857057
-0.00842023
-0.00850444
-0.0085352
-0.00829788
-0.00756093
-0.00790043
-0.00766865
-0.00827877
-0.00739114
-0.00794809
-0.00837297
-0.00771479
-0.00777936
-0.00796401
-0.00838991
-0.00745666
-0.00773593
-0.0111901
-0.00933052
-0.00944388
-0.00792328
-0.0107856
-0.0091459
-0.00931866
-0.00835979
-0.00775242
-0.00817098
-0.00855823
-0.00847943
-0.00843736
-0.00865647
-0.00842383
-0.00783621
-0.00821219
-0.00860951
-0.00859397
-0.00855344
-0.008726
-0.00801121
-0.00806788
-0.00952591
-0.00935355
-0.00794825
-0.00830985
-0.00839974
-0.0105702
-0.0104607
-0.0114239
-0.0115688
-0.0113232
-0.0104508
-0.0105518
-0.0082447
-0.00747133
-0.00783089
-0.00788689
-0.00990886
-0.00786215
-0.00839861
-0.00835323
-0.00753678
-0.00774157
-0.00847038
-0.0102193
-0.00797237
-0.008096
-0.0105973
-0.011376
-0.0109733
-0.010389
-0.011059
-0.0106766
-0.0105387
-0.010699
-0.0116187
-0.0112538
-0.0106104
-0.0112177
-0.0108222
-0.0107295
0.000367831
-0.00683601
-0.00579106
-0.00811296
-0.00736367
-0.00748666
-0.00813368
-0.00911517
-0.00887638
-0.00889614
-0.00866112
-0.00932929
-0.00887991
-0.0089128
-0.00921366
-0.00967386
-0.00977451
-0.00941087
-0.00998853
-0.00935036
-0.00919132
-0.0092871
-0.00971741
-0.00997988
-0.0095418
-0.0100641
-0.00958729
-0.00926866
-0.00819305
-0.00750683
-0.00735304
-0.00802202
-0.00809198
-0.00774304
-0.00778356
-0.00831262
-0.00760143
-0.00744686
-0.00815178
-0.00825758
-0.00784864
-0.00789344
-0.0112241
-0.00886865
-0.00932783
-0.00942039
-0.00946649
-0.00952961
-0.0110117
-0.0101463
-0.00892822
-0.00904507
-0.00842435
-0.0109912
-0.00871075
-0.00912867
-0.0095278
-0.00772932
-0.00778563
-0.00915684
-0.00781361
-0.00929369
-0.00936592
-0.00803408
-0.0074375
-0.00762957
-0.00764251
-0.00758187
-0.0073766
-0.00766897
-0.0099935
-0.00867775
-0.00699726
-0.0094168
-0.00826828
-0.00895444
-0.00963873
-0.0100675
-0.00878697
-0.00710725
-0.00961007
-0.00830096
-0.00909686
-0.00978146
-0.00894401
-0.0076854
-0.00909337
-0.00883891
-0.0075941
-0.00843841
-0.00858234
-0.00915833
-0.00933224
-0.00794277
-0.00899771
-0.00781915
-0.00860951
-0.00877331
-0.00807007
-0.00806321
-0.00882542
-0.00669168
-0.00488349
-0.00594022
-0.00585762
-0.00604855
-0.00714834
-0.00675334
-0.00769564
-0.00879891
-0.00722747
-0.00783039
-0.00582459
-0.0071042
-0.00698196
-0.00666177
-0.00870647
-0.00762741
-0.0076652
-0.00828171
-0.00831615
-0.0081071
-0.00778455
-0.00798827
-0.00775306
-0.00788589
-0.00847198
-0.00849224
-0.00862676
-0.00798886
-0.00801546
-0.00759636
-0.00801273
-0.00935446
-0.00783537
-0.0103461
-0.0080446
-0.00614363
-0.00713134
-0.00841956
-0.00936629
-0.00802976
-0.0103684
-0.0079785
-0.00616953
-0.0072792
-0.00839795
-0.0102417
-0.00826626
-0.00831
-0.00811138
-0.006789
-0.00901434
-0.00906329
-0.00859617
-0.0090399
-0.00974462
-0.00700669
-0.00742804
-0.00806156
-0.00847176
-0.00771735
-0.00742901
-0.00762098
-0.0077808
-0.00813855
-0.00763392
-0.00781434
-0.00840842
-0.00885039
-0.00795755
-0.00865623
-0.00809604
-0.0083473
-0.00810431
-0.00845817
-0.00898671
-0.00805147
-0.0087596
-0.00823388
-0.00846077
-0.00817904
-0.00584643
-0.00343377
-0.00537692
-0.00546106
-0.00530607
-0.00486009
-0.00495861
-0.00821942
-0.00787108
-0.00824287
-0.00784341
-0.00762569
-0.0079436
-0.00760431
-0.00689029
-0.00716023
-0.00728735
-0.00673933
-0.00614258
-0.00741794
-0.00714885
-0.00692824
-0.00719422
-0.00742132
-0.00718995
-0.00627513
-0.00746975
-0.00682877
-0.00431022
-0.00632872
-0.00515846
-0.00643178
-0.0067974
-0.00495239
-0.00305365
-0.00423695
-0.0065003
-0.00531513
-0.00659591
-0.00684676
-0.00540604
-0.0032293
-0.00758954
-0.00790927
-0.00852184
-0.0077497
-0.00863462
-0.0079157
-0.00799308
-0.00798687
-0.00772554
-0.00871292
-0.00786768
-0.00877737
-0.0080633
-0.00816111
-0.00344636
-0.00740973
-0.00625667
-0.00686456
-0.000573533
-0.00703576
-0.00676648
-0.00398439
-0.00199005
-0.00215125
-0.000375774
-0.00215661
-0.00175093
-0.0013649
-0.00556921
-0.00267092
-0.0062597
-0.0064308
-0.00368532
-0.00707153
-0.00498912
-0.00550547
-0.00268001
-0.00621415
-0.0063466
-0.00363107
-0.00700701
-0.00488207
-0.0087309
-0.00729721
-0.00725958
-0.00841566
-0.0079818
-0.00735707
-0.00724553
-0.00865895
-0.00713154
-0.00684328
-0.00823002
-0.00775786
-0.00688812
-0.00703346
-0.00517905
-0.00772832
-0.00699595
-0.0069825
-0.00677127
-0.00686317
-0.00538332
-0.00572791
-0.00637487
-0.00632746
-0.00683283
-0.00528568
-0.00677448
-0.00674929
-0.00765694
-0.00785688
-0.00817571
-0.00789897
-0.00837788
-0.00809069
-0.00786343
-0.00760349
-0.00780782
-0.00813525
-0.00782774
-0.00829481
-0.00799874
-0.00780095
-0.00663768
-0.00714341
-0.0073274
-0.00764734
-0.00758736
-0.00719675
-0.00778367
-0.00538784
-0.0069407
-0.00689294
-0.0044731
-0.00714721
-0.00478333
-0.00498498
-0.00798754
-0.00735722
-0.0076994
-0.00747806
-0.00734646
-0.00769532
-0.00744219
-0.00489545
-0.00680495
-0.00761252
-0.00652836
-0.00677629
-0.00680985
-0.00429761
-0.00470888
-0.00688773
-0.00769155
-0.0066435
-0.00715254
-0.00692692
-0.00435356
-0.00615192
-0.00761573
-0.00616021
-0.0061738
-0.00785276
-0.00755139
-0.00750731
-0.00627221
-0.00631347
-0.00773782
-0.00622278
-0.00798692
-0.00759751
-0.00760291
-0.00112666
-0.00130482
-0.00190184
-0.0062716
-0.00680604
-0.00716204
-0.00679572
)
;

boundaryField
{
    inlet
    {
        type            fixedValue;
        value           uniform 0;
    }
    wall
    {
        type            zeroGradient;
    }
    outlet
    {
        type            fixedValue;
        value           uniform 0;
    }
    procBoundary2to0
    {
        type            processor;
        value           nonuniform List<scalar> 
320
(
-0.000212918
-0.000212835
-0.000212825
-0.000212796
-0.000212797
-0.00042913
-0.000429108
-0.000429087
-0.000429072
-0.000429065
-0.000994103
-0.000993996
-0.000993952
-0.000993904
-0.000993893
-0.00129944
-0.00129934
-0.00129929
-0.00129924
-0.00129922
-0.00182028
-0.00182011
-0.00182003
-0.00181995
-0.00181992
-0.00216821
-0.002168
-0.00216789
-0.00216779
-0.00216776
-0.00265393
-0.00265362
-0.00265346
-0.00265332
-0.00265328
-0.00302899
-0.00302858
-0.00302837
-0.00302817
-0.00302811
-0.00349071
-0.00349012
-0.00348983
-0.00348956
-0.00348949
-0.00388223
-0.00388143
-0.00388102
-0.00388066
-0.00388055
-0.00432631
-0.00432517
-0.00432463
-0.00432412
-0.00432399
-0.00472636
-0.00472479
-0.00472404
-0.00472337
-0.00472317
-0.00515494
-0.00515273
-0.00515181
-0.00515093
-0.00515074
-0.00555568
-0.00555274
-0.00555153
-0.00555053
-0.00555031
-0.00596639
-0.00596262
-0.00596177
-0.00596084
-0.00596124
-0.00635497
-0.00635103
-0.00635168
-0.00635201
-0.00635341
-0.00673285
-0.00673013
-0.00673381
-0.00674242
-0.00674862
-0.00707044
-0.00706845
-0.00707311
-0.00707391
-0.00707506
-0.00735348
-0.00734601
-0.00734394
-0.00733899
-0.00733784
-0.00755743
-0.00753548
-0.00751748
-0.00750131
-0.00748927
-0.00771076
-0.00766894
-0.00763886
-0.00761092
-0.00759338
-0.00778597
-0.00771511
-0.00764984
-0.00760837
-0.00755609
-0.00785202
-0.00777741
-0.00773049
-0.00769124
-0.00765768
-0.00783483
-0.00773795
-0.00764139
-0.00761218
-0.0074747
-0.00787687
-0.00778619
-0.00772733
-0.00768046
-0.00748605
-0.00778911
-0.00768326
-0.00754961
-0.0076249
-0.00749979
-0.00778464
-0.00759884
-0.00743295
-0.00720952
-0.00625512
-0.00770374
-0.00755916
-0.00736154
-0.00704532
-0.00585404
-0.00774194
-0.00772383
-0.00781739
-0.00771857
-0.0105559
-0.00765564
-0.00751147
-0.00738511
-0.00723545
-0.00752182
-0.0074393
-0.00733356
-0.00734143
-0.00735553
-0.00707777
-0.00743954
-0.00745615
-0.00776057
-0.0076148
-0.00630858
-0.00700185
-0.00704082
-0.00727401
-0.00799691
-0.0103454
-0.00686491
-0.00689169
-0.00694944
-0.00544403
-0.00960496
-0.00617615
-0.00627106
-0.00632636
-0.00571635
-0.0061721
-0.00569876
-0.00569643
-0.00548825
-0.00497916
-0.00462706
-0.00422616
-0.00421841
-0.00408936
-0.00394786
-0.00397906
-0.00346906
-0.00349371
-0.00352744
-0.00360171
-0.00370694
-0.00148211
-0.00150564
-0.0015809
-0.00159282
-0.00158706
-0.00080149
-0.000835463
-0.000880255
-0.00100007
-0.00108978
-0.00520274
-0.00536299
-0.00644356
-0.0107218
-0.0116137
-0.00749013
-0.010157
-0.0131682
-0.0130344
-0.00655052
-0.00610567
-0.00761216
-0.00736083
-0.00712419
-0.00752811
-0.00718415
-0.00726796
-0.00831616
-0.00797186
-0.0083164
-0.00842964
-0.00767356
-0.00740896
-0.00799186
-0.00706815
-0.00790947
-0.00753046
-0.0122045
-0.0135236
-0.015438
-0.00965339
-0.0134158
-0.0114598
-0.00839798
-0.00848367
-0.00805929
-0.00766173
-0.00826241
-0.0082849
-0.00834012
-0.00863265
-0.00846076
-0.0104097
-0.0104012
-0.0113586
-0.00783228
-0.00983835
-0.00822728
-0.0109202
-0.0104919
-0.0113368
-0.00810671
-0.00736073
0.000266875
-0.00885894
-0.00885585
-0.00863758
-0.0093897
-0.0091658
-0.0096585
-0.00800522
-0.00777274
-0.00749312
-0.00771907
-0.00925864
-0.00912156
-0.00937999
-0.00959777
-0.00865016
-0.0088995
-0.00854251
-0.00761898
-0.00490979
-0.00594249
-0.00806027
-0.00770705
-0.00879425
-0.00606517
-0.00797891
-0.00787255
-0.00829781
-0.00933833
-0.0083991
-0.0061362
-0.00341548
-0.00488016
-0.00542432
-0.00672228
-0.00612885
-0.0068656
-0.00518795
-0.00311275
-0.00634742
-0.00756832
-0.00796414
-0.00848793
-0.00686523
-0.000570031
-0.00339717
-0.00202883
-0.00177146
-0.00045789
-0.00644329
-0.0049921
-0.00269614
-0.00841977
-0.00724934
-0.00729296
-0.00692651
-0.00489211
-0.0044779
-0.00655105
-0.00431304
-0.00682887
-0.0061558
-0.00749685
-0.00759845
-0.00682355
-0.00716236
-0.00114452
)
;
    }
    procBoundary2to3
    {
        type            processor;
        value           nonuniform List<scalar> 
320
(
-0.000212788
-0.000212789
-0.000212806
-0.000212818
-0.000212879
-0.000429059
-0.000429062
-0.000429068
-0.000429081
-0.000429089
-0.000993876
-0.000993881
-0.000993909
-0.000993942
-0.000994021
-0.0012992
-0.00129921
-0.00129924
-0.00129928
-0.00129936
-0.0018199
-0.00181991
-0.00181997
-0.00182003
-0.00182016
-0.00216774
-0.00216775
-0.00216783
-0.00216792
-0.00216809
-0.00265325
-0.00265327
-0.00265338
-0.00265352
-0.00265378
-0.00302808
-0.00302812
-0.00302827
-0.00302846
-0.00302882
-0.00348944
-0.0034895
-0.00348972
-0.00348998
-0.00349051
-0.0038805
-0.00388058
-0.00388089
-0.00388126
-0.00388199
-0.00432393
-0.00432404
-0.00432448
-0.00432498
-0.00432603
-0.00472311
-0.00472327
-0.00472386
-0.00472457
-0.00472604
-0.00515067
-0.00515083
-0.00515162
-0.00515249
-0.00515458
-0.00555022
-0.00555042
-0.00555133
-0.00555249
-0.00555526
-0.00596117
-0.00596074
-0.00596156
-0.00596237
-0.00596597
-0.00635338
-0.00635194
-0.0063515
-0.0063508
-0.00635448
-0.00674864
-0.00674253
-0.00673376
-0.00672988
-0.00673233
-0.00707469
-0.00707341
-0.00707236
-0.00706783
-0.00706966
-0.00733676
-0.00733766
-0.0073422
-0.00734424
-0.00735154
-0.00748729
-0.00749876
-0.0075144
-0.00753244
-0.00755428
-0.00759073
-0.00760734
-0.00763485
-0.00766536
-0.00770798
-0.00755188
-0.00760232
-0.00764342
-0.00770983
-0.00778085
-0.00765191
-0.00768457
-0.00772476
-0.00777355
-0.00784851
-0.00746344
-0.00759563
-0.00763171
-0.00773156
-0.00782839
-0.00746958
-0.00765739
-0.00771969
-0.00778357
-0.00787088
-0.00744039
-0.00756859
-0.00753803
-0.00767121
-0.00777516
-0.00349491
-0.00710859
-0.00741848
-0.00757712
-0.00776377
0.000463444
-0.00580443
-0.00730121
-0.00752359
-0.00767547
-0.00845048
-0.00835164
-0.0078352
-0.00771683
-0.00774185
-0.00764256
-0.00761925
-0.00738493
-0.00752267
-0.00767486
-0.00648289
-0.00693701
-0.00740985
-0.00738916
-0.00748063
-0.00752844
-0.00825741
-0.00788027
-0.00754194
-0.00749901
-0.0132272
-0.00885913
-0.0073906
-0.00713049
-0.00707013
-0.00957635
-0.00558012
-0.00710233
-0.00698351
-0.00693719
-0.00608817
-0.00569279
-0.00638162
-0.00633133
-0.0062306
-0.00465038
-0.00498129
-0.00551796
-0.00573438
-0.0057402
-0.00399767
-0.00395951
-0.00410685
-0.00424408
-0.00425355
-0.0037161
-0.00360923
-0.00353648
-0.0035046
-0.00348177
-0.00159059
-0.00159646
-0.00158392
-0.00151183
-0.00148894
-0.00108926
-0.0010017
-0.000885286
-0.000838503
-0.000802949
-0.00738046
-0.00555415
-0.00538315
-0.00640133
-0.0112021
-0.0117584
-0.0109071
-0.0114066
-0.0137761
-0.00761155
-0.00658443
-0.00617328
-0.00732091
-0.00741044
-0.0071918
-0.00837343
-0.00753674
-0.00797716
-0.0106379
-0.00810605
-0.00835256
-0.00771926
-0.0074162
-0.00798912
-0.00712413
-0.00795837
-0.00760604
-0.0125703
-0.0140442
-0.0157298
-0.0105229
-0.0142301
-0.0119617
-0.00843185
-0.00855337
-0.00812417
-0.0078436
-0.00775163
-0.00841798
-0.00845604
-0.00875416
-0.00861952
-0.0105108
-0.0105983
-0.0116458
-0.00772333
-0.00810883
-0.0102929
-0.0113389
-0.0107689
-0.0116439
-0.00576741
-0.00815942
-0.00735825
-0.00890792
-0.00892931
-0.00867023
-0.0095731
-0.00929186
-0.00973193
-0.00816837
-0.0079151
-0.00761783
-0.00779006
-0.00939201
-0.00918926
-0.0096536
-0.0098002
-0.00875537
-0.00915566
-0.00883523
-0.00797862
-0.00485386
-0.00585374
-0.00807011
-0.00693434
-0.00759585
-0.00869301
-0.0080337
-0.00802937
-0.00850506
-0.00938523
-0.00841991
-0.00616137
-0.00343707
-0.00491443
-0.00545723
-0.0074008
-0.00680346
-0.00633344
-0.00773345
-0.00818551
-0.00868328
-0.00526493
-0.00319869
-0.00638719
-0.00625861
-0.00677298
-0.000582115
-0.00211448
-0.00135009
-0.000298717
-0.00633906
-0.00487193
-0.00264838
-0.00820893
-0.00701315
-0.0071181
-0.00691153
-0.00492822
-0.00445292
-0.00647478
-0.00432555
-0.00687114
-0.0062353
-0.00757182
-0.00779384
-0.00678751
-0.0067943
-0.00128822
)
;
    }
}


// ************************************************************************* //
