/*--------------------------------*- C++ -*----------------------------------*\
| =========                 |                                                 |
| \\      /  F ield         | OpenFOAM: The Open Source CFD Toolbox           |
|  \\    /   O peration     | Version:  5.x                                   |
|   \\  /    A nd           | Web:      www.OpenFOAM.org                      |
|    \\/     M anipulation  |                                                 |
\*---------------------------------------------------------------------------*/
FoamFile
{
    version     2.0;
    format      ascii;
    class       volScalarField;
    location    "0.072";
    object      interFace;
}
// * * * * * * * * * * * * * * * * * * * * * * * * * * * * * * * * * * * * * //

dimensions      [0 0 0 0 0 0 0];

internalField   nonuniform List<scalar> 
1539
(
0
0
0
0
0
0
0
0
0
0
0
0
0
0
0
0
0
0
0
0
0
0
0
0
0
0
0
0
0
0
0
0
0
0
0
0
0
0
0
0
0
0
0
0
0
0
0
0
0
0
0
0
0
0
0
0
0
0
0
0
0
0
0
0
0
0
0
0
0
0
0
0
0
0
0
0
0
0
0
0
0
0
0
0
0
0
0
0
0
0
0
0
0
0
0
0
0
0
0
0
0
0
0
0
0
0
0
0
0
0
0
0
0
0
0
0
0
0
0
0
0
0
0
0
0
0
0
0
0
0
0
0
0
0
0
0
0
0
0
0
0
0
0
0
0
0
0
0
0
0
0
0
0
0
0
0
0
0
0
0
0
0
0
0
0
0
0
0
0
0
0
0
0
0
0
0
0
0
0
0
0
0
0
0
0
0
0
0
0
0
0
0
0
0
0
0
0
0
0
0
0
0
0
0
0
0
0
0
0
0
0
0
0
0
0
0
0
0
0
0
0
0
0
0
0
0
0
0
0
0
0
0
0
0
0
0
0
0
0
0
0
0
0
0
0
0
0
0
0
0
0
0
0
0
0
0
0
0
0
0
0
0
0
0
0
0
0
0
0
0
0
0
0
0
0
0
0
0
0
0
0
0
0
0
0
0
0
0
0
0
0
0
0
0
0
0
0
0
0
0
0
0
0
0
0
0
0
0
0
0
0
0
0
0
0
0
0
0
0
0
0
0
0
0
0
0
0
0
0
0
0
0
0
0
0
0
0
0
0
0
0
0
0
0
0
0
0
0
0
0
0
0
0
0
0
0
0
0
0
0
0
0
0
0
0
0
0
0
0
0
0
0
0
0
0
0
0
0
0
0
0
0
0
0
0
0
0
0
0
0
0
0
0
0
0
0
0
0
0
0
0
0
0
0
0
0
0
0
0
0
0
0
0
0
0
0
0
0
0
0
0
0
0
0
0
0
0
0
0
0
0
0
0
0
0
0
0
0
0
0
0
0
0
0
0
0
0
0
0
0
0
0
0
0
0
0
0
0
0
0
0
0
0
0
0
0
0
0
0
0
0
0
0
0
0
0
0
0
0
0
0
0
0
0
0
0
0
0
0
0
0
0
0
0
0
0
0
0
0
0
0
0
0
0
0
0
0
0
0
0
0
0
0
0
0
0
0
0
0
0
0
0
0
0
0
0
0
0
0
0
0
0
0
0
0
0
0
0
0
0
0
0
0
0
0
0
0
0
0
0
0
0
0
0
0
0
0
0
0
0
0
0
0
0
0
0
0
0
0
0
0
0
0
0
0
0
0
0
0
0
0
0
0
0
0
0
0
0
0
0
0
0
0
0
0
0
0
0
0
0
0
0
0
0
0
0
0
0
0
0
0
0
0
0
0
0
0
0
0
0
0
0
0
0
0
0
0
0
0
0
0
0
0
0
0
0
0
0
0
0
0
0
0
0
0
0
0
0
0
0
0
0
0
0
0
0
0
0
0
0
0
0
0
0
0
0
0
0
0
0
0
0
0
0
0
0
0
0
0
0
0
0
0
0
0
0
0
0
0
0
0
0
0
0
0
0
0
0
0
0.688291
0
0
0
0
0
0
0
0
0
0
0
0
0
0
0
0
0
0
0
0
0
0
0
0
0.599261
0
0
0
0
0
0
0
0
0
0
0
0
0
0
0
0
0
0
0
0
0
0
0
0
0
0
0
0
0
0
0
0
0
0
0
0
0
0
0
0
0
0
0
0
0
0
0
0
0
0.920048
0
0
0
0
0
0
0
0
0
0
0
0
0
0
0
0
0
0
0
0
0
0
0
0
0.548786
0
0
0
0
0
0
0
0
0
0
0
0
0
0
0
0
0
0
0
0
0
0
0
0
0.894653
0
0
0
0
0
0
0
0
0
0
0
0
0
0
0
0
0
0
0
0
0
0
0
0
0
0
0
0
0
0
0
0
0
0
0
0
0
0
0
0
0
0
0
0
0
0
0
0
0
0
0
0
0
0
0
0
0
0
0
0
0
0
0
0
0
0
0
0
0
0
0
0
0
0
0
0
0
0
0
0
0
0
0
0
0
0
0
0
0
0
0
0
0
0
0
0
0
0
0
0
0
0
0
0
0
0
0
0
0
0
0
0
0
0
0
0
0
0
0
0
0
0
0
0
0
0
0
0
0
0
0
0
0
0
0
0
0
0
0
0
0
0
0
0
0
0
0
0
0
0
0
0
0
0
0
0
0
0
0
0
0
0
0
0
0
0
0
0
0
0
0
0
0
0
0
0.651286
0.651289
0.382526
0.574371
0.305608
0.305611
0.0368484
0.280023
0.280027
0.0112636
0.740955
0.472192
0.472196
0.203433
0.62589
0.625893
0.35713
0
0
0
0.971025
0
0
0.85238
0
0.919368
0.91937
0.740195
0
0
0
0
0
0
0
0
0
0
0
0
0
0
0.330522
0.330534
0.0617944
0
0.734365
0.734377
0.465637
0.645181
0.401896
0.401897
0.555648
0.446663
0.600414
0.600415
0.734768
0.670657
0.491483
0.824408
0.53625
0.869175
0.690001
0.734769
0.670659
0.491485
0.824411
0.536251
0.869177
0.690003
0.510393
0.510397
0.555152
0.375717
0.286203
0.330958
0.330962
0
0.851386
0.509738
0
0
0
0.941455
0.851394
0
0.509755
0
0
0
0.941471
0.824355
0.760245
0.760246
0
0.625837
0.958763
0.958764
0.779124
0.599968
0.644728
0.465293
0.55493
0.599689
0.420533
0.779132
0.599977
0.644732
0.465297
0.554942
0.599697
0.420542
0.868704
0.868708
0.734308
0.554873
0.823669
0.689269
0.689273
0.184089
0.0945558
0.248199
0.2482
0.292966
0.139322
0.139323
0
0.728014
0.459251
0
0
0.893757
0.65142
0.728015
0
0.459255
0
0.893759
0
0.651424
0.273676
0.363316
0.51696
0.337785
0.408083
0.382552
0.228908
0.273677
0.363319
0.516962
0.337787
0.408085
0.382553
0.228911
0.419552
0.419564
0.150825
0.554288
0.285548
0.285561
0.0168211
0.241103
0.10655
0.106554
0.151588
0.151309
0.196343
0.196348
0.330678
0.375281
0.196125
0.420315
0.240885
0.465075
0.285919
0.330683
0.375289
0.196134
0.420328
0.240889
0.465083
0.285928
0.363263
0.632078
0.606547
0.606548
0.49767
0.497671
0.47214
0.420258
0.464861
0.464865
0.689055
0.330465
0.554655
0.554659
0.120033
0.0560297
0.0560307
0.0304995
0.100797
0.0752655
0.0752665
0.209619
0.32479
0.145616
0.299259
0.190383
0.344026
0.164852
0.20962
0.324793
0.145618
0.299262
0.190384
0.344028
0.164854
0.542543
0.875468
0.696187
0.58731
0.920235
0.811359
0.766591
0.542547
0.69619
0.875474
0.587313
0.92024
0.811363
0.766597
0.0615763
0.0615805
0.106336
0.106183
0.0166684
0.0614236
0.0614278
0
0.850775
0.598768
0
0
0.733505
0.464765
0.850783
0
0.598785
0
0.733509
0
0.464782
0.554498
0.599532
0.644291
0.868329
0.733776
0.778535
0.823569
0.55451
0.599549
0.644304
0.868346
0.733797
0.778552
0.823591
0.330308
0.151152
0.195911
0.195759
0.285396
0.330155
0.150999
0.330316
0.15116
0.195916
0.195763
0.285408
0.330163
0.151008
0.299207
0.414378
0.414379
0.568022
0.279971
0.433614
0.433615
0.419888
0.419892
0.285491
0.285339
0.554135
0.419735
0.419739
0
0
0
0
0
0
0
0.196787
0.107254
0.0816144
0.0816154
0.126381
0.15202
0.152021
0
0
0.86809
0
0
0.816814
0.484836
0
0
0.868094
0
0.816816
0
0.48484
0.286373
0.376013
0.350375
0.171201
0.42078
0.215968
0.241606
0.286374
0.376016
0.350377
0.171203
0.420783
0.215969
0.241608
0.683299
0.504018
0.478487
0.728066
0.523254
0.747302
0.702535
0.504021
0.683304
0.478491
0.72807
0.523257
0.747306
0.70254
0
0
0.850548
0.8226
0.553861
0.553873
0.285133
0.150851
0.19558
0.195584
0.0613362
0.240339
0.106091
0.106096
0.240426
0.464311
0.285155
0.330063
0.329915
0.374823
0.195667
0.240431
0.46432
0.285164
0.330076
0.329919
0.374831
0.195676
0.509524
0.688802
0.733562
0.464612
0.509372
0.733409
0.68865
0.509537
0.688823
0.733579
0.464629
0.509384
0.733426
0.688671
0.375961
0.644776
0.439963
0.439964
0.510368
0.510369
0.305556
0.330006
0.553891
0.553895
0.598803
0.419495
0.464403
0.464407
0.952062
0.593606
0.74725
0.817654
0.612842
0.83689
0.971298
0.952064
0.593608
0.747251
0.817657
0.612844
0.836893
0.9713
0
0
0
0
0
0
0
0.312013
0.427292
0.427293
0.222479
0.472059
0.267245
0.267247
0.599104
0.957542
0.823142
0.733352
0.598952
0.822989
0.957389
0.599113
0.957551
0.823154
0.733356
0.59896
0.823002
0.957398
0.401599
0.696053
0.516878
0.491239
0.561645
0.536006
0.356832
0.4016
0.696055
0.51688
0.491242
0.561647
0.536008
0.356834
0.555241
0.708884
0.529603
0.600008
0.753651
0.824056
0.779289
0.555245
0.529606
0.708889
0.600011
0.753655
0.82406
0.779294
0.329889
0.329893
0.374648
0.553777
0.464263
0.509018
0.509022
0
0
0
0
0
0
0.940233
0
0
0
0
0
0
0.94025
0.643528
0.50928
0.554039
0.778077
0.822806
0.867565
0.733317
0.643541
0.509297
0.554052
0.778094
0.822827
0.867582
0.733339
0.59862
0.419464
0.464224
0.643353
0.73299
0.777749
0.598594
0.598628
0.419473
0.464228
0.643357
0.733003
0.777758
0.598602
0.491187
0.78564
0.785641
0.760002
0.651233
0.625594
0.625595
0.6882
0.688204
0.553804
0.732933
0
0.867329
0.867334
)
;

boundaryField
{
    inlet
    {
        type            calculated;
        value           uniform 0;
    }
    wall
    {
        type            calculated;
        value           uniform 0;
    }
    outlet
    {
        type            calculated;
        value           uniform 0;
    }
    procBoundary0to1
    {
        type            processor;
        value           uniform 0;
    }
    procBoundary0to2
    {
        type            processor;
        value           uniform 0;
    }
}


// ************************************************************************* //
