/*--------------------------------*- C++ -*----------------------------------*\
| =========                 |                                                 |
| \\      /  F ield         | OpenFOAM: The Open Source CFD Toolbox           |
|  \\    /   O peration     | Version:  5.x                                   |
|   \\  /    A nd           | Web:      www.OpenFOAM.org                      |
|    \\/     M anipulation  |                                                 |
\*---------------------------------------------------------------------------*/
FoamFile
{
    version     2.0;
    format      ascii;
    class       surfaceScalarField;
    location    "0.072";
    object      phi;
}
// * * * * * * * * * * * * * * * * * * * * * * * * * * * * * * * * * * * * * //

dimensions      [0 3 -1 0 0 0 0];

internalField   nonuniform List<scalar> 
4261
(
-2.34485e-07
-2.35144e-07
2.12102e-08
-1.805e-07
-2.50854e-07
-7.21198e-09
-1.52837e-07
-2.58473e-07
1.74203e-08
-8.57574e-08
-2.70941e-07
-1.9526e-08
-2.75698e-07
-1.25918e-08
-2.50177e-07
-1.81239e-07
-7.32232e-09
-2.06624e-07
-2.0737e-07
-8.70261e-08
-1.6903e-07
-2.16806e-07
-7.92505e-08
-9.69892e-08
-2.28227e-07
-1.14744e-07
-2.3326e-07
-1.08325e-07
-2.57802e-07
-1.53618e-07
1.7276e-08
-2.16066e-07
-1.69815e-07
-7.92807e-08
-1.75391e-07
-1.76175e-07
-8.12957e-08
-1.01549e-07
-1.84678e-07
-1.17381e-07
-1.88814e-07
-1.11593e-07
-2.70266e-07
-8.6569e-08
-1.96846e-08
-2.2748e-07
-9.77981e-08
-1.14792e-07
-1.8389e-07
-1.02352e-07
-1.17404e-07
-1.07971e-07
-1.08776e-07
-1.51814e-07
-1.12275e-07
-1.45603e-07
-2.75029e-07
-1.27375e-08
-2.32524e-07
-1.08364e-07
-1.88034e-07
-1.11616e-07
-1.11475e-07
-1.45603e-07
-1.39155e-07
-1.19153e-07
-1.19215e-07
8.8807e-08
-1.23244e-07
-7.59306e-08
1.69689e-08
-1.04515e-07
-6.15401e-08
1.30215e-08
-7.85104e-08
-4.88221e-08
-3.46916e-08
-4.44249e-08
-3.80651e-08
-7.58681e-08
-1.23457e-07
1.69122e-08
-8.8903e-08
-8.91165e-08
-6.07909e-08
-8.63907e-08
-7.63418e-08
-6.69471e-08
-6.75766e-08
-6.53595e-08
-1.17007e-07
-6.13401e-08
-1.21261e-07
-6.14748e-08
-1.04862e-07
1.29135e-08
-7.61238e-08
-8.67377e-08
-6.69966e-08
-7.95567e-08
-7.99059e-08
-7.42858e-08
-6.3855e-08
-7.31996e-08
-1.25231e-07
-7.09571e-08
-1.2984e-07
-4.87616e-08
-7.89313e-08
-3.48712e-08
-6.51481e-08
-6.80017e-08
-1.17128e-07
-7.28558e-08
-6.4287e-08
-1.25303e-07
-5.97909e-08
-6.02199e-08
-1.7785e-07
-5.9204e-08
-1.83139e-07
-4.43566e-08
-3.83149e-08
-6.11172e-08
-1.21452e-07
-7.06044e-08
-1.29983e-07
-5.87671e-08
-1.83209e-07
-1.88814e-07
-2.19024e-07
-2.19599e-07
1.49499e-07
-1.9288e-07
-2.32846e-07
2.41335e-08
-1.63333e-07
-2.3655e-07
1.7551e-08
-9.52608e-08
-2.44745e-07
-6.6785e-08
-2.47847e-07
-7.09561e-08
-2.3227e-07
-1.93568e-07
2.40217e-08
-2.05205e-07
-2.05894e-07
-1.14793e-07
-1.73331e-07
-2.09659e-07
-1.25698e-07
-1.03047e-07
-2.17644e-07
-2.14378e-07
-2.21024e-07
-2.20155e-07
-2.35975e-07
-1.64108e-07
1.73639e-08
-2.08971e-07
-1.74108e-07
-1.25772e-07
-1.76634e-07
-1.7741e-07
-1.38858e-07
-1.05898e-07
-1.84556e-07
-2.29041e-07
-1.87885e-07
-2.35561e-07
-2.44169e-07
-9.60809e-08
-6.70876e-08
-2.16954e-07
-1.03869e-07
-2.14568e-07
-1.83779e-07
-1.06718e-07
-2.29157e-07
-1.11873e-07
-1.12695e-07
-3.21606e-07
-1.15842e-07
-3.29081e-07
-2.47274e-07
-7.13515e-08
-2.20338e-07
-2.20439e-07
-1.87109e-07
-2.35772e-07
-1.15021e-07
-3.29175e-07
-3.37134e-07
-2.28858e-07
-2.29135e-07
2.19043e-07
-2.0942e-07
-2.20204e-07
3.74294e-08
-1.77648e-07
-2.17699e-07
1.76369e-08
-1.13663e-07
-2.14258e-07
-9.96892e-08
-2.13467e-07
-1.11102e-07
-2.19928e-07
-2.09844e-07
3.73229e-08
-2.01972e-07
-2.02395e-07
-1.50542e-07
-1.73213e-07
-2.00162e-07
-1.71979e-07
-1.10725e-07
-1.97453e-07
-2.93654e-07
-1.9697e-07
-3.06483e-07
-2.1742e-07
-1.78182e-07
1.7418e-08
-1.99736e-07
-1.73747e-07
-1.7209e-07
-1.72057e-07
-1.72594e-07
-1.9409e-07
-1.10264e-07
-1.71208e-07
-3.17065e-07
-1.7138e-07
-3.3041e-07
-2.13982e-07
-1.14275e-07
-1.00054e-07
-1.97031e-07
-1.11337e-07
-2.93913e-07
-1.70674e-07
-1.1088e-07
-3.17214e-07
-1.09661e-07
-1.10275e-07
-4.43539e-07
-1.10952e-07
-4.58183e-07
-2.13189e-07
-1.11629e-07
-1.96544e-07
-3.06903e-07
-1.70842e-07
-3.3072e-07
-1.10334e-07
-4.58342e-07
-4.73584e-07
-3.34476e-07
-3.35098e-07
3.08637e-07
-2.96203e-07
-3.46099e-07
4.64769e-08
-2.47682e-07
-3.49046e-07
1.7095e-08
-1.42514e-07
-3.57482e-07
-1.54855e-07
-3.60601e-07
-1.71247e-07
-3.45477e-07
-2.96991e-07
4.63216e-08
-3.07106e-07
-3.07895e-07
-2.27099e-07
-2.57554e-07
-3.11057e-07
-2.59504e-07
-1.50363e-07
-3.19652e-07
-4.38658e-07
-3.23189e-07
-4.57345e-07
-3.48424e-07
-2.48598e-07
1.67892e-08
-3.10267e-07
-2.5847e-07
-2.59653e-07
-2.60703e-07
-2.61621e-07
-2.93074e-07
-1.53234e-07
-2.69871e-07
-4.74299e-07
-2.73631e-07
-4.93822e-07
-3.56861e-07
-1.43504e-07
-1.5536e-07
-3.18865e-07
-1.51355e-07
-4.39008e-07
-2.68954e-07
-1.54228e-07
-4.74502e-07
-1.60249e-07
-1.61242e-07
-6.60858e-07
-1.64952e-07
-6.8227e-07
-3.59979e-07
-1.71967e-07
-3.22401e-07
-4.57909e-07
-2.72713e-07
-4.94239e-07
-1.63957e-07
-6.82482e-07
-7.04762e-07
-4.43098e-07
-4.43609e-07
4.30826e-07
-3.93083e-07
-4.49692e-07
5.88975e-08
-3.26989e-07
-4.5134e-07
1.36299e-08
-1.90837e-07
-4.56548e-07
-2.27125e-07
-4.58629e-07
-2.52799e-07
-4.49182e-07
-3.938e-07
5.8721e-08
-3.99443e-07
-4.00159e-07
-3.2635e-07
-3.33052e-07
-4.02036e-07
-3.7518e-07
-1.95278e-07
-4.0763e-07
-6.25331e-07
-4.10156e-07
-6.53932e-07
-4.50827e-07
-3.27856e-07
1.32463e-08
-4.01317e-07
-3.33918e-07
-3.75386e-07
-3.35151e-07
-3.36021e-07
-4.25238e-07
-1.97281e-07
-3.41646e-07
-6.78134e-07
-3.44574e-07
-7.07737e-07
-4.5604e-07
-1.91808e-07
-2.2775e-07
-4.06915e-07
-1.9625e-07
-6.25781e-07
-3.4078e-07
-1.98258e-07
-6.78382e-07
-2.01973e-07
-2.02947e-07
-9.38346e-07
-2.06033e-07
-9.70492e-07
-4.58118e-07
-2.53729e-07
-4.09438e-07
-6.54684e-07
-3.43703e-07
-7.08287e-07
-2.05054e-07
-9.70791e-07
-1.00408e-06
-6.11214e-07
-6.12015e-07
5.96059e-07
-5.39696e-07
-6.30939e-07
7.413e-08
-4.45613e-07
-6.35925e-07
7.25609e-09
-2.49355e-07
-6.50573e-07
-3.32233e-07
-6.55617e-07
-3.69696e-07
-6.30139e-07
-5.4076e-07
7.38978e-08
-5.58606e-07
-5.59669e-07
-4.69129e-07
-4.62623e-07
-5.64984e-07
-5.42082e-07
-2.62089e-07
-5.79936e-07
-8.96479e-07
-5.85618e-07
-9.38638e-07
-6.35123e-07
-4.46873e-07
6.74886e-09
-5.63917e-07
-4.63883e-07
-5.42355e-07
-4.67876e-07
-4.69141e-07
-6.17101e-07
-2.66619e-07
-4.83353e-07
-9.75954e-07
-4.89375e-07
-1.01973e-06
-6.49776e-07
-2.50742e-07
-3.3305e-07
-5.78875e-07
-2.63479e-07
-8.97064e-07
-4.82092e-07
-2.68013e-07
-9.76271e-07
-2.78105e-07
-2.79498e-07
-1.34617e-06
-2.85297e-07
-1.39382e-06
-6.54817e-07
-3.70921e-07
-5.84553e-07
-9.39628e-07
-4.8811e-07
-1.02045e-06
-2.83899e-07
-1.39422e-06
-1.44359e-06
-8.57843e-07
-8.58676e-07
8.31075e-07
-7.56252e-07
-8.83083e-07
9.51866e-08
-6.21425e-07
-8.89476e-07
-3.94634e-09
-3.45945e-07
-9.076e-07
-4.79939e-07
-9.13676e-07
-5.35592e-07
-8.82252e-07
-7.57418e-07
9.49106e-08
-7.80536e-07
-7.817e-07
-6.722e-07
-6.4261e-07
-7.88409e-07
-7.8105e-07
-3.60909e-07
-8.06844e-07
-1.27891e-06
-8.13646e-07
-1.3417e-06
-8.88642e-07
-6.22829e-07
-4.59162e-09
-7.8724e-07
-6.44015e-07
-7.81415e-07
-6.49074e-07
-6.50485e-07
-8.93167e-07
-3.66283e-07
-6.67491e-07
-1.39807e-06
-6.74607e-07
-1.46333e-06
-9.06773e-07
-3.47522e-07
-4.80957e-07
-8.05683e-07
-3.62489e-07
-1.27965e-06
-6.66086e-07
-3.67871e-07
-1.39846e-06
-3.79465e-07
-3.81049e-07
-1.9192e-06
-3.87861e-07
-1.99014e-06
-9.12845e-07
-5.37171e-07
-8.1248e-07
-1.343e-06
-6.73194e-07
-1.46427e-06
-3.86268e-07
-1.99068e-06
-2.06416e-06
-1.17714e-06
-1.1783e-06
1.15595e-06
-1.03931e-06
-1.22195e-06
1.29411e-07
-8.50476e-07
-1.23411e-06
-1.84717e-08
-4.65299e-07
-1.26674e-06
-6.83122e-07
-1.27751e-06
-7.65907e-07
-1.2208e-06
-1.0409e-06
1.29063e-07
-1.08283e-06
-1.08442e-06
-9.4768e-07
-8.88625e-07
-1.09695e-06
-1.11238e-06
-4.91929e-07
-1.12996e-06
-1.81236e-06
-1.14169e-06
-1.90719e-06
-1.23296e-06
-8.52389e-07
-1.93133e-08
-1.09535e-06
-8.90537e-07
-1.11287e-06
-9.00384e-07
-9.02306e-07
-1.28276e-06
-5.01091e-07
-9.32817e-07
-1.99448e-06
-9.44732e-07
-2.0935e-06
-1.2656e-06
-4.67439e-07
-6.84422e-07
-1.12837e-06
-4.94075e-07
-1.81331e-06
-9.30906e-07
-5.03247e-07
-1.99496e-06
-5.24011e-07
-5.26162e-07
-2.73272e-06
-5.36771e-07
-2.84107e-06
-1.27636e-06
-7.67975e-07
-1.14009e-06
-1.9089e-06
-9.42807e-07
-2.09473e-06
-5.34606e-07
-2.84181e-06
-2.95395e-06
-1.67623e-06
-1.67755e-06
1.628e-06
-1.48106e-06
-1.74045e-06
1.83651e-07
-1.20834e-06
-1.75842e-06
-3.88656e-08
-6.56994e-07
-1.80358e-06
-9.71737e-07
-1.8185e-06
-1.09691e-06
-1.73914e-06
-1.48295e-06
1.8324e-07
-1.54409e-06
-1.54599e-06
-1.33715e-06
-1.26166e-06
-1.56448e-06
-1.58872e-06
-6.93383e-07
-1.6103e-06
-2.5739e-06
-1.62648e-06
-2.71877e-06
-1.75709e-06
-1.21064e-06
-3.99436e-08
-1.56258e-06
-1.26396e-06
-1.58938e-06
-1.27849e-06
-1.2808e-06
-1.8505e-06
-7.06132e-07
-1.32122e-06
-2.85588e-06
-1.33722e-06
-3.00812e-06
-1.80227e-06
-6.59609e-07
-9.73351e-07
-1.60841e-06
-6.96006e-07
-2.5751e-06
-1.31892e-06
-7.08769e-07
-2.85644e-06
-7.36078e-07
-7.38706e-07
-3.89805e-06
-7.52968e-07
-4.06484e-06
-1.81718e-06
-1.0996e-06
-1.62458e-06
-2.72103e-06
-1.3349e-06
-3.00974e-06
-7.5032e-07
-4.06586e-06
-4.23979e-06
-2.30017e-06
-2.30194e-06
2.28545e-06
-2.04096e-06
-2.41194e-06
2.78556e-07
-1.66022e-06
-2.44579e-06
-5.91598e-08
-8.96921e-07
-2.52581e-06
-1.35531e-06
-2.55269e-06
-1.54595e-06
-2.41017e-06
-2.04351e-06
2.7806e-07
-2.15127e-06
-2.15382e-06
-1.85413e-06
-1.7554e-06
-2.18787e-06
-2.24246e-06
-9.5976e-07
-2.26885e-06
-3.62647e-06
-2.29723e-06
-3.85194e-06
-2.44401e-06
-1.66331e-06
-6.05673e-08
-2.18531e-06
-1.75849e-06
-2.24336e-06
-1.78563e-06
-1.78874e-06
-2.64927e-06
-9.81196e-07
-1.86249e-06
-4.06663e-06
-1.88952e-06
-4.30563e-06
-2.52406e-06
-9.00456e-07
-1.35733e-06
-2.26631e-06
-9.63303e-07
-3.62799e-06
-1.8594e-06
-9.84763e-07
-4.06728e-06
-1.03267e-06
-1.03622e-06
-5.55101e-06
-1.05769e-06
-5.81524e-06
-2.55091e-06
-1.54949e-06
-2.29467e-06
-3.85496e-06
-1.8864e-06
-4.30778e-06
-1.05411e-06
-5.81667e-06
-6.09093e-06
-3.30786e-06
-3.30995e-06
3.27205e-06
-2.94918e-06
-3.46485e-06
4.48592e-07
-2.39779e-06
-3.51876e-06
-7.19085e-08
-1.29245e-06
-3.62688e-06
-1.89548e-06
-3.66683e-06
-2.19331e-06
-3.46277e-06
-2.95231e-06
4.48036e-07
-3.10856e-06
-3.11169e-06
-2.56146e-06
-2.52872e-06
-3.16694e-06
-3.17407e-06
-1.37977e-06
-3.278e-06
-5.12425e-06
-3.32056e-06
-5.48234e-06
-3.51666e-06
-2.40163e-06
-7.37202e-08
-3.16379e-06
-2.53256e-06
-3.17532e-06
-2.577e-06
-2.58086e-06
-3.8221e-06
-1.41355e-06
-2.67345e-06
-5.83458e-06
-2.71408e-06
-6.21804e-06
-3.62481e-06
-1.29694e-06
-1.89795e-06
-3.27489e-06
-1.38427e-06
-5.12615e-06
-2.66962e-06
-1.41808e-06
-5.83529e-06
-1.48077e-06
-1.48527e-06
-7.928e-06
-1.5195e-06
-8.35427e-06
-3.66474e-06
-2.19797e-06
-3.31742e-06
-5.48641e-06
-2.71019e-06
-6.22092e-06
-1.51494e-06
-8.35634e-06
-8.81096e-06
-4.51945e-06
-4.52227e-06
4.65289e-06
-4.06078e-06
-4.80995e-06
7.50688e-07
-3.29323e-06
-4.91036e-06
-5.84929e-08
-1.77594e-06
-5.11643e-06
-2.58111e-06
-5.19147e-06
-3.04691e-06
-4.80715e-06
-4.06505e-06
7.50062e-07
-4.35446e-06
-4.35871e-06
-3.46534e-06
-3.54534e-06
-4.45913e-06
-4.43437e-06
-1.93636e-06
-4.67148e-06
-7.17813e-06
-4.75005e-06
-7.75268e-06
-4.90752e-06
-3.29847e-06
-6.08609e-08
-4.45483e-06
-3.55055e-06
-4.43612e-06
-3.62952e-06
-3.6348e-06
-5.47169e-06
-1.99296e-06
-3.83028e-06
-8.3123e-06
-3.89644e-06
-8.94162e-06
-5.11363e-06
-1.78213e-06
-2.58413e-06
-4.66725e-06
-1.94255e-06
-7.1805e-06
-3.82507e-06
-1.99921e-06
-8.313e-06
-2.1187e-06
-2.12489e-06
-1.13397e-05
-2.1697e-06
-1.20374e-05
-5.18861e-06
-3.05317e-06
-4.74574e-06
-7.75825e-06
-3.89112e-06
-8.94553e-06
-2.16341e-06
-1.20403e-05
-1.27652e-05
-6.60337e-06
-6.60669e-06
6.8365e-06
-6.0027e-06
-6.99548e-06
1.34798e-06
-4.88538e-06
-7.17897e-06
6.62474e-08
-2.6443e-06
-7.44572e-06
-3.50132e-06
-7.57067e-06
-4.25567e-06
-6.99218e-06
-6.00799e-06
1.34736e-06
-6.42349e-06
-6.42878e-06
-4.60068e-06
-5.22328e-06
-6.62195e-06
-6.19155e-06
-2.8683e-06
-6.90169e-06
-1.00771e-05
-7.03325e-06
-1.10345e-05
-7.17564e-06
-4.89196e-06
6.3208e-08
-6.6166e-06
-5.22987e-06
-6.19402e-06
-5.3893e-06
-5.39599e-06
-7.92491e-06
-2.97576e-06
-5.60514e-06
-1.20223e-05
-5.73487e-06
-1.30714e-05
-7.44245e-06
-2.65231e-06
-3.50482e-06
-6.89645e-06
-2.87638e-06
-1.00799e-05
-5.59856e-06
-2.98396e-06
-1.20229e-05
-3.13387e-06
-3.14202e-06
-1.62674e-05
-3.25255e-06
-1.7458e-05
-7.56742e-06
-4.26398e-06
-7.02793e-06
-1.10422e-05
-5.72815e-06
-1.30768e-05
-3.24423e-06
-1.74627e-05
-1.87995e-05
-8.96622e-06
-8.97075e-06
9.98531e-06
-8.27575e-06
-9.74405e-06
2.44641e-06
-6.73499e-06
-1.00839e-05
4.16474e-07
-3.67313e-06
-1.06476e-05
-4.51232e-06
-1.0897e-05
-5.71659e-06
-9.73954e-06
-8.28302e-06
2.44581e-06
-9.10985e-06
-9.11713e-06
-5.85725e-06
-7.45996e-06
-9.4909e-06
-8.43442e-06
-4.12926e-06
-1.01298e-05
-1.39256e-05
-1.04218e-05
-1.55008e-05
-1.00794e-05
-6.74408e-06
4.12538e-07
-9.48352e-06
-7.46911e-06
-8.43788e-06
-7.78005e-06
-7.78946e-06
-1.13298e-05
-4.36004e-06
-8.43404e-06
-1.71381e-05
-8.70569e-06
-1.89827e-05
-1.06433e-05
-3.68426e-06
-4.51634e-06
-1.01227e-05
-4.1406e-06
-1.3929e-05
-8.42485e-06
-4.37178e-06
-1.71383e-05
-4.79034e-06
-4.80215e-06
-2.35338e-05
-5.0407e-06
-2.56795e-05
-1.08926e-05
-5.72826e-06
-1.04146e-05
-1.55118e-05
-8.69632e-06
-1.89909e-05
-5.02867e-06
-2.56872e-05
-2.83094e-05
-1.34025e-05
-1.34077e-05
1.52837e-05
-1.26711e-05
-1.44857e-05
4.77073e-06
-1.0412e-05
-1.52434e-05
1.5068e-06
-5.75626e-06
-1.60562e-05
-5.44222e-06
-1.65678e-05
-7.45389e-06
-1.44806e-05
-1.26799e-05
4.77035e-06
-1.3979e-05
-1.39878e-05
-6.85671e-06
-1.15602e-05
-1.49658e-05
-1.11307e-05
-6.57879e-06
-1.60362e-05
-1.89271e-05
-1.67894e-05
-2.17037e-05
-1.52384e-05
-1.04232e-05
1.50187e-06
-1.4957e-05
-1.15712e-05
-1.11359e-05
-1.27055e-05
-1.27149e-05
-1.58321e-05
-7.43287e-06
-1.39589e-05
-2.4488e-05
-1.50749e-05
-2.79349e-05
-1.60514e-05
-5.76986e-06
-5.4469e-06
-1.60282e-05
-6.5924e-06
-1.8931e-05
-1.39487e-05
-7.44564e-06
-2.4487e-05
-8.46393e-06
-8.48086e-06
-3.44965e-05
-9.77277e-06
-3.91299e-05
-1.65637e-05
-7.46941e-06
-1.67822e-05
-2.17184e-05
-1.50647e-05
-2.79455e-05
-9.75484e-06
-3.9149e-05
-4.70255e-05
-1.79814e-05
-1.79881e-05
2.29509e-05
-1.76036e-05
-2.02625e-05
9.13347e-06
-1.49112e-05
-2.16847e-05
4.24538e-06
-8.57245e-06
-2.35538e-05
-5.49585e-06
-2.49786e-05
-8.75884e-06
-2.02559e-05
-1.76145e-05
9.13299e-06
-2.04094e-05
-2.04204e-05
-6.54529e-06
-1.78364e-05
-2.21995e-05
-1.31889e-05
-1.0436e-05
-2.57894e-05
-2.40918e-05
-2.82577e-05
-2.86832e-05
-2.16794e-05
-1.49235e-05
4.23863e-06
-2.21907e-05
-1.78495e-05
-1.31955e-05
-1.9627e-05
-1.96427e-05
-2.09525e-05
-1.21169e-05
-2.4225e-05
-3.35624e-05
-2.57163e-05
-4.23606e-05
-2.35469e-05
-8.58898e-06
-5.50085e-06
-2.57773e-05
-1.04539e-05
-2.40961e-05
-2.42082e-05
-1.21393e-05
-3.35596e-05
-1.41979e-05
-1.42183e-05
-5.45135e-05
-1.44168e-05
-6.42549e-05
-2.49704e-05
-8.77931e-06
-2.82453e-05
-2.87045e-05
-2.56956e-05
-4.23859e-05
-1.43948e-05
-6.42813e-05
-7.49429e-05
-2.60723e-05
-2.60796e-05
3.35656e-05
-2.65276e-05
-2.98294e-05
1.70798e-05
-2.32818e-05
-3.28735e-05
1.00277e-05
-1.40451e-05
-3.65217e-05
-3.13803e-06
-4.06765e-05
-8.07519e-06
-2.98225e-05
-2.65399e-05
1.7079e-05
-3.13619e-05
-3.13722e-05
-3.46306e-06
-2.80941e-05
-3.55966e-05
-1.37336e-05
-1.68964e-05
-4.08833e-05
-3.09279e-05
-4.27469e-05
-4.33208e-05
-3.28701e-05
-2.32957e-05
1.00202e-05
-3.55877e-05
-2.81102e-05
-1.37399e-05
-3.21407e-05
-3.21591e-05
-2.7837e-05
-1.84769e-05
-3.27116e-05
-5.53978e-05
-3.41306e-05
-6.92147e-05
-3.6515e-05
-1.40655e-05
-3.14104e-06
-4.08673e-05
-1.69194e-05
-3.09345e-05
-3.26957e-05
-1.84988e-05
-5.53914e-05
-1.94808e-05
-1.94997e-05
-8.09402e-05
-2.07605e-05
-9.67138e-05
-4.0672e-05
-8.09744e-06
-4.2729e-05
-4.33602e-05
-3.41147e-05
-6.92397e-05
-2.07428e-05
-9.67424e-05
-0.00011552
-3.21333e-05
-3.21441e-05
4.45898e-05
-3.27468e-05
-3.83858e-05
2.64262e-05
-2.7753e-05
-4.3365e-05
1.64334e-05
-1.60512e-05
-4.78492e-05
-1.05643e-06
-5.09747e-05
-8.90155e-06
-3.83759e-05
-3.27615e-05
2.64221e-05
-3.99596e-05
-3.99694e-05
-2.95718e-07
-3.55469e-05
-4.57985e-05
-1.57128e-05
-2.01048e-05
-4.87257e-05
-4.54936e-05
-5.18e-05
-6.24413e-05
-4.3355e-05
-2.77725e-05
1.6424e-05
-4.57953e-05
-3.55455e-05
-1.57236e-05
-3.68117e-05
-3.68209e-05
-4.57981e-05
-2.19109e-05
-3.99558e-05
-7.90685e-05
-4.28242e-05
-9.98787e-05
-4.78425e-05
-1.60722e-05
-1.06176e-06
-4.87135e-05
-2.01092e-05
-4.54998e-05
-3.99396e-05
-2.1925e-05
-7.90613e-05
-2.43635e-05
-2.43806e-05
-0.000112091
-2.63383e-05
-0.000137155
-5.09693e-05
-8.92556e-06
-5.17839e-05
-6.24763e-05
-4.28031e-05
-9.99007e-05
-2.63182e-05
-0.000137179
-0.00016714
-4.98319e-05
-4.98398e-05
6.51449e-05
-4.88466e-05
-5.41163e-05
3.76715e-05
-4.00906e-05
-6.27671e-05
2.37961e-05
-2.42877e-05
-6.84122e-05
2.57265e-06
-7.4371e-05
-1.13067e-05
-5.4108e-05
-4.88644e-05
3.76703e-05
-5.83306e-05
-5.83464e-05
8.15707e-06
-4.82534e-05
-6.69066e-05
-2.16506e-05
-2.96428e-05
-7.32132e-05
-5.93031e-05
-8.0892e-05
-8.53681e-05
-6.27596e-05
-4.01148e-05
2.37864e-05
-6.68908e-05
-4.82722e-05
-2.16666e-05
-5.59621e-05
-5.59827e-05
-6.76507e-05
-3.55953e-05
-6.19407e-05
-0.000110708
-6.98167e-05
-0.000146304
-6.84011e-05
-2.43168e-05
2.56408e-06
-7.31967e-05
-2.96662e-05
-5.93101e-05
-6.19201e-05
-3.56179e-05
-0.000110703
-4.04076e-05
-4.04269e-05
-0.000155118
-4.68021e-05
-0.000200066
-7.43599e-05
-1.13483e-05
-8.08749e-05
-8.54054e-05
-6.97941e-05
-0.000146327
-4.67803e-05
-0.000200088
-0.00025953
-6.47522e-05
-6.47641e-05
9.33982e-05
-6.52133e-05
-7.31536e-05
5.57628e-05
-5.40204e-05
-8.38085e-05
3.41486e-05
-3.35232e-05
-9.18663e-05
7.52834e-06
-0.000100919
-1.61355e-05
-7.3142e-05
-6.52341e-05
5.57625e-05
-7.73994e-05
-7.7419e-05
1.66799e-05
-6.55534e-05
-9.1197e-05
-2.6108e-05
-4.15694e-05
-0.000102319
-7.28348e-05
-0.00011469
-0.000112971
-8.37958e-05
-5.40483e-05
3.41374e-05
-9.11768e-05
-6.55806e-05
-2.6124e-05
-7.88059e-05
-7.88349e-05
-9.23837e-05
-5.06081e-05
-8.96276e-05
-0.000151596
-0.000102533
-0.000208797
-9.18524e-05
-3.3557e-05
7.5168e-06
-0.000102298
-4.16004e-05
-7.28448e-05
-8.96001e-05
-5.06399e-05
-0.000151595
-5.94941e-05
-5.95204e-05
-0.000215331
-6.87579e-05
-0.000292774
-0.000100902
-1.6199e-05
-0.000114668
-0.000113013
-0.000102501
-0.000208826
-6.87257e-05
-0.000292797
-0.000395551
-9.64874e-05
-9.64953e-05
0.00014286
-0.000103305
-0.000109566
9.42496e-05
-8.91877e-05
-0.00013026
5.95216e-05
-5.49541e-05
-0.000141081
1.89571e-05
-0.000163551
-1.51601e-05
-0.000109558
-0.000103323
9.42524e-05
-0.000121241
-0.00012126
4.00567e-05
-0.000105543
-0.000151184
-2.08824e-05
-7.04452e-05
-0.000171722
-7.72919e-05
-0.000204692
-0.000142038
-0.000130251
-8.92131e-05
5.95096e-05
-0.000151164
-0.000105575
-2.08961e-05
-0.000138095
-0.00013813
-0.000118507
-9.55406e-05
-0.000160719
-0.000205154
-0.000201288
-0.000307466
-0.000141067
-5.49881e-05
1.89444e-05
-0.0001717
-7.048e-05
-7.73066e-05
-0.000160685
-9.55814e-05
-0.000205159
-0.000115424
-0.00011546
-0.000305852
-0.000154483
-0.000454242
-0.000163543
-1.52395e-05
-0.000204673
-0.000142094
-0.000201254
-0.000307516
-0.000154439
-0.000454268
-0.000702736
-0.000121234
-0.000121246
0.000206545
-0.000132985
-0.000141872
0.0001493
-0.00011656
-0.000176136
0.000100393
-7.30972e-05
-0.000197058
4.53139e-05
-0.000235533
-1.71405e-06
-0.000141861
-0.000133005
0.000149305
-0.000164039
-0.000164061
8.44236e-05
-0.000147177
-0.000212196
-1.68461e-06
-0.000101864
-0.00024843
-7.12323e-05
-0.000307258
-0.000172009
-0.000176123
-0.000116591
0.000100386
-0.000212169
-0.000147214
-1.69738e-06
-0.000199787
-0.000199833
-0.000143252
-0.000143506
-0.000242949
-0.000266916
-0.00031227
-0.000445606
-0.000197039
-7.31418e-05
4.53058e-05
-0.000248405
-0.000101908
-7.12474e-05
-0.000242913
-0.000143565
-0.000266919
-0.000186146
-0.000186176
-0.000419392
-0.000245407
-0.000706462
-0.000235516
-1.81192e-06
-0.000307234
-0.00017206
-0.000312212
-0.000445663
-0.000245359
-0.000706482
-0.00119126
-0.000172914
-0.000172925
0.000310647
-0.000200579
-0.000207288
0.000251671
-0.000184443
-0.000280478
0.000194001
-0.000128832
-0.00031938
0.000126899
-0.000408853
5.44576e-05
-0.000207279
-0.000200596
0.000251676
-0.000256956
-0.000256977
0.00018379
-0.000239983
-0.000364143
6.5007e-05
-0.000177804
-0.000437417
-1.53744e-05
-0.000595878
-0.000162458
-0.000280469
-0.000184467
0.000194002
-0.000364113
-0.000240034
6.50038e-05
-0.000368802
-0.000368875
-0.000133831
-0.000296909
-0.000466771
-0.000309454
-0.000699141
-0.000638848
-0.000319378
-0.000128851
0.000126889
-0.000437395
-0.000177878
-1.53856e-05
-0.000466718
-0.000297007
-0.000309465
-0.000403472
-0.000403521
-0.00054589
-0.000643612
-0.00116398
-0.000408847
5.43596e-05
-0.000595867
-0.000162492
-0.000699059
-0.000638911
-0.00064352
-0.00116395
-0.00247494
-0.000204442
-0.000204456
0.000434225
-0.000240438
-0.000248166
0.000380616
-0.000227605
-0.000354734
0.000325197
-0.000163449
-0.000416168
0.000255241
-0.000572697
0.000164222
-0.000248156
-0.000240439
0.000380607
-0.000319534
-0.000319539
0.000326541
-0.000316678
-0.000490089
0.000197505
-0.000257199
-0.00061291
0.000121888
-0.00089233
-0.000100073
-0.000354721
-0.000227578
0.000325174
-0.000490075
-0.000316695
0.000197514
-0.000523139
-0.000523188
-6.76673e-05
-0.00044375
-0.000710974
-0.000290779
-0.00111287
-0.000861773
-0.000416171
-0.000163413
0.000255237
-0.000612918
-0.000257218
0.000121885
-0.000710985
-0.000443806
-0.00029078
-0.000679689
-0.000679611
-0.000608549
-0.0010749
-0.00188102
-0.000572656
0.000164177
-0.000892289
-0.000100094
-0.00111277
-0.000861798
-0.00107491
-0.00188096
-0.00462303
-0.000261786
-0.00026181
0.000606733
-0.000323532
-0.000330242
0.000580225
-0.000320193
-0.000516621
0.000555168
-0.000241629
-0.000636658
0.00050551
-0.000955081
0.000437444
-0.000330228
-0.00032355
0.000580211
-0.000450587
-0.000450595
0.000567252
-0.000479888
-0.000764609
0.000474794
-0.000415092
-0.00102837
0.000448806
-0.00168505
0.00021533
-0.000516593
-0.000320214
0.000555152
-0.000764591
-0.000479905
0.000474822
-0.000930505
-0.000930564
0.000264202
-0.000846122
-0.00138481
-1.87285e-05
-0.00277339
-0.000618814
-0.000636665
-0.000241629
0.000505508
-0.00102838
-0.000415094
0.000448788
-0.00138478
-0.000846215
-1.87292e-05
-0.00148566
-0.00148555
-0.000406922
-0.0031904
-0.000625489
-0.00058904
-0.000796098
-0.000935574
-0.000955112
0.000437425
-0.00168504
0.000215413
-0.00277323
-0.000618786
-0.00319038
-0.000625386
-0.000796031
-0.000588935
-0.000935359
-0.00205378
-0.00262386
-0.00262312
-0.00369094
-0.000269218
-0.000269246
0.000774911
-0.000334896
-0.000333408
0.000791375
-0.000347794
-0.000575608
0.000840666
-0.000284955
-0.000714033
0.000851592
-0.00126402
0.000904544
-0.000333394
-0.000334905
0.000791348
-0.000466578
-0.000466574
0.000833601
-0.000537195
-0.000896821
0.000866625
-0.000531303
-0.00119202
0.000920897
-0.00251639
0.000936119
-0.00057557
-0.000347787
0.000840636
-0.000896798
-0.000537183
0.00086666
-0.00123976
-0.00123976
0.000950097
-0.0013433
-0.00207105
0.000963856
-0.00131161
0.0010441
-0.00129068
-0.00137921
-0.00154027
-0.000714047
-0.000284907
0.000851561
-0.00119201
-0.00053129
0.000920861
-0.00207106
-0.00134325
0.000963803
-0.000655628
-0.00065562
0.000223367
0.000362416
0.000362446
0.000310928
-0.00068208
-0.000613282
-0.000953191
-0.00068203
-0.000613351
-0.000953008
-0.000487352
-0.00157775
-0.00052762
-0.00126396
0.000904566
-0.00251628
0.00093622
-0.00131151
0.00104411
-0.00129058
-0.0013792
-0.00154016
-0.00157768
-0.000487299
-0.00052754
-0.001301
-0.00130044
0.00155336
0.0015535
-0.000674383
-0.000633349
-0.000625782
-0.000625672
-0.000271157
-0.000271205
0.00094155
-0.00034253
-0.000356383
0.00102416
-0.00036399
-0.00063092
0.00115283
-0.00029117
-0.00083683
0.00126976
-0.00142667
0.00143641
-0.000356364
-0.000342563
0.00102414
-0.000507991
-0.000508006
0.00113685
-0.000589398
-0.00101366
0.00133077
-0.000580842
-0.0014148
0.00149031
-0.00282669
0.00175518
-0.000630856
-0.000363996
0.00115279
-0.00101362
-0.000589377
0.0013308
-0.00141728
-0.00141739
0.00175748
-0.00141649
-0.000683659
0.00228069
-0.000861716
-0.000538881
-0.00064816
-0.00160392
0.00315244
-0.00200881
-0.00121981
-0.00151778
-0.000836862
-0.00029107
0.00126965
-0.00141477
-0.000580868
0.00149026
-0.000683671
-0.00141651
0.00228049
-0.000861707
-0.000538823
-0.000648141
-0.000817656
-0.000817216
0.000490909
-0.000761816
-0.00249157
0.000654592
0.000873385
0.000121489
-0.00142676
0.00143648
-0.00282616
0.00175528
-0.00160421
0.00315213
-0.00200937
-0.00121986
-0.00151788
-0.00248965
-0.000762195
0.000653624
0.00087237
0.000121636
0.000860326
0.000859849
0.000384191
-0.00099627
-0.000996274
-0.000111823
-0.000181396
-0.00018144
0.00100645
-0.000200447
-0.000198232
0.00111613
-0.000198108
-0.000333526
0.00127081
-0.000146171
-0.000365401
0.00139019
-0.000641581
0.00158523
-0.000198216
-0.000200435
0.00111608
-0.000256693
-0.000256696
0.00125379
-0.000288526
-0.000453485
0.00148256
-0.000298513
-0.000476703
0.0016116
-0.00105507
0.00186927
-0.000333462
-0.000198094
0.00127078
-0.000453578
-0.000288403
0.00148262
-0.000568991
-0.000568937
0.00198834
-0.000591781
-0.000516315
0.00234309
-0.00071963
0.0032573
-0.0010281
5.96795e-05
-6.34386e-05
-0.000365444
-0.000146159
0.00139007
-0.000476707
-0.00029854
0.00161166
-0.000516399
-0.000591644
0.00234289
-0.000309208
-0.000309062
0.00289878
-0.00012358
-7.02787e-05
0.00047611
-0.00012297
-7.09531e-05
0.00047578
-0.000732242
-0.000878752
-0.000878678
-0.00138765
-0.000280449
-0.000597371
0.00100915
-0.00116016
-0.000641693
0.00158518
-0.00105473
0.00186955
-0.000719563
0.00325738
-0.0010286
5.97518e-05
-6.40227e-05
-0.000596476
-0.00028064
0.00100788
-0.00115939
0.000226914
0.000226517
-0.000179214
-0.000131269
-0.000131914
-1.10336e-05
-9.2707e-05
-9.27967e-05
0.000997371
-6.63849e-05
-0.000109073
0.00111597
-3.77332e-05
-0.000138682
0.00122736
2.59227e-05
-0.000141216
0.00132737
-0.00015751
0.00142618
-0.000109027
-6.64925e-05
0.00111597
-0.000117217
-0.000117251
0.00127016
-0.000152215
-7.36604e-05
0.00145254
-0.000184246
-7.88655e-05
0.00158128
-0.000298125
0.00182497
-0.000138535
-3.785e-05
0.00122736
-7.3477e-05
-0.00015218
0.00145249
5.76975e-05
5.75927e-05
0.00172592
0.000177351
0.000187742
0.00195683
0.00096716
0.00216931
-0.000141202
2.58355e-05
0.00132732
-7.88948e-05
-0.00018408
0.00158125
0.000187094
0.000177653
0.00195684
0.000754701
0.000756312
0.0017626
0.00168201
-0.000466055
0.00147016
0.00119793
0.000727532
-0.000301714
-0.000402733
-0.000206254
0.00181916
-0.000681234
-0.00117682
-0.00193931
-0.000157186
0.0014261
-0.000297392
0.00182476
0.000967636
0.00216901
0.001682
-0.000466166
0.00146987
0.0011978
0.000727196
-0.00030151
-0.00020701
-0.000402861
0.0018184
-0.00117689
-0.000681313
-0.00193937
0.00156971
0.00156918
-0.00598867
0.000893015
0.00148276
0.00148254
0.00235548
-2.04765e-05
-2.05635e-05
0.000920671
3.26015e-05
9.8838e-06
0.00103749
5.45882e-05
2.22569e-05
0.00112927
5.78633e-05
4.91877e-05
0.00124083
7.367e-06
0.00133885
9.98769e-06
3.25154e-05
0.00103745
3.68013e-05
3.67076e-05
0.00121652
-3.76285e-06
0.000125289
0.00139007
-2.09284e-05
2.8871e-05
0.00161876
-6.04356e-05
0.00187051
2.24594e-05
5.44848e-05
0.0011292
0.000125459
-3.82229e-06
0.00139002
0.000159808
0.000159634
0.00165722
0.00011926
1.49531e-05
0.0020113
0.000198277
0.00234496
-0.000107292
-6.44846e-05
-0.000145035
4.92713e-05
5.77587e-05
0.00124079
2.89509e-05
-2.09614e-05
0.00161871
1.49171e-05
0.000119123
0.00201139
2.28291e-05
2.27527e-05
0.000631749
0.000785847
0.000785843
0.000839404
-0.000264584
0.000124916
-0.000508352
-0.00026459
0.000124928
-0.000508274
3.37808e-05
3.77338e-05
-0.000316464
7.56517e-06
0.00133876
-6.00696e-05
0.00187031
0.000198274
0.00234483
-0.000107302
-6.44644e-05
-0.000145023
3.77201e-05
3.36749e-05
-0.000316534
0.00125289
-5.13019e-05
-5.13095e-05
1.07073e-05
1.06805e-05
-0.00117167
5.78342e-05
5.77435e-05
0.000803605
0.00011183
0.000124507
0.000924317
0.000118429
0.000178043
0.000996145
0.000117214
0.000261627
0.0011147
0.000339972
0.0011982
0.000124538
0.000111751
0.000924318
0.000185712
0.000185719
0.00109414
0.000187876
0.000306436
0.00125952
0.00012269
0.000484647
0.00146093
0.000640229
0.00169233
0.000178153
0.000118313
0.000996159
0.000306519
0.000187885
0.00125949
0.000377578
0.000377463
0.00151514
0.000402243
5.29418e-05
0.00193549
-0.000102716
0.000311135
0.000274428
9.03092e-05
0.00228091
-0.000121083
0.000583983
0.000550311
0.00026169
0.000117117
0.00111472
0.00048468
0.000122686
0.00146092
5.29516e-05
0.000402147
0.00193552
-0.0001027
0.00031116
0.000274458
4.68481e-05
4.68562e-05
0.000643938
-5.87928e-05
0.000471163
-3.09607e-05
-8.573e-05
-7.81378e-05
-0.000150828
9.26911e-06
1.43267e-05
0.000340146
0.00119819
0.000640413
0.00169221
9.02919e-05
0.0022809
-0.000121067
0.000583965
0.000550297
-5.88355e-05
0.000471144
-3.09701e-05
-8.57196e-05
-7.81272e-05
-0.000150818
9.27663e-06
1.43412e-05
0.000405812
0.000224255
0.000224264
-0.000357261
-0.000357249
-0.000139822
0.00013186
0.00013177
0.000642588
0.000220639
0.000287571
0.000726805
0.00024595
0.000451873
0.000752835
0.000216852
0.000732157
0.000823319
0.00102451
0.000848789
0.000287635
0.000220544
0.000726824
0.000430279
0.000430238
0.000808824
0.000480047
0.000776543
0.000885078
0.0003587
0.00138794
0.000926494
0.0020717
0.00100247
0.00045199
0.000245849
0.000752865
0.000776636
0.000480024
0.00088506
0.00103773
0.00103762
0.00099297
0.000949896
0.00226822
0.00114304
0.000952873
0.00125045
0.00088332
0.00102186
0.0011901
0.000732238
0.000216768
0.000823356
0.00138801
0.000358679
0.000926489
0.00226829
0.000949789
0.00114307
0.000534109
0.000534134
0.00103002
0.000881316
0.000513863
0.00111918
0.0008814
0.00051383
0.00111914
-0.000501492
-0.000574232
-0.000574221
-0.000940533
0.000350036
0.00137651
7.0412e-05
-0.000309973
0.00102464
0.000848837
0.00207185
0.00100241
0.000952884
0.00125047
0.000883328
0.00102188
0.0011901
0.00137655
0.000350028