/*--------------------------------*- C++ -*----------------------------------*\
| =========                 |                                                 |
| \\      /  F ield         | OpenFOAM: The Open Source CFD Toolbox           |
|  \\    /   O peration     | Version:  5.x                                   |
|   \\  /    A nd           | Web:      www.OpenFOAM.org                      |
|    \\/     M anipulation  |                                                 |
\*---------------------------------------------------------------------------*/
FoamFile
{
    version     2.0;
    format      ascii;
    class       volScalarField;
    location    "0.072";
    object      phiIB;
}
// * * * * * * * * * * * * * * * * * * * * * * * * * * * * * * * * * * * * * //

dimensions      [0 2 -1 0 0 0 0];

internalField   nonuniform List<scalar> 
1539
(
-0.000220208
-0.000220177
-0.000220195
-0.000220169
-0.000220174
-0.000220176
-0.000220102
-0.000220103
-0.000220074
-0.000220078
-0.000220195
-0.000220103
-0.000220094
-0.000220063
-0.000220066
-0.000220168
-0.000220074
-0.000220063
-0.000220029
-0.000220031
-0.000220173
-0.000220077
-0.000220066
-0.000220031
-0.000220033
-0.000440698
-0.000440661
-0.000440644
-0.000440622
-0.000440611
-0.000440661
-0.00044063
-0.00044061
-0.000440591
-0.000440582
-0.000440643
-0.00044061
-0.000440584
-0.000440565
-0.000440556
-0.000440621
-0.000440591
-0.000440565
-0.000440545
-0.000440537
-0.00044061
-0.000440581
-0.000440556
-0.000440536
-0.000440528
-0.00102883
-0.00102871
-0.00102866
-0.00102861
-0.00102859
-0.00102871
-0.00102859
-0.00102854
-0.00102848
-0.00102847
-0.00102866
-0.00102854
-0.00102849
-0.00102843
-0.00102841
-0.0010286
-0.00102848
-0.00102843
-0.00102837
-0.00102835
-0.00102859
-0.00102846
-0.00102841
-0.00102835
-0.00102834
-0.00133713
-0.00133701
-0.00133694
-0.00133687
-0.00133685
-0.00133701
-0.00133689
-0.00133682
-0.00133676
-0.00133673
-0.00133694
-0.00133682
-0.00133675
-0.00133669
-0.00133666
-0.00133687
-0.00133676
-0.00133669
-0.00133662
-0.0013366
-0.00133685
-0.00133673
-0.00133666
-0.0013366
-0.00133657
-0.00188588
-0.0018857
-0.0018856
-0.00188551
-0.00188548
-0.0018857
-0.00188551
-0.00188541
-0.00188532
-0.00188528
-0.0018856
-0.00188541
-0.00188532
-0.00188522
-0.00188518
-0.00188551
-0.00188531
-0.00188522
-0.00188512
-0.00188508
-0.00188548
-0.00188528
-0.00188518
-0.00188508
-0.00188504
-0.00223462
-0.00223439
-0.00223427
-0.00223415
-0.0022341
-0.00223439
-0.00223416
-0.00223403
-0.00223391
-0.00223386
-0.00223426
-0.00223403
-0.0022339
-0.00223377
-0.00223373
-0.00223414
-0.0022339
-0.00223377
-0.00223364
-0.0022336
-0.0022341
-0.00223386
-0.00223373
-0.0022336
-0.00223355
-0.00274774
-0.00274742
-0.00274725
-0.00274708
-0.00274703
-0.00274742
-0.00274708
-0.00274691
-0.00274674
-0.00274668
-0.00274725
-0.00274691
-0.00274673
-0.00274656
-0.0027465
-0.00274708
-0.00274674
-0.00274656
-0.00274638
-0.00274632
-0.00274703
-0.00274668
-0.0027465
-0.00274632
-0.00274625
-0.00312609
-0.00312566
-0.00312542
-0.0031252
-0.00312513
-0.00312565
-0.0031252
-0.00312496
-0.00312474
-0.00312466
-0.00312542
-0.00312496
-0.00312472
-0.00312449
-0.00312441
-0.0031252
-0.00312473
-0.00312449
-0.00312425
-0.00312417
-0.00312513
-0.00312465
-0.00312441
-0.00312416
-0.00312408
-0.00361193
-0.00361132
-0.00361101
-0.00361072
-0.00361063
-0.00361132
-0.00361069
-0.00361037
-0.00361006
-0.00360996
-0.00361101
-0.00361037
-0.00361005
-0.00360973
-0.00360963
-0.00361071
-0.00361006
-0.00360973
-0.0036094
-0.00360929
-0.00361062
-0.00360996
-0.00360962
-0.00360929
-0.00360919
-0.00401024
-0.00400939
-0.00400895
-0.00400854
-0.00400841
-0.00400939
-0.00400851
-0.00400806
-0.00400763
-0.00400749
-0.00400895
-0.00400806
-0.0040076
-0.00400716
-0.00400702
-0.00400854
-0.00400763
-0.00400716
-0.00400671
-0.00400656
-0.00400841
-0.00400749
-0.00400702
-0.00400656
-0.00400641
-0.00447541
-0.00447427
-0.00447369
-0.00447315
-0.00447299
-0.00447426
-0.00447306
-0.00447246
-0.00447188
-0.00447171
-0.00447369
-0.00447246
-0.00447185
-0.00447126
-0.00447108
-0.00447314
-0.00447188
-0.00447125
-0.00447064
-0.00447046
-0.00447298
-0.00447171
-0.00447108
-0.00447045
-0.00447027
-0.00488478
-0.00488315
-0.00488235
-0.00488159
-0.00488137
-0.00488315
-0.00488145
-0.00488061
-0.00487981
-0.00487956
-0.00488234
-0.00488061
-0.00487974
-0.00487891
-0.00487865
-0.00488158
-0.0048798
-0.00487891
-0.00487806
-0.00487778
-0.00488136
-0.00487956
-0.00487865
-0.00487778
-0.00487749
-0.00533253
-0.00533041
-0.00532941
-0.00532847
-0.00532823
-0.00533041
-0.00532814
-0.00532708
-0.00532605
-0.00532578
-0.0053294
-0.00532708
-0.00532598
-0.00532491
-0.00532461
-0.00532847
-0.00532605
-0.0053249
-0.00532376
-0.00532344
-0.00532822
-0.00532577
-0.0053246
-0.00532343
-0.0053231
-0.00574339
-0.00574041
-0.00573916
-0.00573792
-0.00573764
-0.00574041
-0.00573728
-0.00573593
-0.00573461
-0.00573425
-0.00573915
-0.00573593
-0.00573451
-0.00573311
-0.00573271
-0.00573791
-0.0057346
-0.0057331
-0.00573164
-0.00573117
-0.00573762
-0.00573424
-0.0057327
-0.00573116
-0.00573062
-0.00617108
-0.00616753
-0.00616634
-0.00616512
-0.00616494
-0.00616752
-0.00616371
-0.00616249
-0.00616113
-0.00616092
-0.00616633
-0.00616249
-0.00616131
-0.00615992
-0.00615965
-0.00616511
-0.00616112
-0.00615992
-0.00615826
-0.00615793
-0.00616492
-0.00616091
-0.00615964
-0.00615793
-0.00615778
-0.00656654
-0.006562
-0.00656115
-0.00655991
-0.00655999
-0.00656199
-0.0065573
-0.00655659
-0.00655556
-0.00655565
-0.00656113
-0.00655659
-0.00655636
-0.00655553
-0.00655578
-0.0065599
-0.00655555
-0.00655553
-0.00655523
-0.00655641
-0.00655997
-0.00655564
-0.00655578
-0.00655641
-0.00655988
-0.00695513
-0.00695018
-0.00695049
-0.00694974
-0.00695047
-0.00695017
-0.00694539
-0.0069462
-0.00694588
-0.00694731
-0.00695047
-0.00694619
-0.0069472
-0.00694837
-0.0069521
-0.00694973
-0.00694587
-0.00694837
-0.0069559
-0.00696182
-0.00695045
-0.00694729
-0.00695209
-0.00696181
-0.00696714
-0.00729532
-0.00728523
-0.00728499
-0.00728427
-0.00728611
-0.00728523
-0.00727821
-0.00727922
-0.00728064
-0.00728363
-0.00728497
-0.00727921
-0.00728077
-0.00728515
-0.00728811
-0.00728425
-0.00728062
-0.00728515
-0.00728761
-0.00728954
-0.00728608
-0.0072836
-0.00728809
-0.00728953
-0.00729061
-0.00759937
-0.00758053
-0.00757388
-0.00756987
-0.00756947
-0.00758052
-0.00756596
-0.00756309
-0.00756119
-0.00756112
-0.00757384
-0.00756306
-0.00756246
-0.00755879
-0.0075578
-0.00756982
-0.00756115
-0.00755877
-0.00755379
-0.00755163
-0.00756939
-0.00756105
-0.00755776
-0.00755161
-0.00754843
-0.00782499
-0.00779933
-0.00778225
-0.00776714
-0.00776239
-0.00779932
-0.00777003
-0.00775623
-0.00774401
-0.00773773
-0.00778219
-0.00775618
-0.00774013
-0.00772463
-0.0077156
-0.00776704
-0.00774392
-0.00772459
-0.00770696
-0.00769534
-0.00776225
-0.0077376
-0.0077155
-0.00769529
-0.00768057
-0.00798508
-0.00795536
-0.00793585
-0.00791816
-0.00791348
-0.00795534
-0.00792066
-0.00789602
-0.00787655
-0.00786629
-0.00793576
-0.00789596
-0.00786646
-0.00784244
-0.00782639
-0.00791803
-0.00787643
-0.00784237
-0.00781588
-0.0077937
-0.00791329
-0.00786611
-0.00782625
-0.00779364
-0.00776362
-0.00805972
-0.00802182
-0.00800151
-0.00798593
-0.00797624
-0.00802179
-0.00797895
-0.00794342
-0.0079171
-0.00789951
-0.00800139
-0.00794334
-0.00789433
-0.00786049
-0.00783104
-0.00798577
-0.00791695
-0.0078604
-0.00782371
-0.00778492
-0.00797596
-0.00789927
-0.00783084
-0.00778485
-0.00774255
-0.0081128
-0.00806998
-0.00805269
-0.00803982
-0.00803143
-0.00806994
-0.00802304
-0.00798934
-0.00797123
-0.00794903
-0.00805256
-0.00798925
-0.00793868
-0.00790808
-0.00786759
-0.00803964
-0.00797107
-0.00790798
-0.00788433
-0.00782391
-0.00803115
-0.00794882
-0.00786745
-0.00782393
-0.00772491
-0.00810496
-0.00805168
-0.00803416
-0.00802508
-0.00802625
-0.00805163
-0.00799406
-0.00796211
-0.00794075
-0.00791869
-0.00803399
-0.007962
-0.00791656
-0.00788362
-0.00786253
-0.00802483
-0.00794053
-0.00788347
-0.00784863
-0.00780169
-0.00802593
-0.0079184
-0.00786231
-0.00780172
-0.00773381
-0.00812207
-0.00806403
-0.00803963
-0.00802603
-0.00800978
-0.00806399
-0.00800757
-0.0079577
-0.00795371
-0.00790819
-0.00803945
-0.00795758
-0.0078844
-0.00785879
-0.00774296
-0.00802578
-0.00795346
-0.00785859
-0.00788846
-0.00768614
-0.00800953
-0.00790795
-0.00774281
-0.00768621
-0.00725488
-0.00810776
-0.00803343
-0.00802231
-0.0080054
-0.00802119
-0.00803337
-0.00794724
-0.00790419
-0.00787666
-0.00783975
-0.00802209
-0.00790401
-0.00788714
-0.00786031
-0.00784497
-0.00800505
-0.00787623
-0.00786002
-0.00785463
-0.00780252
-0.00802085
-0.00783937
-0.00784472
-0.00780276
-0.00748801
-0.00805649
-0.00798171
-0.00794264
-0.00792225
-0.00789603
-0.00798167
-0.00790821
-0.00782473
-0.00780849
-0.00772353
-0.00794245
-0.00782452
-0.00767621
-0.00759274
-0.00742128
-0.0079218
-0.00780792
-0.00759226
-0.00760752
-0.00709586
-0.00789563
-0.0077228
-0.00742035
-0.00709588
-0.00665399
-0.00803392
-0.00794581
-0.00795327
-0.00792225
-0.00797187
-0.00794574
-0.00785264
-0.00780428
-0.00776186
-0.00776928
-0.00795308
-0.00780408
-0.00777826
-0.00766991
-0.00777292
-0.00792185
-0.0077613
-0.00766993
-0.0076147
-0.00743966
-0.00797168
-0.00776867
-0.00777317
-0.00743987
-0.00724912
-0.00789591
-0.00785169
-0.00785178
-0.00788132
-0.00788812
-0.00785162
-0.00779232
-0.00779894
-0.00777791
-0.0077344
-0.00785161
-0.00779868
-0.00775138
-0.00791117
-0.0079519
-0.00788076
-0.00777701
-0.00791045
-0.00800302
-0.00773918
-0.00788755
-0.00773263
-0.00795096
-0.00773987
-0.00812997
-0.00785728
-0.00779104
-0.00781828
-0.00776923
-0.0078505
-0.00779088
-0.00772191
-0.00768652
-0.00763316
-0.00758657
-0.00781797
-0.00768644
-0.00767206
-0.00748986
-0.00752906
-0.00776857
-0.00763262
-0.00748923
-0.00728692
-0.0073614
-0.00784968
-0.00758608
-0.0075286
-0.00736234
-0.00736697
-0.00756292
-0.00753546
-0.00751295
-0.00751338
-0.00747709
-0.00753531
-0.00750561
-0.00749042
-0.00747057
-0.0075268
-0.00751268
-0.00749023
-0.00735137
-0.0073738
-0.00700283
-0.00751285
-0.00746988
-0.00737338
-0.00722652
-0.00783553
-0.00747636
-0.00752559
-0.00700218
-0.00783459
-0.00729741
-0.00757727
-0.00756972
-0.00759477
-0.00758961
-0.00763853
-0.00756961
-0.00757331
-0.00759614
-0.00759747
-0.00765833
-0.00759458
-0.00759604
-0.00764998
-0.00766052
-0.00779486
-0.00758916
-0.00759704
-0.00766018
-0.00757506
-0.00773101
-0.00763781
-0.00765766
-0.00779443
-0.00773064
-0.00769832
-0.00713644
-0.00715131
-0.00716437
-0.00717188
-0.00718834
-0.00715123
-0.00717086
-0.00718448
-0.00721634
-0.00721668
-0.00716419
-0.00718435
-0.00720389
-0.00721589
-0.00728352
-0.00717148
-0.00721597
-0.00721565
-0.00735921
-0.00729587
-0.0071877
-0.00721602
-0.00728302
-0.00729559
-0.00741493
-0.00718024
-0.00719217
-0.00721949
-0.00722397
-0.00725243
-0.00719208
-0.00719968
-0.00720711
-0.00723471
-0.0072038
-0.00721929
-0.00720699
-0.00724979
-0.00724615
-0.00721525
-0.00722361
-0.00723442
-0.00724597
-0.00742469
-0.00737907
-0.00725184
-0.00720326
-0.0072148
-0.00737874
-0.00695436
-0.00639626
-0.006421
-0.00645859
-0.0064859
-0.00650341
-0.00642092
-0.00644754
-0.00648192
-0.00651667
-0.00650399
-0.00645843
-0.00648183
-0.00651138
-0.00651406
-0.00647436
-0.0064856
-0.00651646
-0.00651394
-0.00656632
-0.00657157
-0.00650291
-0.00650357
-0.00647405
-0.00657135
-0.00653223
-0.0060211
-0.00602601
-0.00602916
-0.00603233
-0.00603041
-0.00602594
-0.00602149
-0.00601411
-0.00601778
-0.00600053
-0.00602904
-0.00601405
-0.00600466
-0.00601107
-0.00600678
-0.00603215
-0.00601767
-0.00601103
-0.00607318
-0.00608125
-0.0060301
-0.00600028
-0.00600662
-0.00608114
-0.00599908
-0.00457266
-0.00456647
-0.00455213
-0.00455116
-0.00454909
-0.00456642
-0.00455543
-0.00454414
-0.00455958
-0.00456203
-0.00455206
-0.0045441
-0.00455877
-0.00458196
-0.00458387
-0.00455105
-0.00455951
-0.00458192
-0.00462714
-0.00464155
-0.00454888
-0.00456189
-0.00458376
-0.00464147
-0.00462799
-0.00369117
-0.00369808
-0.00370595
-0.00372229
-0.00373244
-0.00369803
-0.0037057
-0.00371694
-0.00374566
-0.00375705
-0.00370588
-0.0037169
-0.00374323
-0.00380679
-0.00385412
-0.00372219
-0.0037456
-0.00380674
-0.00390625
-0.00396374
-0.00373229
-0.00375696
-0.00385401
-0.00396366
-0.00402068
-0.00161256
-0.0016139
-0.00162126
-0.00163105
-0.0016391
-0.00161387
-0.00161227
-0.00162151
-0.00163912
-0.00166406
-0.00162121
-0.00162148
-0.0016575
-0.00173118
-0.00178054
-0.00163098
-0.00163906
-0.0017311
-0.00178796
-0.00178869
-0.00163898
-0.00166394
-0.00178046
-0.00178864
-0.00176728
-0.000838638
-0.000844319
-0.000848162
-0.000857439
-0.000862939
-0.000844293
-0.000857093
-0.000865025
-0.000881558
-0.000891376
-0.000848124
-0.000865009
-0.000884084
-0.000916131
-0.000943787
-0.000857389
-0.000881525
-0.000916113
-0.000997921
-0.00106619
-0.000862869
-0.00089132
-0.000943763
-0.00106618
-0.00115589
-0.00626821
-0.0062678
-0.00408222
-0.00699189
-0.00497993
-0.00497961
-0.00628446
-0.00867695
-0.00867648
-0.0076947
-0.00776097
-0.00879661
-0.00879619
-0.00934893
-0.00822789
-0.0082275
-0.00848361
-0.00666294
-0.00698571
-0.00698547
-0.00728687
-0.00736628
-0.00736162
-0.0068714
-0.00653103
-0.0060174
-0.00601666
-0.00588416
-0.00733547
-0.00763104
-0.00787546
-0.00689571
-0.00716779
-0.00752721
-0.00753067
-0.00763089
-0.00733499
-0.00787506
-0.00689542
-0.00752705
-0.00716729
-0.00753027
-0.00975817
-0.00975234
-0.0091247
-0.0066694
-0.00727108
-0.00727094
-0.00871102
-0.00789206
-0.00831974
-0.00831958
-0.00846353
-0.00822
-0.0081969
-0.00819675
-0.00821543
-0.00800123
-0.00843347
-0.00751299
-0.0083124
-0.00730065
-0.00841763
-0.00821534
-0.00800102
-0.00843321
-0.0075126
-0.00831228
-0.00730043
-0.00841737
-0.00798802
-0.00798786
-0.00720621
-0.00823305
-0.00864721
-0.00846159
-0.00845869
-0.00798336
-0.00836817
-0.00861982
-0.0071332
-0.00725848
-0.00824392
-0.00852317
-0.00836859
-0.0079835
-0.00861939
-0.00713082
-0.00824378
-0.00725374
-0.00852282
-0.00836917
-0.00794939
-0.00794929
-0.00675235
-0.00826293
-0.00769406
-0.00769394
-0.00684028
-0.00881211
-0.00821086
-0.00860082
-0.00836133
-0.00819695
-0.00873277
-0.00683918
-0.00881488
-0.00821101
-0.0086
-0.00835621
-0.0081944
-0.00873087
-0.00775506
-0.00775433
-0.00882702
-0.00870444
-0.00767248
-0.00825716
-0.0082554
-0.00932572
-0.00907053
-0.00917872
-0.00917854
-0.00888426
-0.00915235
-0.00915217
-0.00793096
-0.00776566
-0.00823866
-0.0076568
-0.00765629
-0.00792268
-0.0084584
-0.00776554
-0.00793043
-0.0082383
-0.00765656
-0.00792256
-0.00765584
-0.00845795
-0.00920586
-0.0096408
-0.00852112
-0.00917118
-0.00947305
-0.00895229
-0.00914738
-0.00920573
-0.00964034
-0.00852087
-0.00917086
-0.00947279
-0.00895216
-0.00914703
-0.00697081
-0.00697034
9.02643e-05
-0.0083038
-0.0106199
-0.01062
-0.00873059
-0.00911799
-0.00937725
-0.00937497
-0.00903056
-0.00956786
-0.0091322
-0.00912978
-0.00931791
-0.00964602
-0.00979794
-0.00893867
-0.00968443
-0.00874284
-0.00967827
-0.00931755
-0.00964528
-0.00979408
-0.00893777
-0.00968392
-0.00874247
-0.00967637
-0.00970912
-0.00812468
-0.00841856
-0.00841843
-0.0085626
-0.00856246
-0.00912733
-0.00954147
-0.00873616
-0.00873482
-0.00820322
-0.0101104
-0.00880705
-0.0088066
-0.0090318
-0.00795705
-0.00795691
-0.00858319
-0.00831069
-0.00878474
-0.00878457
-0.00936207
-0.0083255
-0.00851904
-0.0104402
-0.00907849
-0.0101598
-0.00918213
-0.00936193
-0.00832513
-0.00851877
-0.0104399
-0.00907842
-0.0101595
-0.00918179
-0.00822414
-0.00770142
-0.00837515
-0.0082284
-0.00753996
-0.00802453
-0.00811612
-0.00822371
-0.00837486
-0.00770095
-0.0082281
-0.00753967
-0.00802422
-0.00811562
-0.00917139
-0.00917039
-0.00958358
-0.00897062
-0.0074634
-0.00819786
-0.00819705
-0.00738199
-0.00738864
-0.00705015
-0.00785005
-0.00814333
-0.00796435
-0.00873052
-0.00738765
-0.00738193
-0.00704606
-0.00784795
-0.00796449
-0.00814162
-0.00873189
-0.00853906
-0.00917006
-0.00906336
-0.0075494
-0.00844252
-0.00825727
-0.00778645
-0.00853944
-0.00917299
-0.00906525
-0.00754916
-0.00843941
-0.00825626
-0.00778622
-0.00982998
-0.00997132
-0.0102059
-0.01062
-0.00832077
-0.00797928
-0.00963081
-0.00983033
-0.00997049
-0.0102062
-0.0106194
-0.00831918
-0.00797886
-0.00962963
-0.0100132
-0.00853242
-0.00853223
-0.00818043
-0.00940363
-0.0086831
-0.00868297
-0.00902834
-0.00902769
-0.0108398
-0.00969412
-0.00769273
-0.00884992
-0.0088496
-0.0076474
-0.00764726
-0.00768828
-0.00760412
-0.00760758
-0.00760748
-0.00760345
-0.00480082
-0.00448028
-0.00647823
-0.00647813
-0.00668605
-0.00426692
-0.00426685
-0.00770997
-0.00650528
-0.00546852
-0.00733276
-0.00702738
-0.00671169
-0.00733813
-0.00650466
-0.00770913
-0.00546801
-0.00733279
-0.00671172
-0.00702739
-0.00733784
-0.00454433
-0.00512344
-0.00577415
-0.00721108
-0.00620254
-0.00708841
-0.00389718
-0.00454419
-0.00512329
-0.00577389
-0.00721091
-0.00620242
-0.00708827
-0.00389692
-0.00759864
-0.0083384
-0.00828836
-0.00758297
-0.00824103
-0.00789187
-0.0079968
-0.0083381
-0.00759823
-0.00828794
-0.00758266
-0.00824073
-0.00789154
-0.00799632
-0.00592218
-0.00591969
-0.00486207
-0.00675318
-0.00553917
-0.00553609
-0.000481668
-0.00652509
-0.00110958
-0.00110923
-0.00472664
-0.00400672
-0.00575474
-0.00575399
-0.00782872
-0.00740221
-0.00452245
-0.00602892
-0.00553792
-0.00698273
-0.00833196
-0.00782533
-0.0073994
-0.00452029
-0.00603094
-0.00550692
-0.00699025
-0.00832849
-0.00858918
-0.00809442
-0.00787163
-0.00936558
-0.00912295
-0.00756231
-0.00761896
-0.00859002
-0.00809394
-0.00787144
-0.00936172
-0.00912123
-0.00756157
-0.00761582
-0.00456324
-0.00705644
-0.0072359
-0.0072358
-0.00657
-0.0065699
-0.00577731
-0.00681198
-0.00722161
-0.0072258
-0.00742261
-0.00596553
-0.00799802
-0.00799962
-0.0075966
-0.00793052
-0.00782379
-0.00775198
-0.00816335
-0.00775653
-0.00761645
-0.00759646
-0.00793031
-0.0078237
-0.00775174
-0.00816314
-0.00775631
-0.00761632
-0.00759517
-0.00759523
-0.00741098
-0.00771157
-0.0077519
-0.00775117
-0.00756405
-0.00429138
-0.00452653
-0.00452639
-0.00342177
-0.00539915
-0.00374193
-0.00374191
-0.00857948
-0.00754925
-0.00774902
-0.00806725
-0.00839285
-0.00792291
-0.00769341
-0.00857947
-0.00754874
-0.00774808
-0.00806649
-0.00839137
-0.00792183
-0.0076931
-0.00369195
-0.00677927
-0.00458034
-0.00536395
-0.00525342
-0.00579987
-0.00303557
-0.0036918
-0.00677877
-0.00457992
-0.00536372
-0.00525305
-0.00579958
-0.00303533
-0.0061691
-0.00648646
-0.00702587
-0.00618287
-0.00673789
-0.00690238
-0.00665044
-0.00616906
-0.0070256
-0.00648623
-0.00618281
-0.00673772
-0.00690241
-0.00665044
-0.00233299
-0.00233306
-0.00224359
-0.0047807
-0.00229637
-0.00364863
-0.00364314
-0.00698141
-0.00727156
-0.00712194
-0.00758518
-0.00749934
-0.00693247
-0.00654205
-0.00727101
-0.00698173
-0.00712072
-0.00758403
-0.0069314
-0.00750021
-0.00653777
-0.00684715
-0.00828026
-0.00781131
-0.00754647
-0.00724405
-0.00725959
-0.00736692
-0.00683759
-0.00827895
-0.00781029
-0.00754688
-0.00724262
-0.00725793
-0.00736643
-0.00582466
-0.00284236
-0.00365814
-0.00583629
-0.00643389
-0.00647607
-0.00547428
-0.00584687
-0.00282492
-0.0036548
-0.00585557
-0.00642571
-0.00646901
-0.00546973
-0.00470641
-0.00660647
-0.00660635
-0.00672436
-0.00551783
-0.00602275
-0.00602262
-0.00652247
-0.00651928
-0.00486873
-0.00679323
-0.00634063
-0.00682993
-0.00681891
)
;

boundaryField
{
    inlet
    {
        type            fixedValue;
        value           uniform 0;
    }
    wall
    {
        type            zeroGradient;
    }
    outlet
    {
        type            fixedValue;
        value           uniform 0;
    }
    procBoundary0to1
    {
        type            processor;
        value           nonuniform List<scalar> 
317
(
-0.000220169
-0.000220072
-0.00022006
-0.000220024
-0.000220025
-0.000440603
-0.000440576
-0.00044055
-0.000440531
-0.000440521
-0.00102858
-0.00102845
-0.0010284
-0.00102834
-0.00102832
-0.00133684
-0.00133672
-0.00133665
-0.00133658
-0.00133655
-0.00188546
-0.00188527
-0.00188517
-0.00188506
-0.00188502
-0.00223409
-0.00223384
-0.00223371
-0.00223357
-0.00223352
-0.00274701
-0.00274666
-0.00274648
-0.00274629
-0.00274622
-0.00312511
-0.00312463
-0.00312438
-0.00312413
-0.00312404
-0.0036106
-0.00360993
-0.00360959
-0.00360925
-0.00360914
-0.00400839
-0.00400746
-0.00400698
-0.00400651
-0.00400635
-0.00447297
-0.00447167
-0.00447104
-0.0044704
-0.0044702
-0.00488134
-0.00487952
-0.0048786
-0.00487771
-0.00487741
-0.0053282
-0.00532573
-0.00532455
-0.00532336
-0.005323
-0.0057376
-0.00573419
-0.00573263
-0.00573106
-0.0057305
-0.00616492
-0.00616086
-0.00615958
-0.00615783
-0.00615766
-0.00655997
-0.00655556
-0.00655569
-0.00655634
-0.00655983
-0.00695047
-0.00694726
-0.00695205
-0.00696173
-0.00696702
-0.00728607
-0.00728352
-0.00728797
-0.00728928
-0.00729028
-0.00756942
-0.00756087
-0.00755751
-0.0075512
-0.00754798
-0.00776234
-0.00773745
-0.00771521
-0.0076947
-0.00767976
-0.00791358
-0.00786607
-0.00782612
-0.00779309
-0.00776308
-0.00797641
-0.00789916
-0.00783043
-0.00778386
-0.00774128
-0.0080319
-0.00794897
-0.00786756
-0.00782343
-0.00772495
-0.00802674
-0.00791833
-0.00786174
-0.00780004
-0.00773134
-0.00801086
-0.00790875
-0.00774342
-0.00768667
-0.00725705
-0.00802205
-0.00783939
-0.00784307
-0.0077991
-0.00748562
-0.00789786
-0.00772557
-0.00742248
-0.00698824
-0.00592656
-0.00797219
-0.00777116
-0.00776663
-0.00739446
-0.00696088
-0.00788967
-0.0077357
-0.0079497
-0.00797766
-0.00975449
-0.00785209
-0.00758775
-0.0075253
-0.00736017
-0.00736053
-0.00748065
-0.00752751
-0.00700549
-0.00770554
-0.00627435
-0.00764186
-0.00765814
-0.00780059
-0.00792705
-0.00867077
-0.00719331
-0.00721942
-0.00728396
-0.00732311
-0.00823356
-0.00725704
-0.00720064
-0.00722516
-0.00735934
-0.00698021
-0.00650475
-0.00650571
-0.00647164
-0.00659352
-0.00652208
-0.00602994
-0.00599736
-0.00601178
-0.00608009
-0.00601051
-0.00454973
-0.00456173
-0.00458382
-0.00464666
-0.00462672
-0.00373418
-0.003755
-0.00384933
-0.00396493
-0.00402381
-0.00164403
-0.00166837
-0.00177506
-0.00178856
-0.00176847
-0.000866582
-0.000899807
-0.00096057
-0.00106851
-0.00115371
-0.00409313
-0.00628777
-0.00498432
-0.00769337
-0.00934249
-0.00880435
-0.00847322
-0.00726585
-0.00703485
-0.00686389
-0.00589412
-0.00600543
-0.00787251
-0.00754564
-0.00716943
-0.00911888
-0.00870276
-0.00727023
-0.00846038
-0.0081927
-0.00831365
-0.00841392
-0.00841231
-0.00749914
-0.00798445
-0.0084561
-0.00863845
-0.00861945
-0.00852277
-0.00724995
-0.00836089
-0.00872819
-0.00881298
-0.00917295
-0.00914804
-0.00906827
-0.00822844
-0.00845127
-0.00765398
-0.00963435
-0.00913503
-0.00915865
4.63937e-05
-0.00872771
-0.0106203
-0.00902115
-0.00912336
-0.00937178
-0.00979403
-0.00967402
-0.00893497
-0.00858239
-0.00878461
-0.0079549
-0.00851242
-0.00918451
-0.0104474
-0.00770224
-0.00811444
-0.00821455
-0.00916775
-0.00819616
-0.0074649
-0.00704532
-0.0087294
-0.00813756
-0.00916963
-0.00778636
-0.00844374
-0.00831916
-0.00962692
-0.00996782
-0.00648556
-0.00428972
-0.00448985
-0.00547485
-0.00734257
-0.00702042
-0.0051304
-0.00392124
-0.00722468
-0.00828658
-0.00799955
-0.00759304
-0.00486359
-0.00053013
-0.0055388
-0.00473921
-0.00575684
-0.00111528
-0.00452513
-0.00832948
-0.0060338
-0.00809559
-0.00762351
-0.00936546
-0.0034422
-0.00379551
-0.00455489
-0.00459213
-0.00305047
-0.00537134
-0.00648494
-0.0066495
-0.00617057
-0.00233505
-0.00366033
-0.00233285
-0.00712108
-0.00653813
-0.00749637
-0.0082895
-0.00736779
-0.00724691
-0.00643297
-0.00548757
-0.00284764
)
;
    }
    procBoundary0to2
    {
        type            processor;
        value           nonuniform List<scalar> 
317
(
-0.000220168
-0.000220071
-0.00022006
-0.000220024
-0.000220025
-0.000440602
-0.000440575
-0.00044055
-0.00044053
-0.000440521
-0.00102858
-0.00102845
-0.0010284
-0.00102834
-0.00102832
-0.00133683
-0.00133672
-0.00133665
-0.00133658
-0.00133655
-0.00188546
-0.00188526
-0.00188516
-0.00188506
-0.00188502
-0.00223408
-0.00223384
-0.0022337
-0.00223357
-0.00223352
-0.00274701
-0.00274665
-0.00274647
-0.00274629
-0.00274622
-0.0031251
-0.00312463
-0.00312438
-0.00312413
-0.00312404
-0.00361059
-0.00360992
-0.00360959
-0.00360925
-0.00360914
-0.00400838
-0.00400745
-0.00400697
-0.00400651
-0.00400635
-0.00447296
-0.00447166
-0.00447103
-0.00447039
-0.0044702
-0.00488133
-0.00487951
-0.00487859
-0.00487771
-0.00487741
-0.00532818
-0.00532571
-0.00532454
-0.00532335
-0.005323
-0.00573759
-0.00573418
-0.00573262
-0.00573106
-0.0057305
-0.0061649
-0.00616085
-0.00615957
-0.00615783
-0.00615766
-0.00655994
-0.00655555
-0.00655569
-0.00655633
-0.00655984
-0.00695044
-0.00694724
-0.00695204
-0.00696173
-0.00696704
-0.007286
-0.00728347
-0.00728794
-0.00728925
-0.00729026
-0.00756926
-0.00756072
-0.0075574
-0.0075511
-0.00754789
-0.00776211
-0.0077372
-0.00771498
-0.0076945
-0.00767961
-0.00791326
-0.00786574
-0.0078258
-0.00779284
-0.00776287
-0.00797595
-0.00789867
-0.00782997
-0.00778352
-0.007741
-0.00803137
-0.00794844
-0.00786712
-0.00782319
-0.00772477
-0.00802604
-0.00791763
-0.00786111
-0.00779962
-0.00773086
-0.00800999
-0.00790792
-0.00774273
-0.0076865
-0.00725736
-0.00802094
-0.00783802
-0.00784206
-0.00779816
-0.00748547
-0.00789622
-0.00772344
-0.00742053
-0.00698787
-0.0059306
-0.00797103
-0.00776977
-0.0077685
-0.00739568
-0.00696364
-0.00788745
-0.00773199
-0.00794774
-0.00797866
-0.00974555
-0.00785033
-0.00758658
-0.00752358
-0.00736475
-0.00735392
-0.00747921
-0.00752548
-0.00700381
-0.00770415
-0.00627449
-0.00764056
-0.00765681
-0.00779929
-0.00792631
-0.00867019
-0.00719208
-0.00721809
-0.00728272
-0.00732225
-0.008233
-0.00725592
-0.00719953
-0.00722409
-0.00735843
-0.0069796
-0.0065038
-0.0065048
-0.00647082
-0.00659284
-0.00652166
-0.00602929
-0.00599674
-0.00601119
-0.00607958
-0.00601022
-0.00454932
-0.00456138
-0.0045835
-0.00464635
-0.00462654
-0.00373388
-0.00375474
-0.00384914
-0.00396474
-0.00402371
-0.00164385
-0.00166819
-0.00177481
-0.00178847
-0.00176842
-0.000866512
-0.000899752
-0.000960494
-0.00106847
-0.00115369
-0.00498393
-0.00628767
-0.00409342
-0.00880374
-0.00934233
-0.00769321
-0.00703427
-0.00726551
-0.00847308
-0.00600888
-0.0058963
-0.00686318
-0.00716859
-0.00754489
-0.00787175
-0.00726852
-0.00870296
-0.00911592
-0.00831335
-0.00819238
-0.00846021
-0.0074986
-0.00841187
-0.00841349
-0.00863607
-0.00845051
-0.00798331
-0.00724486
-0.0085254
-0.00861942
-0.00881567
-0.00872313
-0.00835506
-0.00906808
-0.00914768
-0.00917261
-0.0076531
-0.00845061
-0.00822795
-0.0091582
-0.0091345
-0.00963373
-0.0106223
-0.008726
4.661e-05
-0.00936569
-0.00911609
-0.00901817
-0.00893066
-0.00966954
-0.00978535
-0.0079546
-0.00878426
-0.00858221
-0.0104468
-0.00918401
-0.00851199
-0.00821393
-0.00811374
-0.00770153
-0.00746336
-0.00819424
-0.00916567
-0.00812988
-0.0087337
-0.00704398
-0.00844086
-0.0077862
-0.00917328
-0.00996767
-0.00962606
-0.0083218
-0.00448993
-0.00428969
-0.00648536
-0.0070204
-0.0073422
-0.00547411
-0.0072244
-0.00392101
-0.0051304
-0.00759252
-0.00799892
-0.00828599
-0.00554599
-0.000529676
-0.00486411
-0.00111495
-0.00575695
-0.00473875
-0.00604087
-0.00833143
-0.00452403
-0.00936731
-0.00762401
-0.00809739
-0.00455503
-0.00379613
-0.00344293
-0.00537168
-0.00305058
-0.00459197
-0.00617069
-0.00664973
-0.00648462
-0.002335
-0.00366087
-0.00233486
-0.00749319
-0.00653506
-0.00711978
-0.0072476
-0.00736979
-0.00829283
-0.00284833
-0.00549204
-0.00643278
)
;
    }
}


// ************************************************************************* //
