FoamFile
{version 2.0; format ascii;class vectorField; location 0;object  v;}
2
(
( -0.000377672 -0.000396916 -7.74339 )  
( -0.00157934 -0.00169363 -7.75435 )  
)
