/*--------------------------------*- C++ -*----------------------------------*\
| =========                 |                                                 |
| \\      /  F ield         | OpenFOAM: The Open Source CFD Toolbox           |
|  \\    /   O peration     | Version:  5.x                                   |
|   \\  /    A nd           | Web:      www.OpenFOAM.org                      |
|    \\/     M anipulation  |                                                 |
\*---------------------------------------------------------------------------*/
FoamFile
{
    version     2.0;
    format      ascii;
    class       volScalarField;
    location    "0.051";
    object      interFace;
}
// * * * * * * * * * * * * * * * * * * * * * * * * * * * * * * * * * * * * * //

dimensions      [0 0 0 0 0 0 0];

internalField   nonuniform List<scalar> 
1553
(
0
0
0
0
0
0
0
0
0
0
0
0
0
0
0
0
0
0
0
0
0
0
0
0
0
0
0
0
0
0
0
0
0
0
0
0
0
0
0
0
0
0
0
0
0
0
0
0
0
0
0
0
0
0
0
0
0
0
0
0
0
0
0
0
0
0
0
0
0
0
0
0
0
0
0
0
0
0
0
0
0
0
0
0
0
0
0
0
0
0
0
0
0
0
0
0
0
0
0
0
0
0
0
0
0
0
0
0
0
0
0
0
0
0
0
0
0
0
0
0
0
0
0
0
0
0
0
0
0
0
0
0
0
0
0
0
0
0
0
0
0
0
0
0
0
0
0
0
0
0
0
0
0
0
0
0
0
0
0
0
0
0
0
0
0
0
0
0
0
0
0
0
0
0
0
0
0
0
0
0
0
0
0
0
0
0
0
0
0
0
0
0
0
0
0
0
0
0
0
0
0
0
0
0
0
0
0
0
0
0
0
0
0
0
0
0
0
0
0
0
0
0
0
0
0
0
0
0
0
0
0
0
0
0
0
0
0
0
0
0
0
0
0
0
0
0
0
0
0
0
0
0
0
0
0
0
0
0
0
0
0
0
0
0
0
0
0
0
0
0
0
0
0
0
0
0
0
0
0
0
0
0
0
0
0
0
0
0
0
0
0
0
0
0
0
0
0
0
0
0
0
0
0
0
0
0
0
0
0
0
0
0
0
0
0
0
0
0
0
0
0
0
0
0
0
0
0
0
0
0
0
0
0
0
0
0
0
0
0
0
0
0
0
0
0
0
0
0
0
0
0
0
0
0
0
0
0
0
0
0
0
0
0
0
0
0
0
0
0
0
0
0
0
0
0
0
0
0
0
0
0
0
0
0
0
0
0
0
0
0
0
0
0
0
0
0
0
0
0
0
0
0
0
0
0
0
0
0
0
0
0
0
0
0
0
0
0
0
0
0
0
0
0
0
0
0
0
0
0
0
0
0
0
0
0
0
0
0
0
0
0
0
0
0
0
0
0
0
0
0
0
0
0
0
0
0
0
0
0
0
0
0
0
0
0
0
0
0
0
0
0
0
0
0
0
0
0
0
0
0
0
0
0
0
0
0
0
0
0
0
0
0
0
0
0
0
0
0
0
0
0
0
0
0
0
0
0
0
0
0
0
0
0
0
0
0
0
0
0
0
0
0
0
0
0
0
0
0
0
0
0
0
0
0
0
0
0
0
0
0
0
0
0
0
0
0
0
0
0
0
0
0
0
0
0
0
0
0
0
0
0
0
0
0
0
0
0
0
0
0
0
0
0
0
0
0
0
0
0
0
0
0
0
0
0
0
0
0
0
0
0
0
0
0
0
0
0
0
0
0
0
0
0
0
0
0
0
0
0
0
0
0
0
0
0
0
0
0
0
0
0
0
0
0
0
0
0
0
0
0
0
0
0
0
0
0
0
0
0
0
0
0
0
0
0
0
0
0
0
0
0
0
0
0
0
0
0
0
0
0
0
0
0
0
0
0
0
0
0
0
0
0
0
0
0
0
0
0
0
0
0
0
0
0
0
0
0
0
0
0
0
0
0
0
0
0
0
0
0
0
0
0
0
0
0.830521
0
0
0
0
0
0
0
0
0
0
0
0
0
0
0
0
0
0
0
0
0
0
0
0
0.300545
0
0
0
0
0.748849
0
0
0
0
0
0
0
0
0
0
0
0
0
0
0
0
0
0
0
0.487697
0
0
0
0
0
0
0
0
0
0
0
0
0
0
0
0
0
0
0
0
0
0
0
0
0
0
0
0
0
0
0
0
0
0
0
0
0
0
0
0
0
0
0
0
0
0
0
0
0
0.423154
0
0
0
0
0.854061
0
0
0
0
0
0
0
0
0
0
0
0
0
0
0
0
0
0
0
0.328696
0
0
0
0
0.849244
0
0
0
0
0
0
0
0
0
0
0
0
0
0
0
0
0
0
0
0
0
0
0
0
0
0
0
0
0
0
0
0
0
0
0
0
0
0
0
0
0
0
0
0
0
0
0
0
0
0
0
0
0
0
0
0
0
0
0
0
0
0
0
0
0
0
0
0
0
0
0
0
0
0
0
0
0
0
0
0
0
0
0
0
0
0
0
0
0
0
0
0
0
0
0
0
0
0
0
0
0
0
0
0
0
0
0
0
0
0
0
0
0
0
0
0
0
0
0
0
0
0
0
0
0
0
0
0
0
0
0
0
0
0
0
0
0
0
0
0
0
0
0
0
0
0
0
0
0
0
0
0
0
0
0
0
0
0
0
0
0
0
0
0
0
0.86403
0
0
0
0
0
0
0.218844
0.756695
0.487841
0.912833
0.733597
0
0.912929
0.864222
0
0
0
0
0
0
0.858832
0
0
0.55882
0.289962
0.82781
0.558952
0.154296
0.692144
0.423286
0.28508
0.016222
0.55407
0.285212
0.507956
0
0.849155
0
0.936343
0
0
0.0598382
0.597686
0.328828
0.728468
0.45961
0.997458
0.7286
0.508133
0
0
0
0.93652
0
0
0.844381
0
0
0
0
0
0
0.460793
0.55039
0.594028
0.773311
0.595233
0.638871
0.41595
0.371174
0.281532
0.504409
0.504453
0.549252
0.326331
0.326375
0.460837
0.550522
0.594116
0.773399
0.595321
0.638915
0.416039
0.0316917
0.569542
0.300689
0.373678
0.104825
0.642676
0.373822
0.467326
0.263641
0.263689
0.377683
0.308486
0.422481
0.422529
0.556944
0.353259
0.532542
0.646537
0.398104
0.691382
0.512098
0.556992
0.353355
0.532638
0.646681
0.398152
0.691478
0.512194
0.550456
0.81938
0.862974
0.863018
0.684896
0.68494
0.728534
0.646609
0.622208
0.622256
0.915534
0.48777
0.781048
0.781096
0.237917
0.104637
0.104681
0.148275
0.14948
0.193074
0.193118
0.327536
0.194256
0.373539
0.417133
0.239099
0.461975
0.282693
0.32758
0.194344
0.373627
0.417265
0.239143
0.462064
0.282781
0.149622
0.14967
0.194468
0.125269
0.0356268
0.080424
0.080472
0.479804
0
0.748801
0
0.552937
0
0.821934
0.479996
0
0
0.821982
0.553129
0
0
0.23924
0.418524
0.284085
0.214887
0.30448
0.349325
0.170042
0.239336
0.41862
0.284133
0.214935
0.304624
0.349421
0.170138
0.417199
0.463202
0.463246
0.686123
0.328762
0.551639
0.551683
0.508189
0.508237
0.373751
0.304553
0.573477
0.438991
0.439039
0.107068
0.0174262
0.0610206
0.0610648
0.105863
0.0622249
0.062269
0.602414
0
0.853972
0
0.46434
0
0.73333
0.602591
0
0
0.733374
0.464516
0
0
0.196687
0.286284
0.15064
0.329922
0.331127
0.195483
0.151844
0.196731
0.286416
0.150728
0.330011
0.331215
0.195527
0.151932
0.865317
0.732037
0.552799
0.596393
0.77688
0.641236
0.820474
0.865493
0.552931
0.732258
0.59657
0.777056
0.641368
0.820694
0.561668
0.848386
0.830665
0.365808
0.096955
0.634805
0.365952
0.100891
0.0764889
0.0765369
0.011249
0.121334
0.0560462
0.0560942
0.190509
0.166107
0.34539
0.280102
0.210952
0.324947
0.145664
0.190557
0.166203
0.345486
0.280246
0.211
0.325043
0.14576
0.777017
0.597782
0.821862
0.483739
0.528584
0.752663
0.707818
0.597926
0.777257
0.822054
0.483931
0.528728
0.752855
0.708058
0.28635
0.555274
0.419586
0.41963
0.42079
0.420834
0.285146
0.280175
0.435056
0.435104
0.549099
0.300618
0.414613
0.414661
0.153093
0.199095
0.199139
0.063451
0.243938
0.10825
0.108294
0
0
0
0
0
0
0
0.687448
0
0.911528
0.752736
0.61825
0.842329
0.976815
0.687544
0
0.911672
0.752784
0.618346
0.842473
0.976911
0.465544
0.688421
0.509183
0.510387
0.733264
0.734468
0.689625
0.465721
0.509315
0.688641
0.510519
0.73344
0.734644
0.689846
0.242712
0.288714
0.467997
0.332309
0.333557
0.377151
0.197869
0.242756
0.288803
0.468085
0.332441
0.333601
0.37724
0.197957
0.141752
0.1418
0.186597
0.296681
0.207039
0.251836
0.251884
0
0
0
0
0.545067
0
0.897095
0
0
0
0.897191
0.545259
0
0
0.524649
0.459361
0.504206
0.728286
0.703883
0.748728
0.68344
0.524793
0.459553
0.50435
0.728478
0.704123
0.74892
0.68368
0.332375
0.55766
0.557704
0.601299
0.42322
0.466815
0.466859
0.23137
0.410653
0.276215
0.386299
0.475892
0.520737
0.341454
0.231466
0.410749
0.276263
0.386347
0.476036
0.520833
0.34155
0.500319
0.500367
0.365881
0.475965
0.744889
0.610403
0.610451
0
0
0
0
0
0
0
0.734534
0.598846
0.957411
0.60005
0.822927
0.824131
0.958615
0.734578
0.598934
0.957499
0.600139
0.823059
0.824264
0.958703
0.56009
0.470449
0.334761
0.334805
0.379604
0.515247
0.515291
0.614411
0.728406
0.593968
0.818095
0.972976
0.838538
0.952534
0.614315
0.728358
0.593872
0.817951
0.97288
0.838394
0.952438
0
0
0
0
0.945977
0
0
0
0
0
0
0.946154
0
0
0.649709
0.739306
0.42438
0.603663
0.784149
0.469223
0.604867
0.649753
0.739439
0.424468
0.603751
0.784237
0.469267
0.604955
0.826495
0.647257
0.511569
0.871338
0.556412
0.780493
0.73565
0.64739
0.826716
0.511745
0.871514
0.556544
0.780669
0.73587
0
0
0
0
0.97891
0
0
0.451586
0.606465
0.606513
0.361943
0.65131
0.40674
0.406788
0.541203
0.696083
0.875366
0.630796
0.740928
0.675642
0.496358
0.541251
0.696179
0.875462
0.63094
0.740976
0.675738
0.496454
0.589912
0.769146
0.813992
0.655151
0.699996
0.924075
0.87923
0.590056
0.769386
0.814184
0.655343
0.70014
0.924267
0.87947
0.739373
0
0.693326
0.69337
0.873812
0.873857
0.558886
)
;

boundaryField
{
    inlet
    {
        type            calculated;
        value           uniform 0;
    }
    wall
    {
        type            calculated;
        value           uniform 0;
    }
    outlet
    {
        type            calculated;
        value           uniform 0;
    }
    procBoundary2to0
    {
        type            processor;
        value           uniform 0;
    }
    procBoundary2to3
    {
        type            processor;
        value           uniform 0;
    }
}


// ************************************************************************* //
