/*--------------------------------*- C++ -*----------------------------------*\
| =========                 |                                                 |
| \\      /  F ield         | OpenFOAM: The Open Source CFD Toolbox           |
|  \\    /   O peration     | Version:  5.x                                   |
|   \\  /    A nd           | Web:      www.OpenFOAM.org                      |
|    \\/     M anipulation  |                                                 |
\*---------------------------------------------------------------------------*/
FoamFile
{
    version     2.0;
    format      ascii;
    class       surfaceScalarField;
    location    "0.051";
    object      phi;
}
// * * * * * * * * * * * * * * * * * * * * * * * * * * * * * * * * * * * * * //

dimensions      [0 3 -1 0 0 0 0];

internalField   nonuniform List<scalar> 
4297
(
-1.06184e-07
2.21156e-08
-1.609e-08
-8.42697e-08
2.16825e-08
-5.01594e-08
-6.95558e-08
2.12754e-08
-4.32707e-08
-3.71713e-08
2.1123e-08
-6.1459e-08
2.0796e-08
-5.79436e-08
-1.06356e-07
5.29341e-08
-1.96098e-08
-8.44959e-08
5.331e-08
-5.34876e-08
-6.97886e-08
5.31679e-08
-4.66014e-08
-3.74243e-08
5.34429e-08
-6.46902e-08
5.32718e-08
-6.12021e-08
-1.05946e-07
6.86982e-08
-4.57719e-09
-8.41863e-08
6.94236e-08
-3.78723e-08
-6.95101e-08
6.93664e-08
-3.08734e-08
-3.72929e-08
6.98441e-08
-4.86187e-08
6.97441e-08
-4.50682e-08
-1.05951e-07
9.09493e-08
-1.10238e-08
-8.42374e-08
9.19583e-08
-4.42476e-08
-6.95731e-08
9.19905e-08
-3.72874e-08
-3.73899e-08
9.26508e-08
-5.49891e-08
9.26281e-08
-5.14635e-08
-1.04918e-07
1.86561e-08
-8.33632e-08
-1.39113e-08
-6.88768e-08
-6.88105e-09
-3.69902e-08
-2.42168e-08
-2.06529e-08
-4.71242e-08
7.84255e-09
-2.90223e-08
-5.04432e-08
9.42615e-09
-6.86207e-08
-4.30591e-08
1.00656e-08
-7.1988e-08
-2.8573e-08
1.1021e-08
-9.69315e-08
1.14788e-08
-9.89613e-08
-4.67116e-08
2.53957e-08
-2.76541e-08
-4.99641e-08
2.64421e-08
-6.72496e-08
-4.26354e-08
2.67845e-08
-7.06483e-08
-2.8196e-08
2.74917e-08
-9.5605e-08
2.77746e-08
-9.76551e-08
-4.57814e-08
3.53633e-08
-5.189e-09
-4.90897e-08
3.62414e-08
-4.43619e-08
-4.19219e-08
3.64711e-08
-4.7726e-08
-2.76927e-08
3.7068e-08
-7.24242e-08
3.72578e-08
-7.44733e-08
-4.5595e-08
3.60275e-08
-2.36635e-09
-4.88753e-08
3.67426e-08
-4.14676e-08
-4.17294e-08
3.68796e-08
-4.48405e-08
-2.75321e-08
3.73822e-08
-6.94995e-08
3.7496e-08
-7.1557e-08
-4.49032e-08
3.41612e-08
-4.82291e-08
-4.21891e-09
-4.11932e-08
-7.51828e-09
-2.71972e-08
-3.17334e-08
-3.37626e-08
-1.11779e-07
2.77842e-08
-5.12291e-08
-9.51299e-08
2.75445e-08
-1.19758e-07
-7.80465e-08
2.73215e-08
-1.23724e-07
-4.33568e-08
2.71287e-08
-1.66783e-07
2.6876e-08
-1.69136e-07
-1.11958e-07
6.17889e-08
-5.01094e-08
-9.53585e-08
6.22643e-08
-1.18568e-07
-7.82841e-08
6.21679e-08
-1.22569e-07
-4.36064e-08
6.24305e-08
-1.65588e-07
6.22725e-08
-1.6796e-07
-1.11445e-07
7.98285e-08
-1.16989e-08
-9.49632e-08
8.06938e-08
-7.92726e-08
-7.79969e-08
8.0672e-08
-8.31951e-08
-4.35343e-08
8.1189e-08
-1.25645e-07
8.10951e-08
-1.27989e-07
-1.11442e-07
9.76997e-08
-8.65992e-09
-9.49988e-08
9.88653e-08
-7.60823e-08
-7.80592e-08
9.89111e-08
-8.00184e-08
-4.36335e-08
9.96397e-08
-1.22375e-07
9.96115e-08
-1.24733e-07
-1.10252e-07
5.40876e-08
-9.39884e-08
-1.19315e-08
-7.72798e-08
-1.57192e-08
-4.32538e-08
-5.7203e-08
-5.94917e-08
-1.13277e-07
2.44037e-08
-7.67458e-08
-1.00956e-07
2.61079e-08
-1.70927e-07
-8.28929e-08
2.64414e-08
-1.80558e-07
-4.81191e-08
2.75947e-08
-2.40369e-07
2.78658e-08
-2.46057e-07
-1.12904e-07
6.05588e-08
-7.30645e-08
-1.00582e-07
6.23706e-08
-1.67152e-07
-8.25615e-08
6.26524e-08
-1.768e-07
-4.78635e-08
6.38789e-08
-2.36573e-07
6.4103e-08
-2.42274e-07
-1.11274e-07
8.0713e-08
-1.88722e-08
-9.91251e-08
8.26286e-08
-1.1168e-07
-8.13563e-08
8.28781e-08
-1.21189e-07
-4.70895e-08
8.41414e-08
-1.80175e-07
8.43252e-08
-1.85832e-07
-1.10999e-07
9.59248e-08
-1.08935e-08
-9.88677e-08
9.78729e-08
-1.03458e-07
-8.11383e-08
9.80987e-08
-1.12968e-07
-4.69443e-08
9.93829e-08
-1.71811e-07
9.95389e-08
-1.77478e-07
-1.09074e-07
7.62031e-08
-9.71578e-08
-1.42497e-08
-7.97647e-08
-2.35148e-08
-4.61454e-08
-8.10502e-08
-8.66071e-08
-1.74525e-07
4.69531e-08
-1.14213e-07
-1.50456e-07
4.74198e-08
-2.51607e-07
-1.22384e-07
4.73022e-08
-2.65384e-07
-6.74432e-08
4.74843e-08
-3.52801e-07
4.72616e-08
-3.60765e-07
-1.74599e-07
1.00917e-07
-1.08982e-07
-1.50589e-07
1.02462e-07
-2.46204e-07
-1.22558e-07
1.02474e-07
-2.60004e-07
-6.76734e-08
1.03364e-07
-3.47339e-07
1.03245e-07
-3.55342e-07
-1.73094e-07
1.29886e-07
-2.99307e-08
-1.49349e-07
1.32069e-07
-1.65033e-07
-1.21644e-07
1.3217e-07
-1.7859e-07
-6.73221e-08
1.33475e-07
-2.64609e-07
1.33427e-07
-2.72531e-07
-1.7295e-07
1.55488e-07
-1.85184e-08
-1.49265e-07
1.5813e-07
-1.53206e-07
-1.21624e-07
1.58309e-07
-1.66749e-07
-6.73916e-08
1.59942e-07
-2.52512e-07
1.59969e-07
-2.60444e-07
-1.70289e-07
1.08101e-07
-1.46984e-07
-2.3124e-08
-1.19879e-07
-3.62516e-08
-6.65584e-08
-1.19853e-07
-1.27592e-07
-2.29337e-07
5.97201e-08
-1.64387e-07
-1.99231e-07
6.19381e-08
-3.58025e-07
-1.61737e-07
6.21959e-08
-3.79329e-07
-8.93785e-08
6.36726e-08
-5.0242e-07
6.3829e-08
-5.1476e-07
-2.28919e-07
1.31436e-07
-1.55907e-07
-1.98864e-07
1.34853e-07
-3.49176e-07
-1.61427e-07
1.35238e-07
-3.70484e-07
-8.92177e-08
1.37478e-07
-4.93357e-07
1.3772e-07
-5.05741e-07
-2.25792e-07
1.70389e-07
-4.44925e-08
-1.96124e-07
1.74516e-07
-2.34367e-07
-1.5921e-07
1.74957e-07
-2.55225e-07
-8.79708e-08
1.77594e-07
-3.75967e-07
1.77852e-07
-3.88132e-07
-2.25261e-07
2.02935e-07
-2.66444e-08
-1.95668e-07
2.07493e-07
-2.15778e-07
-1.58845e-07
2.07986e-07
-2.36602e-07
-8.77864e-08
2.10911e-07
-3.56889e-07
2.11199e-07
-3.69056e-07
-2.2072e-07
1.51597e-07
-1.91672e-07
-3.20556e-08
-1.55697e-07
-5.21411e-08
-8.60819e-08
-1.69005e-07
-1.80793e-07
-3.21217e-07
9.11865e-08
-2.34892e-07
-2.77372e-07
9.3202e-08
-5.08006e-07
-2.24027e-07
9.32496e-08
-5.39123e-07
-1.21636e-07
9.43513e-08
-7.12884e-07
9.41542e-08
-7.30608e-07
-3.21047e-07
1.9064e-07
-2.22269e-07
-2.77298e-07
1.95033e-07
-4.94759e-07
-2.24068e-07
1.95363e-07
-5.25829e-07
-1.21834e-07
1.98012e-07
-6.99255e-07
1.98002e-07
-7.1704e-07
-3.16911e-07
2.44164e-07
-6.53871e-08
-2.73764e-07
2.4999e-07
-3.32475e-07
-2.21407e-07
2.50494e-07
-3.62716e-07
-1.20636e-07
2.5407e-07
-5.32799e-07
2.54192e-07
-5.50251e-07
-3.16314e-07
2.89595e-07
-3.93635e-08
-2.73269e-07
2.96348e-07
-3.05184e-07
-2.21073e-07
2.96967e-07
-3.35276e-07
-1.20562e-07
3.01183e-07
-5.04517e-07
3.01418e-07
-5.21918e-07
-3.09548e-07
2.10837e-07
-2.67383e-07
-4.62621e-08
-2.16556e-07
-7.50902e-08
-1.18332e-07
-2.38878e-07
-2.55634e-07
-4.5437e-07
1.29984e-07
-3.33581e-07
-3.93408e-07
1.34338e-07
-7.20959e-07
-3.17563e-07
1.34794e-07
-7.67487e-07
-1.71677e-07
1.37622e-07
-1.0139e-06
1.37846e-07
-1.04076e-06
-4.53514e-07
2.71106e-07
-3.14173e-07
-3.92686e-07
2.79006e-07
-7.0026e-07
-3.16969e-07
2.79919e-07
-7.46675e-07
-1.71446e-07
2.85043e-07
-9.92203e-07
2.85601e-07
-1.01902e-06
-4.46293e-07
3.4685e-07
-9.28782e-08
-3.86355e-07
3.56809e-07
-4.7022e-07
-3.11863e-07
3.57952e-07
-5.15246e-07
-1.68733e-07
3.6424e-07
-7.55131e-07
3.64902e-07
-7.8106e-07
-4.4493e-07
4.09587e-07
-5.37856e-08
-3.85198e-07
4.20752e-07
-4.28864e-07
-3.10956e-07
4.22088e-07
-4.7366e-07
-1.68305e-07
4.29212e-07
-7.12145e-07
4.29995e-07
-7.37962e-07
-4.33776e-07
2.99081e-07
-3.75312e-07
-6.21557e-08
-3.03193e-07
-1.04703e-07
-1.64197e-07
-3.3441e-07
-3.58936e-07
-6.20835e-07
1.83103e-07
-4.69681e-07
-5.37615e-07
1.88939e-07
-1.01148e-06
-4.32319e-07
1.89703e-07
-1.08122e-06
-2.32255e-07
1.93217e-07
-1.42663e-06
1.93264e-07
-1.4663e-06
-6.19876e-07
3.74028e-07
-4.40515e-07
-5.3676e-07
3.85688e-07
-9.80131e-07
-4.31767e-07
3.87354e-07
-1.04932e-06
-2.32196e-07
3.94766e-07
-1.39333e-06
3.95321e-07
-1.4328e-06
-6.09041e-07
4.76672e-07
-1.32366e-07
-5.27075e-07
4.91971e-07
-6.58477e-07
-4.24366e-07
4.94003e-07
-7.24611e-07
-2.28627e-07
5.03744e-07
-1.05986e-06
5.04622e-07
-1.09795e-06
-6.06919e-07
5.61237e-07
-7.52284e-08
-5.25035e-07
5.78525e-07
-5.97309e-07
-4.2268e-07
5.8065e-07
-6.62669e-07
-2.27838e-07
5.91563e-07
-9.94813e-07
5.92564e-07
-1.03237e-06
-5.89626e-07
4.14641e-07
-5.09698e-07
-8.56638e-08
-4.10924e-07
-1.47025e-07
-2.21838e-07
-4.65601e-07
-5.0098e-07
-9.01533e-07
2.70123e-07
-6.63962e-07
-7.81302e-07
2.80846e-07
-1.43565e-06
-6.27548e-07
2.81838e-07
-1.54016e-06
-3.35839e-07
2.88719e-07
-2.03068e-06
2.89422e-07
-2.09202e-06
-8.99086e-07
5.47315e-07
-6.19074e-07
-7.79279e-07
5.67275e-07
-1.38638e-06
-6.25993e-07
5.69345e-07
-1.49013e-06
-3.35133e-07
5.82035e-07
-1.97751e-06
5.83566e-07
-2.03805e-06
-8.81166e-07
6.96155e-07
-1.84966e-07
-7.63542e-07
7.21297e-07
-9.30133e-07
-6.13311e-07
7.24264e-07
-1.02977e-06
-3.2829e-07
7.39988e-07
-1.50284e-06
7.41955e-07
-1.56027e-06
-8.77459e-07
8.15825e-07
-9.83697e-08
-7.60549e-07
8.43777e-07
-8.36708e-07
-6.11245e-07
8.47445e-07
-9.35163e-07
-3.27326e-07
8.65335e-07
-1.40409e-06
8.67717e-07
-1.4608e-06
-8.49523e-07
5.93004e-07
-7.35456e-07
-1.11063e-07
-5.91358e-07
-2.02751e-07
-3.16693e-07
-6.49501e-07
-7.01874e-07
-1.21623e-06
3.67105e-07
-9.28351e-07
-1.05808e-06
3.82359e-07
-2.00226e-06
-8.48905e-07
3.85698e-07
-2.1617e-06
-4.53178e-07
3.95812e-07
-2.85012e-06
3.96813e-07
-2.9418e-06
-1.21279e-06
7.36162e-07
-8.60773e-07
-1.05457e-06
7.65571e-07
-1.92782e-06
-8.45926e-07
7.71757e-07
-2.08484e-06
-4.5209e-07
7.92351e-07
-2.76789e-06
7.95223e-07
-2.85876e-06
-1.18543e-06
9.34658e-07
-2.60066e-07
-1.02872e-06
9.74013e-07
-1.29529e-06
-8.25397e-07
9.80716e-07
-1.44206e-06
-4.41936e-07
1.00671e-06
-2.10067e-06
1.01015e-06
-2.18632e-06
-1.17855e-06
1.09358e-06
-1.34063e-07
-1.02194e-06
1.13721e-06
-1.15653e-06
-8.19116e-07
1.14402e-06
-1.3013e-06
-4.38537e-07
1.17151e-06
-1.94948e-06
1.17493e-06
-2.03276e-06
-1.13493e-06
8.1932e-07
-9.82579e-07
-1.49828e-07
-7.89602e-07
-2.82e-07
-4.23102e-07
-8.98301e-07
-9.74819e-07
-1.79325e-06
5.49869e-07
-1.31482e-06
-1.55152e-06
5.77063e-07
-2.85245e-06
-1.22394e-06
5.74934e-07
-3.09596e-06
-6.48377e-07
5.8609e-07
-4.04423e-06
5.83725e-07
-4.17412e-06
-1.787e-06
1.09357e-06
-1.20913e-06
-1.54876e-06
1.1433e-06
-2.73231e-06
-1.22651e-06
1.14249e-06
-2.97466e-06
-6.50776e-07
1.16477e-06
-3.92231e-06
1.16194e-06
-4.05386e-06
-1.74424e-06
1.39101e-06
-3.65167e-07
-1.51361e-06
1.45361e-06
-1.83625e-06
-1.20416e-06
1.45814e-06
-2.06717e-06
-6.3975e-07
1.49316e-06
-2.99348e-06
1.49558e-06
-3.12487e-06
-1.73551e-06
1.61845e-06
-1.66535e-07
-1.50903e-06
1.68767e-06
-1.61709e-06
-1.2051e-06
1.69632e-06
-1.84341e-06
-6.422e-07
1.73908e-06
-2.75831e-06
1.74512e-06
-2.88889e-06
-1.66633e-06
1.1821e-06
-1.44649e-06
-1.85616e-07
-1.15547e-06
-3.91616e-07
-6.15078e-07
-1.25428e-06
-1.37062e-06
-2.41164e-06
7.37308e-07
-1.81753e-06
-2.09981e-06
7.74178e-07
-3.97555e-06
-1.67503e-06
7.82647e-07
-4.3413e-06
-8.95808e-07
8.10573e-07
-5.67403e-06
8.13961e-07
-5.8832e-06
-2.4003e-06
1.45643e-06
-1.65915e-06
-2.09281e-06
1.52754e-06
-3.79319e-06
-1.66727e-06
1.53977e-06
-4.15733e-06
-8.91512e-07
1.5899e-06
-5.47741e-06
1.59658e-06
-5.68457e-06
-2.33128e-06
1.84659e-06
-4.99847e-07
-2.03325e-06
1.94683e-06
-2.55358e-06
-1.61754e-06
1.9627e-06
-2.90583e-06
-8.6348e-07
2.02256e-06
-4.18022e-06
2.02897e-06
-4.37546e-06
-2.30947e-06
2.13865e-06
-2.0232e-07
-2.01702e-06
2.24829e-06
-2.21101e-06
-1.60537e-06
2.26966e-06
-2.56204e-06
-8.55501e-07
2.33872e-06
-3.82436e-06
2.34963e-06
-4.01864e-06
-2.19995e-06
1.65162e-06
-1.9171e-06
-2.26315e-07
-1.53457e-06
-5.32955e-07
-8.18694e-07
-1.71551e-06
-1.88632e-06
-3.70888e-06
1.20033e-06
-2.55467e-06
-3.39067e-06
1.28179e-06
-5.62058e-06
-2.78831e-06
1.29974e-06
-6.29046e-06
-1.53028e-06
1.39872e-06
-8.38198e-06
1.42653e-06
-8.83988e-06
-3.67407e-06
2.31314e-06
-2.27425e-06
-3.33374e-06
2.45185e-06
-5.30359e-06
-2.73829e-06
2.48127e-06
-5.93433e-06
-1.5006e-06
2.64376e-06
-7.96016e-06
2.69146e-06
-8.39575e-06
-3.54966e-06
2.88396e-06
-5.96649e-07
-3.16305e-06
3.05327e-06
-3.54163e-06
-2.57139e-06
3.08244e-06
-4.09867e-06
-1.39625e-06
3.25195e-06
-5.96358e-06
3.30718e-06
-6.33447e-06
-3.5158e-06
3.26947e-06
-1.15321e-07
-3.13405e-06
3.44573e-06
-2.98523e-06
-2.54097e-06
3.4792e-06
-3.5519e-06
-1.37554e-06
3.60362e-06
-5.34147e-06
3.63795e-06
-5.67186e-06
-3.33964e-06
2.52779e-06
-2.96532e-06
-1.44832e-07
-2.40337e-06
-6.37941e-07
-1.29488e-06
-2.34374e-06
-2.63849e-06
-5.32103e-06
1.76704e-06
-3.30296e-06
-5.18877e-06
1.87453e-06
-7.68706e-06
-4.45401e-06
2.01093e-06
-9.10016e-06
-2.53626e-06
2.2683e-06
-1.26396e-05
2.38714e-06
-1.37611e-05
-5.1961e-06
3.32601e-06
-2.84822e-06
-5.02093e-06
3.51871e-06
-7.12295e-06
-4.27069e-06
3.70791e-06
-8.38156e-06
-2.41507e-06
4.13701e-06
-1.16845e-05
4.31842e-06
-1.26633e-05
-4.85265e-06
4.00806e-06
-5.00273e-07
-4.59061e-06
4.30067e-06
-4.58564e-06
-3.83947e-06
4.47604e-06
-5.61795e-06
-2.15277e-06
4.90597e-06
-8.41925e-06
5.07474e-06
-9.16448e-06
-4.74896e-06
4.36182e-06
2.86156e-07
-4.40769e-06
4.65507e-06
-3.68091e-06
-3.6428e-06
4.75737e-06
-4.59813e-06
-2.00815e-06
5.10212e-06
-7.17228e-06
5.22752e-06
-7.75521e-06
-4.45671e-06
3.89932e-06
-4.11938e-06
2.49852e-07
-3.45201e-06
-5.5019e-07
-1.89845e-06
-2.93329e-06
-3.40438e-06
-8.62769e-06
2.94531e-06
-4.0302e-06
-8.87924e-06
3.21691e-06
-1.07233e-05
-7.99815e-06
3.64106e-06
-1.36999e-05
-4.33486e-06
4.03569e-06
-2.04198e-05
4.16802e-06
-2.22626e-05
-8.3544e-06
5.44609e-06
-3.26873e-06
-8.43831e-06
5.79241e-06
-9.61455e-06
-7.65722e-06
6.40988e-06
-1.19315e-05
-4.20483e-06
7.49868e-06
-1.85999e-05
7.83607e-06
-2.04469e-05
-7.61665e-06
6.41694e-06
4.3732e-08
-7.59858e-06
7.02116e-06
-5.83248e-06
-6.57077e-06
7.46605e-06
-7.70194e-06
-3.81838e-06
8.31108e-06
-1.1984e-05
8.76296e-06
-1.38163e-05
-7.39429e-06
6.76794e-06
1.32914e-06
-7.14371e-06
7.29141e-06
-4.20175e-06
-5.94417e-06
7.516e-06
-5.84762e-06
-3.37935e-06
8.25435e-06
-9.68038e-06
8.52944e-06
-1.08114e-05
-6.87318e-06
6.33163e-06
-6.53947e-06
1.28544e-06
-5.58552e-06
-1.07256e-08
-3.09471e-06
-3.36721e-06
-4.15013e-06
-1.2014e-05
3.76463e-06
-4.45942e-06
-1.11723e-05
4.41552e-06
-1.60574e-05
-8.65447e-06
4.56213e-06
-2.08573e-05
-4.8314e-06
4.60909e-06
-2.89361e-05
4.65863e-06
-3.17487e-05
-1.13878e-05
6.88313e-06
-3.42337e-06
-1.09566e-05
8.0778e-06
-1.37081e-05
-8.65252e-06
8.75213e-06
-1.84255e-05
-4.77852e-06
8.48049e-06
-2.63453e-05
8.48125e-06
-2.89523e-05
-1.01548e-05
8.09817e-06
1.00784e-06
-1.00601e-05
9.19423e-06
-7.04366e-06
-8.92816e-06
9.90853e-06
-9.99025e-06
-4.72626e-06
1.07989e-05
-1.85044e-05
1.10003e-05
-2.09589e-05
-9.55808e-06
8.515e-06
2.71891e-06
-9.3395e-06
9.42429e-06
-4.65038e-06
-8.25608e-06
1.00287e-05
-7.05117e-06
-4.58642e-06
1.12616e-05
-1.38127e-05
1.18915e-05
-1.61809e-05
-8.65237e-06
9.22291e-06
-8.2528e-06
2.66404e-06
-7.04869e-06
9.44334e-07
-3.93418e-06
-3.53888e-06
-4.59607e-06
-1.69997e-05
5.53219e-06
-5.9514e-06
-1.54699e-05
5.94834e-06
-2.36155e-05
-1.20677e-05
6.19212e-06
-3.0534e-05
-6.84969e-06
6.45656e-06
-4.06985e-05
6.66777e-06
-4.52636e-05
-1.65074e-05
9.96927e-06
-3.95504e-06
-1.51009e-05
1.11439e-05
-2.03101e-05
-1.17683e-05
1.12375e-05
-2.68035e-05
-6.63672e-06
1.15918e-05
-3.66121e-05
1.18862e-05
-4.07095e-05
-1.53899e-05
1.19749e-05
2.28883e-06
-1.47965e-05
1.3732e-05
-1.02251e-05
-1.14125e-05
1.46339e-05
-1.67707e-05
-6.37185e-06
1.4935e-05
-2.68883e-05
1.52908e-05
-3.06311e-05
-1.41875e-05
1.23021e-05
4.98438e-06
-1.38912e-05
1.40438e-05
-5.25854e-06
-1.13155e-05
1.52496e-05
-1.02425e-05
-6.13186e-06
1.63563e-05
-2.04176e-05
1.6825e-05
-2.374e-05
-1.24493e-05
1.25897e-05
-1.21367e-05
4.9175e-06
-1.01405e-05
2.21133e-06
-5.71345e-06
-4.09414e-06
-6.13919e-06
-2.06984e-05
7.20366e-06
-9.43479e-06
-1.98081e-05
7.58799e-06
-3.21868e-05
-1.58424e-05
8.01178e-06
-4.2607e-05
-9.21745e-06
8.57003e-06
-5.60002e-05
8.99034e-06
-6.34642e-05
-2.03916e-05
1.2214e-05
-4.99829e-06
-1.91729e-05
1.34144e-05
-2.73553e-05
-1.52205e-05
1.41528e-05
-3.68969e-05
-8.79454e-06
1.49963e-05
-4.94644e-05
1.56123e-05
-5.60024e-05
-1.94664e-05
1.47974e-05
3.48913e-06
-1.81543e-05
1.71322e-05
-1.5255e-05
-1.43789e-05
1.79421e-05
-2.43354e-05
-8.237e-06
1.89556e-05
-3.69894e-05
1.95794e-05
-4.27007e-05
-1.79234e-05
1.54212e-05
7.39627e-06
-1.73393e-05
1.77327e-05
-6.44316e-06
-1.3641e-05
1.92646e-05
-1.52633e-05
-7.81491e-06
2.01746e-05
-2.74627e-05
2.04517e-05
-3.22881e-05
-1.56163e-05
1.65168e-05
-1.50179e-05
7.323e-06
-1.24561e-05
3.39499e-06
-7.44063e-06
-5.19117e-06
-9.69696e-06
-3.12725e-05
1.05939e-05
-1.451e-05
-3.14114e-05
1.18434e-05
-4.39942e-05
-2.583e-05
1.30884e-05
-6.13819e-05
-1.5631e-05
1.4197e-05
-8.05117e-05
1.53894e-05
-9.4479e-05
-3.00059e-05
1.89264e-05
-7.97047e-06
-2.97445e-05
2.05282e-05
-3.63016e-05
-2.42268e-05
2.23959e-05
-5.17222e-05
-1.44387e-05
2.3992e-05
-6.90476e-05
2.55931e-05
-8.05144e-05
-2.89847e-05
2.25427e-05
5.17302e-06
-2.79728e-05
2.54416e-05
-2.11803e-05
-2.26304e-05
2.77572e-05
-3.50391e-05
-1.33281e-05
2.9525e-05
-5.18248e-05
3.11881e-05
-6.14834e-05
-2.67665e-05
2.42408e-05
1.02156e-05
-2.56576e-05
2.65707e-05
-8.68118e-06
-2.07654e-05
2.87841e-05
-2.11824e-05
-1.20809e-05
2.97907e-05
-3.6413e-05
3.10682e-05
-4.41046e-05
-2.44347e-05
2.38235e-05
-2.27627e-05
1.01439e-05
-1.91718e-05
5.07214e-06
-1.08115e-05
-8.24083e-06
-1.47781e-05
-4.26585e-05
1.37253e-05
-1.98983e-05
-4.4555e-05
1.63443e-05
-5.85633e-05
-3.80408e-05
1.87179e-05
-8.67377e-05
-2.42075e-05
2.12238e-05
-0.000115711
2.39002e-05
-0.000142574
-4.00998e-05
2.3694e-05
-1.02141e-05
-4.12923e-05
2.74875e-05
-4.62523e-05
-3.45836e-05
3.10162e-05
-7.07292e-05
-2.15291e-05
3.42808e-05
-9.5159e-05
3.77285e-05
-0.000115703
-3.74361e-05
2.90012e-05
6.75785e-06
-3.78258e-05
3.36976e-05
-2.70007e-05
-3.13258e-05
3.75308e-05
-4.80536e-05
-1.90262e-05
4.10018e-05
-7.08454e-05
4.42516e-05
-8.68465e-05
-3.40562e-05
3.01653e-05
1.50026e-05
-3.39842e-05
3.37788e-05
-8.83446e-06
-2.77949e-05
3.71547e-05
-2.69956e-05
-1.66481e-05
3.98216e-05
-4.63797e-05
4.23686e-05
-5.86763e-05
-3.04462e-05
3.35519e-05
-2.92883e-05
1.49034e-05
-2.40092e-05
6.65522e-06
-1.40226e-05
-1.05353e-05
-2.0181e-05
-6.95042e-05
2.24601e-05
-2.57243e-05
-7.7548e-05
2.74339e-05
-7.80911e-05
-6.91692e-05
3.40409e-05
-0.000129299
-4.6989e-05
3.94767e-05
-0.00017753
4.66733e-05
-0.000236224
-6.37353e-05
3.77983e-05
-1.09712e-05
-6.92542e-05
4.46442e-05
-5.79437e-05
-6.03621e-05
5.32619e-05
-9.88425e-05
-3.97959e-05
6.00457e-05
-0.000136294
6.88435e-05
-0.000177483
-5.89381e-05
4.62093e-05
1.09037e-05
-6.23804e-05
5.35798e-05
-3.24941e-05
-5.35845e-05
6.20772e-05
-6.56648e-05
-3.43627e-05
6.89593e-05
-9.89808e-05
7.7244e-05
-0.000129405
-5.24787e-05
4.69061e-05
2.48116e-05
-5.38806e-05
5.219e-05
-6.04278e-06
-4.49665e-05
5.8649e-05
-3.24815e-05
-2.77626e-05
6.34563e-05
-5.80807e-05
6.92144e-05
-7.82014e-05
-4.71941e-05
5.10068e-05
-4.65011e-05
2.46818e-05
-3.81155e-05
1.07945e-05
-2.27792e-05
-1.13224e-05
-2.60104e-05
-9.83951e-05
3.08005e-05
-2.87726e-05
-0.000117639
4.01754e-05
-9.9184e-05
-0.000110476
5.28768e-05
-0.000189501
-8.0954e-05
6.45765e-05
-0.000271816
8.05573e-05
-0.000397715
-8.70473e-05
4.99666e-05
-6.66626e-06
-0.000100739
6.18601e-05
-6.59369e-05
-9.1545e-05
7.81539e-05
-0.000133313
-6.49824e-05
9.1123e-05
-0.000189403
0.000110047
-0.000271726
-7.87133e-05
5.97242e-05
2.05932e-05
-8.81013e-05
7.21553e-05
-3.34013e-05
-7.85833e-05
8.76821e-05
-8.4711e-05
-5.32799e-05
0.000100343
-0.000133504
0.000117214
-0.000189583
-6.73691e-05
5.78367e-05
4.24622e-05
-7.25592e-05
6.69701e-05
4.33252e-06
-6.22806e-05
7.83006e-05
-3.33786e-05
-4.05874e-05
8.66605e-05
-6.60913e-05
9.79809e-05
-9.92784e-05
-5.82428e-05
7.51242e-05
-6.01295e-05
4.23053e-05
-5.03842e-05
2.04696e-05
-3.11989e-05
-7.05412e-06
-2.90392e-05
-0.000164657
5.06592e-05
-2.44387e-05
-0.000205576
6.79237e-05
-0.000126377
-0.000203532
9.52451e-05
-0.000286976
-0.000158316
0.000118364
-0.000435628
0.000157928
-0.000713932
-0.000141162
8.05807e-05
7.95225e-06
-0.000170117
0.000101053
-7.01119e-05
-0.0001606
0.000134516
-0.000182101
-0.000118769
0.00016019
-0.00027306
0.000203075
-0.000435381
-0.000126534
9.36314e-05
4.45557e-05
-0.000146689
0.000115263
-2.74549e-05
-0.000134955
0.000146279
-0.000108209
-9.56524e-05
0.000169733
-0.00018235
0.000205139
-0.000286998
-0.000104317
8.76782e-05
7.68233e-05
-0.000115664
0.000103918
2.70235e-05
-0.000101488
0.000126125
-2.73996e-05
-6.83424e-05
0.000140808
-7.03118e-05
0.000164237
-0.000126415
-8.80813e-05
0.000116033
-9.40116e-05
7.66284e-05
-8.09584e-05
4.4415e-05
-5.10678e-05
7.60332e-06
-2.46464e-05
-0.000241259
7.15835e-05
-2.20501e-06
-0.000331813
0.000102722
-0.000138745
-0.000366775
0.000159222
-0.000411419
-0.000324741
0.000217137
-0.000694987
0.000324388
-0.00136304
-0.000194194
0.000105667
4.67945e-05
-0.000252442
0.000139734
-4.88762e-05
-0.000258684
0.000205315
-0.000221951
-0.000217647
0.000258115
-0.000355076
0.00036628
-0.000694683
-0.000170292
0.000117695
9.06472e-05
-0.000209848
0.000154305
-2.46949e-06
-0.00020583
0.000209284
-0.000116195
-0.000159673
0.000251879
-0.000222271
0.000331213
-0.000411251
-0.000129265
0.000105332
0.000129721
-0.000154856
0.000128696
7.82234e-05
-0.000140303
0.000169729
-2.39718e-06
-0.000103255
0.00019365
-4.91317e-05
0.000240724
-0.000138801
-0.000105904
0.000170836
-0.000118229
0.000129477
-0.000106207
9.05055e-05
-7.19754e-05
4.62811e-05
-2.22521e-06
-0.000388447
0.000106673
5.83466e-05
-0.000560206
0.000161907
-0.000129169
-0.000681273
0.000274867
-0.000565477
-0.000636224
0.000392332
-0.00113283
0.000635546
-0.00263479
-0.000299612
0.000155266
0.000119462
-0.000407242
0.000220326
3.34835e-07
-0.000450921
0.000340492
-0.000243897
-0.000392762
0.000450489
-0.000471392
0.000680619
-0.00113209
-0.000251478
0.000168009
0.000168305
-0.000329029
0.000225565
6.98423e-05
-0.000341064
0.000328473
-9.21415e-05
-0.000275337
0.000406761
-0.00024427
0.000559448
-0.000564919
-0.000184246
0.000147729
0.000210248
-0.000226094
0.000183672
0.000161965
-0.0002209
0.000250863
7.00177e-05
-0.000162455
0.00029911
7.3815e-08
0.000387681
-0.000129047
-0.000148315
0.000250846
-0.000168525
0.000209962
-0.000155818
0.000168223
-0.000107198
0.000118976
5.84305e-05
-0.000586002
0.000145279
0.000201275
-0.000967227
0.000257513
-5.73204e-06
-0.00145926
0.00048732
-0.000560945
-0.00161238
0.000805456
-0.00178515
0.00161356
-0.00141098
-0.0017568
-0.00128265
-0.00141035
-0.000396571
0.000192897
0.000259207
-0.000603724
0.000291089
0.000173913
-0.000772585
0.000534225
-0.000121941
-0.000805846
0.000771853
-0.000404528
0.00145907
-0.00178358
-0.00032382
0.000199493
0.000295201
-0.000466074
0.000279949
0.000223236
-0.000534542
0.000465402
4.51495e-05
-0.000487389
0.000602904
-0.000122473
0.000966281
-0.00055907
-0.000212615
0.000165002
0.000325211
-0.000280722
0.000211858
0.000298164
-0.000291864
0.000323178
0.000223383
-0.000258159
0.000395917
0.000173356
0.000585325
-5.77455e-06
-0.000165711
0.000349851
-0.000200122
0.00032487
-0.00019345
0.000295072
-0.000145739
0.000258587
0.000201458
-0.000821158
0.000186825
0.000429381
-0.00151035
0.000333168
0.00034983
-0.0028072
0.000738806
-3.41771e-06
-0.000624809
0.00146923
-0.000394801
-0.00102351
-0.000331894
-0.000670921
-0.000710903
-0.00131012
-0.000995641
-0.000450224
0.000490099
-0.00207802
-0.000535145
0.000244952
0.000456665
-0.000873204
0.000388565
0.000456574
-0.00129281
0.000779517
0.000256953
-0.00146935
0.00129266
-5.14186e-05
0.0028062
-0.000667099
-0.00102372
-0.000333405
-0.000392716
-0.000710324
-0.000624292
-0.000995774
-0.00131083
-0.000420632
0.000244
0.000469028
-0.000616855
0.000358464
0.000449561
-0.000780104
0.000615959
0.000371957
-0.000739015
0.000872544
0.000256558
0.00150833
1.05385e-06
-0.000267677
0.000202126
0.000468874
-0.000359268
0.000266855
0.000481365
-0.000389335
0.000419747
0.000449663
-0.000333923
0.000534555
0.000455933
0.000819935
0.000349292
-0.000202978
0.000465802
-0.000244719
0.00046853
-0.00024564
0.000469004
-0.000187381
0.000456115
0.000429807
-0.00106517
0.00021509
0.000826123
-0.00215877
0.000420671
0.00102221
-0.00125934
0.00110449
0.00176053
-0.00108979
-0.00150295
-0.00117587
-0.00207213
0.000494082
-7.71791e-05
0.000799966
0.000683165
-0.000879066
0.000267618
-0.000872475
-0.000598993
0.000255501
0.000747275
-0.00102671
0.000428254
0.000876708
-0.00193316
0.00103704
0.00123086
-0.000840622
0.00193303
0.000591644
0.000758769
0.000414294
0.00059115
-0.000625726
-0.000842708
-0.000519562
-0.00114856
-0.000626666
-0.00115207
-0.000517565
-0.00197079
-0.000808384
0.00151602
-0.000244572
-0.000449806
0.000238991
0.000697489
-0.000719751
0.00035833
0.00078943
-0.00103621
0.000718918
0.00100654
-0.00110305
0.00102576
0.00123067
0.00215759
0.00176314
-0.00109011
-0.00125801
-0.00117271
-0.00150074
-0.000252657
0.000185839
0.000631713
-0.000359488
0.000251699
0.000694827
-0.000429621
0.000449269
0.000789446
-0.000422288
0.000598555
0.000875799
0.0010642
0.00102093
-0.000186604
0.000586818
-0.000239641
0.000631296
-0.000255849
0.000697218
-0.000215297
0.000746495
0.000825846
-0.000850057
0.000160213
0.00112356
-0.0015324
0.000327649
0.00137622
-0.00136627
0.00075302
0.00270224
-0.00101914
-0.000485849
-0.000356876
0.000501966
0.00137495
-0.00066878
-0.00055756
-0.000740341
-0.000707677
-0.000569394
0.00106724
0.00220835
-0.000332704
0.000396968
-0.00333984
-0.000516203
0.000220164
0.000972363
-0.000814164
0.000345001
0.00115732
-0.000622097
0.000821264
0.00183243
-0.000435596
-0.000215624
-0.000210668
-0.000607483
-0.000755276
0.000532762
0.000799544
-0.000668628
0.000337874
-0.000307465
-0.000380903
0.000481197
0.000537925
-0.000390087
0.000205343
0.000867127
-0.000602142
0.000307037
0.00103945
-0.000820723
0.000601227
0.00144516
-0.000753347
0.000813638
0.00182976
-0.000434573
-0.000621768
-0.000209566
-0.000214191
0.00153162
0.00270176
-0.00101752
-0.00136401
-0.000356345
-0.000483344
-0.000224646
0.000171148
0.000758139
-0.000308284
0.000223471
0.00086203
-0.000346456
0.000388968
0.00103988
-0.000329101
0.000515423
0.00115666
0.000849037
0.00137472
-0.000172374
0.000667388
-0.000206276
0.000757719
-0.000221032
0.000867185
-0.000161071
0.000971793
0.00112338
-3.87263e-05
-4.51058e-06
0.000991584
5.11869e-05
8.36042e-05
0.00120183
0.000155566
-0.000172523
0.00155749
0.000234783
0.000567716
0.000408922
0.00101499
-8.43528e-05
0.000461754
-0.00123937
-0.000504647
0.0034702
0.000255948
-0.000319033
-0.00290101
-7.5596e-05
3.09478e-05
0.00091232
-2.43365e-05
8.97019e-05
0.00109996
0.000384926
-9.75834e-05
0.00134823
0.000476641
-0.000383541
0.00124777
9.02121e-05
0.0004793
6.63484e-05
0.000677562
9.18371e-05
0.000675034
5.69333e-05
-0.000676417
-0.00112438
-0.000615884
-0.000676489
0.000306148
0.000505932
-0.000763652
0.000393529
0.000549665
0.000376013
0.000591275
-0.000392684
-0.000273166
-0.000419766
-0.000396653
-8.35734e-05
5.32996e-05
0.000843144
-2.70878e-05
7.86564e-05
0.00099401
0.000100421
2.67732e-05
0.00119329
0.000177329
2.44638e-05
0.00134484
-4.27268e-05
0.00154862
0.000237633
0.000150165
0.000414785
0.000572733
-7.45733e-05
6.26054e-05
0.000762596
-8.04978e-05
7.33882e-05
0.000873223
-9.2738e-05
8.33738e-05
0.000995517
-8.75562e-05
7.59659e-05
0.00109998
3.84791e-05
0.00120591
-6.34383e-05
0.000679265
-5.38194e-05
0.000761887
-3.05338e-05
0.000842449
5.55134e-06
0.000910995
0.000989798
3.85474e-05
-6.13362e-05
0.00085298
-3.35845e-05
6.56406e-05
0.00120662
0.000380072
-0.000273872
0.00105978
0.000347194
-0.000102583
0.000114403
0.00030272
0.000607473
-3.40833e-06
-0.00052715
0.00830009
0.000451665
-0.000984414
-0.000801047
-0.00184775
-0.00161847
-0.00156968
-0.00192842
1.69297e-05
-3.3651e-05
0.000829714
7.53823e-05
3.11674e-05
0.00107598
0.000227427
-0.000195524
0.00111784
0.000198422
-0.000221414
0.00033406
0.000267913
0.000271725
0.000333466
-8.38023e-06
0.000181086
0.000211167
-0.000155143
-2.19716e-06
-0.000147818
0.000212313
0.000518279
0.00105895
0.000215559
-0.000611907
-0.000982456
-1.8184e-06
-1.679e-05
0.000769424
9.5085e-05
3.0907e-06
0.000925184
0.000190702
-9.87686e-05
0.00100092
0.000270797
-7.56337e-05
0.00111897
2.66117e-05
0.00105886
0.000353073
0.000394979
9.03536e-05
-0.000104746
-1.38537e-05
1.71803e-05
0.000722192
-4.36129e-06
1.25511e-05
0.00085427
-3.19828e-05
-8.94978e-07
0.000925265
-6.75565e-05
-1.70403e-05
0.00107696
-4.17709e-05
0.00120784
-1.91476e-05
0.000634213
1.4946e-05
0.000722189
3.18918e-05
0.000769224
6.02048e-05
0.000829675
0.000852394
-2.44431e-06
-1.94552e-05
0.000942171
-0.000135794
-2.41979e-05
0.00136152
-0.000598665
0.000115909
0.00207306
-0.000335421
-0.000255502
-7.96328e-05
0.00027985
0.000443915
0.00036953
-0.0004336
-0.000421262
-0.00040584
-0.000430369
0.00153322
0.000946067
-0.000893573
0.000333564
-0.00191702
8.09421e-05
-2.50282e-05
0.000857087
8.10926e-05
-7.66376e-05
0.00112827
-0.000269805
7.05389e-05
0.00161716
-8.49832e-05
-8.96504e-05
7.15781e-05
-0.00020796
-0.000390922
0.000140967
0.000522169
-0.000353748
0.000857725
-0.0006678
-0.000386253
-0.000727914
0.000628093
0.000241005
0.000245646
0.000255462
0.000202126
0.000466394
-0.000244254
-0.000171734
-0.000217196
-0.000127551
6.07188e-05
-4.05391e-05
0.000760159
2.86941e-05
-8.62334e-05
0.000966804
-7.20252e-05
-3.13368e-05
0.00120352
-0.000117868
-8.28341e-05
0.00162096
-8.5638e-05
-0.000270179
7.18908e-05
-8.93865e-05
0.000130296
0.00207963
-0.000338318
-0.000594323
-8.20645e-05
-0.000253793
6.97293e-05
-2.54846e-05
0.00068725
8.53106e-05
-7.09842e-05
0.00082344
7.57897e-05
-6.271e-05
0.000966159
2.24409e-05
-8.13721e-05
0.00112884
6.99688e-07
0.001361
2.36631e-05
0.000592667
3.9066e-05
0.000687568
2.36752e-05
0.000760326
1.8584e-05
0.000857849
0.000943598
0.000640065
-0.000134913
0.000776574
0.00130973
-0.000260253
0.000952086
0.000229057
-0.000523696
0.00169345
0.000316473
0.000878452
0.000791807
-6.13873e-05
0.00107474
-0.00109549
0.000155003
-2.37991e-05
-1.24533e-06
0.000181166
0.00371854
-0.000124877
3.49347e-05
-0.000166651
-0.0034618
0.00045684
-0.000158474
0.000697298
0.000816139
-0.000320691
0.000829409
0.00136838
-0.000608759
0.00114998
0.000399977
-0.00136988
0.00156486
0.000233931
0.000401904
0.00042484
0.000980537
0.000249502