/*--------------------------------*- C++ -*----------------------------------*\
| =========                 |                                                 |
| \\      /  F ield         | OpenFOAM: The Open Source CFD Toolbox           |
|  \\    /   O peration     | Version:  5.x                                   |
|   \\  /    A nd           | Web:      www.OpenFOAM.org                      |
|    \\/     M anipulation  |                                                 |
\*---------------------------------------------------------------------------*/
FoamFile
{
    version     2.0;
    format      ascii;
    class       volScalarField;
    location    "0.051";
    object      phiIB;
}
// * * * * * * * * * * * * * * * * * * * * * * * * * * * * * * * * * * * * * //

dimensions      [0 2 -1 0 0 0 0];

internalField   nonuniform List<scalar> 
1553
(
-7.77325e-05
-7.77022e-05
-7.77038e-05
-7.76893e-05
-7.76922e-05
-7.77314e-05
-7.77011e-05
-7.77025e-05
-7.7688e-05
-7.76908e-05
-7.77425e-05
-7.77122e-05
-7.77135e-05
-7.7699e-05
-7.77017e-05
-7.77423e-05
-7.77121e-05
-7.77133e-05
-7.76988e-05
-7.77016e-05
-7.7767e-05
-7.7737e-05
-7.77383e-05
-7.77239e-05
-7.77266e-05
-0.000170381
-0.00017037
-0.000170363
-0.000170356
-0.000170353
-0.000170382
-0.000170371
-0.000170364
-0.000170357
-0.000170355
-0.000170386
-0.000170376
-0.000170369
-0.000170362
-0.00017036
-0.000170392
-0.000170381
-0.000170374
-0.000170367
-0.000170365
-0.000170399
-0.000170388
-0.000170382
-0.000170375
-0.000170373
-0.000358005
-0.000357967
-0.000357958
-0.000357937
-0.000357935
-0.000358006
-0.000357968
-0.000357959
-0.000357938
-0.000357936
-0.000358021
-0.000357984
-0.000357974
-0.000357953
-0.000357951
-0.000358029
-0.000357991
-0.000357982
-0.000357961
-0.000357959
-0.00035806
-0.000358023
-0.000358013
-0.000357993
-0.00035799
-0.000488834
-0.000488795
-0.00048878
-0.000488758
-0.000488753
-0.000488835
-0.000488797
-0.000488782
-0.00048876
-0.000488755
-0.000488851
-0.000488813
-0.000488798
-0.000488776
-0.000488771
-0.000488863
-0.000488825
-0.00048881
-0.000488788
-0.000488784
-0.000488894
-0.000488857
-0.000488842
-0.00048882
-0.000488816
-0.000661157
-0.000661097
-0.000661077
-0.000661044
-0.000661038
-0.000661159
-0.000661099
-0.000661079
-0.000661046
-0.00066104
-0.000661184
-0.000661124
-0.000661104
-0.000661071
-0.000661066
-0.0006612
-0.000661141
-0.000661121
-0.000661088
-0.000661083
-0.000661251
-0.000661192
-0.000661172
-0.00066114
-0.000661134
-0.000803824
-0.000803746
-0.000803718
-0.000803673
-0.000803666
-0.000803827
-0.000803749
-0.000803721
-0.000803677
-0.000803669
-0.000803861
-0.000803783
-0.000803755
-0.000803712
-0.000803704
-0.000803884
-0.000803807
-0.000803779
-0.000803736
-0.000803728
-0.000803952
-0.000803875
-0.000803848
-0.000803805
-0.000803798
-0.00096755
-0.000967442
-0.000967403
-0.000967343
-0.000967332
-0.000967554
-0.000967446
-0.000967407
-0.000967348
-0.000967338
-0.0009676
-0.000967493
-0.000967455
-0.000967396
-0.000967386
-0.000967633
-0.000967526
-0.000967489
-0.00096743
-0.000967421
-0.000967727
-0.000967622
-0.000967585
-0.000967527
-0.000967518
-0.00111604
-0.00111588
-0.00111583
-0.00111575
-0.00111574
-0.00111604
-0.00111589
-0.00111584
-0.00111576
-0.00111574
-0.00111611
-0.00111596
-0.00111591
-0.00111583
-0.00111581
-0.00111616
-0.00111601
-0.00111595
-0.00111587
-0.00111586
-0.00111629
-0.00111614
-0.00111609
-0.00111601
-0.001116
-0.00127457
-0.00127436
-0.00127429
-0.00127418
-0.00127416
-0.00127457
-0.00127437
-0.0012743
-0.00127419
-0.00127417
-0.00127466
-0.00127446
-0.00127439
-0.00127428
-0.00127426
-0.00127473
-0.00127453
-0.00127445
-0.00127435
-0.00127433
-0.00127491
-0.00127471
-0.00127464
-0.00127454
-0.00127452
-0.00142578
-0.00142548
-0.00142538
-0.00142523
-0.00142521
-0.00142579
-0.00142549
-0.00142539
-0.00142524
-0.00142522
-0.00142593
-0.00142563
-0.00142553
-0.00142537
-0.00142535
-0.00142602
-0.00142572
-0.00142562
-0.00142546
-0.00142544
-0.00142629
-0.001426
-0.0014259
-0.00142575
-0.00142572
-0.00158069
-0.00158029
-0.00158013
-0.00157991
-0.00157987
-0.00158072
-0.00158031
-0.00158016
-0.00157994
-0.0015799
-0.00158091
-0.00158051
-0.00158035
-0.00158014
-0.0015801
-0.00158105
-0.00158065
-0.0015805
-0.00158028
-0.00158024
-0.00158141
-0.00158103
-0.00158088
-0.00158067
-0.00158063
-0.00173222
-0.00173159
-0.0017313
-0.00173091
-0.00173081
-0.00173228
-0.00173165
-0.00173137
-0.00173099
-0.0017309
-0.00173258
-0.00173197
-0.0017317
-0.00173134
-0.00173125
-0.00173281
-0.0017322
-0.00173195
-0.00173162
-0.00173154
-0.00173337
-0.00173278
-0.00173255
-0.00173222
-0.00173215
-0.00188396
-0.00188306
-0.00188261
-0.00188197
-0.0018817
-0.00188406
-0.00188318
-0.00188276
-0.00188217
-0.00188195
-0.00188451
-0.00188367
-0.00188326
-0.00188273
-0.00188256
-0.00188483
-0.00188403
-0.00188366
-0.00188314
-0.001883
-0.00188558
-0.0018848
-0.00188446
-0.00188399
-0.00188387
-0.0020332
-0.002032
-0.00203099
-0.00202938
-0.00202863
-0.0020334
-0.00203221
-0.00203136
-0.00202996
-0.00202934
-0.00203413
-0.00203293
-0.00203232
-0.00203131
-0.00203091
-0.00203453
-0.0020334
-0.00203292
-0.00203215
-0.00203193
-0.00203557
-0.0020345
-0.00203408
-0.00203332
-0.0020331
-0.00218013
-0.00217828
-0.00217748
-0.00217751
-0.0021781
-0.00218026
-0.00217859
-0.00217767
-0.00217723
-0.0021775
-0.00218096
-0.00217956
-0.00217876
-0.00217762
-0.00217742
-0.00218136
-0.00218006
-0.00217955
-0.00217852
-0.0021782
-0.00218256
-0.00218133
-0.00218093
-0.00218018
-0.00218004
-0.00232081
-0.0023187
-0.00232092
-0.00232539
-0.00232853
-0.00232044
-0.00231838
-0.00231963
-0.00232286
-0.00232544
-0.00232076
-0.00231917
-0.00231909
-0.00231962
-0.00232096
-0.00232051
-0.00231931
-0.00231918
-0.00231837
-0.00231869
-0.00232162
-0.00232047
-0.00232074
-0.00232039
-0.00232075
-0.0024504
-0.00245131
-0.00245556
-0.00245829
-0.00246041
-0.00244959
-0.00244941
-0.00245316
-0.00245617
-0.00245833
-0.00244918
-0.00244758
-0.00244973
-0.00245316
-0.00245559
-0.00244826
-0.00244658
-0.00244761
-0.00244942
-0.00245136
-0.00244982
-0.00244821
-0.00244915
-0.00244952
-0.00245032
-0.00255983
-0.0025604
-0.00256268
-0.00256198
-0.00256216
-0.00255904
-0.00255908
-0.0025616
-0.00256147
-0.00256198
-0.00255871
-0.00255729
-0.00256038
-0.00256156
-0.00256264
-0.00255802
-0.00255517
-0.0025573
-0.00255904
-0.00256039
-0.00256196
-0.00255797
-0.00255865
-0.00255893
-0.00255978
-0.00264972
-0.00264437
-0.0026412
-0.00263633
-0.00263372
-0.00264874
-0.00264474
-0.00264242
-0.00263831
-0.00263629
-0.00264976
-0.00264631
-0.0026453
-0.00264232
-0.00264105
-0.00265129
-0.00264663
-0.0026463
-0.00264464
-0.00264426
-0.00265733
-0.00265121
-0.00264967
-0.00264861
-0.00264965
-0.00271309
-0.00269992
-0.00269025
-0.00267985
-0.00267406
-0.00271364
-0.00270213
-0.00269394
-0.00268475
-0.00267979
-0.00271723
-0.00270804
-0.00270165
-0.00269379
-0.00269004
-0.00272221
-0.00271329
-0.002708
-0.00270196
-0.0026997
-0.00273086
-0.00272209
-0.0027171
-0.00271343
-0.00271278
-0.00275678
-0.00273746
-0.00271988
-0.00270449
-0.00269383
-0.00275966
-0.00274237
-0.0027273
-0.00271365
-0.0027044
-0.00276699
-0.00275153
-0.00273922
-0.00272711
-0.00271962
-0.00277465
-0.00276113
-0.00275148
-0.00274213
-0.00273715
-0.00278642
-0.00277449
-0.00276679
-0.00275929
-0.00275633
-0.00278596
-0.00275903
-0.00274102
-0.00272663
-0.00272116
-0.00278925
-0.00276458
-0.00274754
-0.00273318
-0.00272658
-0.002799
-0.00277648
-0.00276124
-0.00274731
-0.00274073
-0.00280727
-0.00278853
-0.00277642
-0.0027643
-0.00275869
-0.00282215
-0.0028071
-0.00279876
-0.00278879
-0.00278543
-0.00280064
-0.00276298
-0.00273006
-0.00270501
-0.00267481
-0.00280623
-0.00277355
-0.00274538
-0.00272525
-0.00270486
-0.00281799
-0.00278791
-0.00276401
-0.00274519
-0.00272978
-0.00282846
-0.00280551
-0.00278786
-0.00277324
-0.00276259
-0.0028477
-0.00282827
-0.00281776
-0.00280573
-0.00280009
-0.00282905
-0.00279218
-0.00277493
-0.00275915
-0.00276789
-0.00282962
-0.00279618
-0.00277935
-0.0027652
-0.00275915
-0.00283619
-0.00280711
-0.00279183
-0.002779
-0.00277456
-0.00284082
-0.00281768
-0.00280709
-0.00279579
-0.00279175
-0.00286058
-0.00284058
-0.0028359
-0.00282894
-0.00282828
-0.00280639
-0.00273929
-0.00266332
-0.00260676
-0.00245422
-0.00281315
-0.00276339
-0.0027104
-0.00267633
-0.0026064
-0.00282355
-0.0027817
-0.00274112
-0.00271035
-0.0026632
-0.00283526
-0.00280354
-0.00278167
-0.00276313
-0.00273889
-0.0028632
-0.00283511
-0.0028235
-0.00281282
-0.00280598
-0.00284127
-0.00279114
-0.00278279
-0.0027271
-0.00281643
-0.00283942
-0.00279675
-0.00278141
-0.00276393
-0.00272719
-0.00284359
-0.00280091
-0.00279039
-0.0027809
-0.00278234
-0.00284609
-0.00281116
-0.00280089
-0.0027962
-0.00279066
-0.00287332
-0.00284573
-0.00284324
-0.00283871
-0.00284073
-0.00276086
-0.00265061
-0.00248791
-0.00240458
-0.00160648
-0.00277142
-0.00268366
-0.00261037
-0.00257517
-0.00240312
-0.00278596
-0.00270801
-0.00264974
-0.00261031
-0.00248758
-0.00280537
-0.0027515
-0.0027078
-0.00268315
-0.00264971
-0.00284582
-0.00280535
-0.00278609
-0.00277133
-0.00276103
-0.00279878
-0.00264775
-0.00255455
-0.002371
-0.0025759
-0.00279756
-0.00270988
-0.00266689
-0.00271367
-0.00237262
-0.00280988
-0.00273887
-0.00270621
-0.00266617
-0.00255309
-0.00281094
-0.00276089
-0.00273857
-0.00270868
-0.00264595
-0.0028507
-0.00281055
-0.00280941
-0.00279653
-0.00279774
-0.00273519
-0.00251655
-0.0025
-0.002245
-0.0011216
-0.00272076
-0.00256622
-0.00250245
-0.00220316
-0.00192462
-0.00274105
-0.00263899
-0.00259833
-0.00250261
-0.00250411
-0.00274927
-0.00268197
-0.00263842
-0.0025651
-0.0025143
-0.00279114
-0.00274956
-0.00274152
-0.00272095
-0.00273576
-0.00282274
-0.00274546
-0.00286386
-0.00284493
-0.00129546
-0.00277361
-0.00270006
-0.00279229
-0.00269136
-0.00267378
-0.00278463
-0.0027344
-0.00278526
-0.002792
-0.00286494
-0.00275478
-0.00271569
-0.00273339
-0.00269774
-0.0027417
-0.00279223
-0.00275451
-0.00278385
-0.00277201
-0.00282059
-0.00266196
-0.0025849
-0.00251017
-0.00261116
-0.00364871
-0.00263944
-0.00258246
-0.00251861
-0.0024464
-0.00293644
-0.00266606
-0.00259945
-0.00257107
-0.00251734
-0.00251063
-0.00265518
-0.00262281
-0.00259801
-0.00257955
-0.00258016
-0.00268608
-0.00265567
-0.00266582
-0.00263812
-0.00266025
-0.00262947
-0.00257764
-0.00237576
-0.00212584
-0.00139139
-0.00262776
-0.00256206
-0.00251919
-0.00240997
-0.00232025
-0.00265088
-0.00259244
-0.00255853
-0.00251969
-0.0023727
-0.00262671
-0.00259941
-0.00259012
-0.00255834
-0.00257313
-0.00266214
-0.00262679
-0.00264948
-0.00262469
-0.00262601
-0.00250759
-0.00250832
-0.00248642
-0.00210642
-0.0013319
-0.00248274
-0.00248049
-0.00240606
-0.00237034
-0.00200403
-0.00250175
-0.0024752
-0.00247248
-0.00240167
-0.00248264
-0.00249069
-0.00248705
-0.00247445
-0.00247668
-0.00250303
-0.0025099
-0.00249046
-0.00250092
-0.00247847
-0.00250383
-0.00260469
-0.00261494
-0.00290834
-0.0027499
-0.0052486
-0.00257629
-0.00258586
-0.00276067
-0.00273614
-0.00326617
-0.00255101
-0.00257153
-0.0026335
-0.0027595
-0.00290933
-0.00251359
-0.00251787
-0.00257012
-0.00258137
-0.00260311
-0.00252226
-0.00251324
-0.00255054
-0.00257408
-0.00260362
-0.0023102
-0.0023037
-0.00228044
-0.00250042
-0.00280056
-0.00229912
-0.00223599
-0.00229838
-0.00208966
-0.00245519
-0.00230698
-0.00228562
-0.00230601
-0.00229965
-0.00229031
-0.00228838
-0.00227254
-0.00228744
-0.00223378
-0.00229991
-0.00229931
-0.00228645
-0.00230549
-0.00229489
-0.00230654
-0.00231211
-0.00233907
-0.00224707
-0.00253074
-0.00215198
-0.00231882
-0.00234325
-0.00235861
-0.00247686
-0.00251892
-0.00231596
-0.00232226
-0.002321
-0.00236223
-0.00225378
-0.00229543
-0.00230631
-0.00232245
-0.0023428
-0.00233758
-0.00230156
-0.00229426
-0.0023151
-0.00231757
-0.00231229
-0.00191871
-0.00189808
-0.00188248
-0.00193753
-0.00195827
-0.00192024
-0.00189716
-0.0018914
-0.00186049
-0.00193568
-0.00192213
-0.00191279
-0.00190381
-0.00188969
-0.00188278
-0.00190196
-0.00190548
-0.00191473
-0.00189697
-0.00189978
-0.00190175
-0.00190031
-0.00192101
-0.00191744
-0.00191737
-0.00161222
-0.0016241
-0.00163161
-0.00170565
-0.00162802
-0.00161756
-0.00162855
-0.00164516
-0.00170357
-0.00170377
-0.00162574
-0.00161856
-0.00162017
-0.00164444
-0.00163178
-0.00162384
-0.00162296
-0.00161953
-0.00162854
-0.00162492
-0.00163303
-0.00162284
-0.00162521
-0.00161625
-0.00161184
-0.000816402
-0.000829298
-0.000847891
-0.000862519
-0.000860158
-0.000809198
-0.000819219
-0.000843613
-0.000852808
-0.000862448
-0.000812715
-0.000814266
-0.000831842
-0.000842114
-0.000847077
-0.00082111
-0.000813522
-0.000814936
-0.000818825
-0.000829785
-0.00083291
-0.000820344
-0.00081206
-0.000807665
-0.000815311
-0.000422259
-0.000447623
-0.000507678
-0.000589502
-0.000637825
-0.000416854
-0.000439361
-0.000477057
-0.000542634
-0.000591016
-0.00041499
-0.000424617
-0.000443
-0.000475565
-0.000507485
-0.000407972
-0.000416571
-0.0004253
-0.000438944
-0.000448277
-0.000410045
-0.000407002
-0.000414328
-0.00041527
-0.000421238
-0.00297552
-0.00243184
-0.00293508
-0.00266141
-0.00209493
-0.00256608
-0.00246479
-0.00406272
-0.00268687
-0.00362918
-0.00268593
-0.00152979
-0.00240137
-0.00260034
-0.00298466
-0.00242514
-0.00258793
-0.00247893
-0.00209334
-0.0025621
-0.00263973
-0.000972401
-0.0019042
-0.00147449
-0.000794948
0.00192519
-0.00205662
-0.000790977
0.00201486
-0.00229185
-0.00132602
-0.00514754
-0.00347899
-0.00319325
-0.0050703
-0.00354267
-0.00276983
-0.00325827
-0.00253505
-0.00328758
-0.00245093
-0.00309208
-0.0040779
-0.00331584
-0.00516156
-0.00271075
-0.00390909
-0.00212708
-0.00272767
-0.00351925
-0.0027676
-0.00274874
-0.00310752
-0.00329403
-0.00241466
-0.00248016
-0.00290702
-0.00248302
-0.00277998
-0.00202995
-0.00253228
-0.00244427
-0.00238081
-0.00387998
-0.00382227
-0.00372323
-0.00241554
-0.00350615
-0.00338601
-0.00400968
-0.00370254
-0.00421988
-0.00325825
-0.00324888
-0.00274604
-0.00413151
-0.00406083
-0.00388157
-0.00372781
-0.00366721
-0.00243685
-0.00344298
-0.00338628
-0.00392128
-0.00125675
-0.00239027
-0.00128308
-0.0042664
-0.00408023
-0.0029461
-0.00424056
-0.00239421
-0.00373678
-0.0037144
-0.00489275
-0.003425
-0.00349704
-0.00342371
-0.00354656
-0.00392789
-0.00334459
-0.00247942
-0.00368454
-0.00198314
-0.0043802
-0.00351804
-0.00386443
-0.00332885
-0.00248277
-0.00365781
-0.00199209
-0.00429154
-0.00382932
-0.00275195
-0.00296831
-0.0029846
-0.00342119
-0.00337807
-0.00363366
-0.00395776
-0.00324845
-0.00324777
-0.00196211
-0.00393051
-0.0028844
-0.00290008
-0.00429929
-0.00422913
-0.00420054
-0.00440771
-0.00433656
-0.00449685
-0.00446756
-0.00427226
-0.0043764
-0.00494919
-0.0043592
-0.00438544
-0.00399296
-0.00450305
-0.00426432
-0.00431765
-0.00490509
-0.0042963
-0.00436638
-0.0039592
-0.00446518
-0.00415338
-0.00413786
-0.00420106
-0.00425059
-0.00377895
-0.00403092
-0.00401978
-0.00372643
-0.00261586
-0.00267531
-0.00272989
-0.00396492
-0.0027258
-0.00293275
-0.00371892
-0.0026143
-0.00283463
-0.00293023
-0.00394479
-0.0027223
-0.00271985
-0.0044002
-0.00401106
-0.00414051
-0.00451272
-0.00514424
-0.00498977
-0.004482
-0.00434233
-0.00398946
-0.00410395
-0.00449364
-0.00512578
-0.00497251
-0.00445386
-0.00462011
-0.00389497
-0.00386232
-0.00314493
-0.00510932
-0.00380383
-0.00378236
-0.00341736
-0.00341643
-0.0046146
-0.00508354
-0.0031792
-0.00367967
-0.00367198
-0.0032057
-0.00238546
-0.00373672
-0.00371749
-0.00398172
-0.00275202
-0.0027462
-0.00153267
-0.00234931
-0.00201098
-0.0029931
-0.00342094
-0.00286343
-0.00289303
-0.00152101
-0.00233718
-0.00209616
-0.00289744
-0.00339202
-0.00284983
-0.00296981
-0.00429087
-0.00240042
-0.00423567
-0.00441544
-0.00247122
-0.00439256
-0.00349459
-0.00428246
-0.00235452
-0.00418984
-0.00437166
-0.0024428
-0.00436292
-0.00347003
-0.00283084
-0.0032869
-0.00343254
-0.00377168
-0.00318435
-0.00370635
-0.00294967
-0.00280892
-0.00341693
-0.00326801
-0.00376331
-0.00317589
-0.00369602
-0.00291385
0.000634443
-0.00194644
-0.00111766
-0.000936394
0.00202735
-0.00204725
-0.000941148
-0.00387042
-0.00203663
-0.00203387
-0.00298287
-0.00252694
-0.00345108
-0.00344387
-0.00470788
-0.00394134
-0.0017187
-0.00458897
-0.0038704
-0.00389662
-0.00433051
-0.00469631
-0.00394104
-0.00169737
-0.00456296
-0.0038747
-0.00387918
-0.00431446
-0.0026543
-0.00343718
-0.00245565
-0.00333576
-0.00315869
-0.00301703
-0.00319576
-0.00342517
-0.00264118
-0.00245558
-0.0033328
-0.00315529
-0.00301894
-0.00319195
-0.0035129
-0.0025997
-0.00375714
-0.00373679
-0.00338188
-0.00336298
-0.00506313
-0.00528837
-0.00335528
-0.0033501
-0.00285904
-0.0026117
-0.00382905
-0.00381852
-0.00117143
0.00168366
0.00153774
-0.00056499
0.000217184
-0.000933583
-0.00095667
-0.00281693
-0.0025044
-0.00268937
-0.00268641
-0.00294166
-0.00260179
-0.00268545
-0.00330944
-0.00262284
-0.00284609
-0.00289701
-0.00308108
-0.00299304
-0.00277361
-0.00330589
-0.00262346
-0.00284205
-0.00289848
-0.00308256
-0.00299233
-0.00277517
-0.00365446
-0.00302167
-0.00328405
-0.00346712
-0.00289537
-0.00253586
-0.00249913
-0.00363327
-0.00326672
-0.00299409
-0.00345294
-0.00287723
-0.00252211
-0.00248043
-0.00159392
0.00100509
-0.00191901
-0.000393154
0.000451681
-0.00140105
-0.0020299
-0.00157434
0.000977026
-0.00192699
-0.000369107
0.000397249
-0.00139902
-0.00200896
0.00100771
0.00100494
0.000589808
5.35316e-05
0.00700574
0.00256268
0.00255314
-0.00172384
-0.00240665
-0.00192259
-0.0016515
-0.00184975
-0.00224566
-0.00213169
-0.00171395
-0.00240715
-0.00224434
-0.00213669
-0.00184068
-0.00224021
-0.00164313
-0.00321858
-0.00338632
-0.00336766
-0.00264553
-0.00235942
-0.00242381
-0.00287998
-0.00321265
-0.00337384
-0.00335801
-0.00264768
-0.00235071
-0.00241454
-0.0028671
-0.000773773
-0.00182433
-0.0018077
-0.00215152
-0.000163781
-0.00225738
-0.00224624
-0.000642631
-0.0017611
-0.000864169
0.000654651
-0.00133385
-0.00130222
0.000831397
-0.000643226
-0.00175285
-0.000954263
0.000666974
-0.0013528
-0.00128202
0.000804821
-0.00221254
-0.00218912
-0.00129211
-0.000198888
-0.00185314
-0.00141554
-0.00142755
-0.00222338
-0.0025449
-0.0023647
-0.00257515
-0.00236965
-0.0025429
-0.0025695
-0.0028571
-0.00312121
-0.00267283
-0.00290627
-0.00276975
-0.00274619
-0.00264299
-0.00285364
-0.00311857
-0.00267181
-0.00289725
-0.0027621
-0.00273241
-0.00263596
-0.00111668
0.000484971
0.0013111
0.0013156
0.00114522
-0.00032783
-0.000363718
-0.00278553
-0.00290687
-0.00317891
-0.00283983
-0.00255045
-0.00272494
-0.00262702
-0.00278546
-0.00290575
-0.00318186
-0.00284353
-0.00255127
-0.00273354
-0.00262598
-0.0022927
-0.00227952
-0.00236659
-0.00264138
-0.00135751
-0.002742
-0.0018269
-0.00226979
-0.00226128
-0.00214551
-0.00178698
-0.00132335
-0.00272233
-0.0026223
-0.000965896
-0.00178395
0.00152069
-0.00117657
-0.00204262
0.000668799
-0.000621496
-0.000980346
-0.00174003
0.00150069
-0.00118273
-0.00203477
0.000649778
-0.000630106
-0.00206648
-0.00146192
-0.00235081
-0.00217737
-0.00212131
-0.00220262
-0.00196801
-0.00145469
-0.00205439
-0.00232534
-0.00216299
-0.00210102
-0.00219653
-0.00195069
-0.00239176
-0.0025123
-0.00258712
-0.000886818
7.38025e-05
-0.0015685
-0.000875519
0.00210964
9.50699e-05
0.000119726
0.00319537
-0.000290984
0.0028658
0.00283003
0.000384155
-0.00109111
-0.0011358
-0.000816901
-0.00111487
-0.000925894
0.000914189
0.000395337
-0.00109112
-0.00111937
-0.000822732
-0.00115627
-0.000952807
0.000919686
-0.00170344
-0.00222318
-0.00232535
-0.00131777
-0.00112408
-0.00204526
-0.00209381
-0.00169681
-0.00221698
-0.00235667
-0.00133001
-0.00111934
-0.00202467
-0.00209745
-0.00130888
-0.0020699
-0.00146215
-0.00144555
-0.00188952
-0.00185253
7.39746e-05
)
;

boundaryField
{
    inlet
    {
        type            fixedValue;
        value           uniform 0;
    }
    wall
    {
        type            zeroGradient;
    }
    outlet
    {
        type            fixedValue;
        value           uniform 0;
    }
    procBoundary2to0
    {
        type            processor;
        value           nonuniform List<scalar> 
320
(
-7.77328e-05
-7.77033e-05
-7.77051e-05
-7.76908e-05
-7.76938e-05
-0.000170383
-0.000170371
-0.000170365
-0.000170357
-0.000170355
-0.000358007
-0.00035797
-0.00035796
-0.00035794
-0.000357938
-0.000488837
-0.000488798
-0.000488783
-0.000488761
-0.000488757
-0.00066116
-0.000661101
-0.000661081
-0.000661048
-0.000661043
-0.000803829
-0.00080375
-0.000803722
-0.000803678
-0.000803671
-0.000967555
-0.000967447
-0.000967408
-0.000967349
-0.000967339
-0.00111605
-0.00111589
-0.00111584
-0.00111576
-0.00111575
-0.00127457
-0.00127437
-0.00127429
-0.00127418
-0.00127417
-0.00142579
-0.00142548
-0.00142539
-0.00142524
-0.00142522
-0.0015807
-0.0015803
-0.00158014
-0.00157993
-0.00157989
-0.00173224
-0.00173161
-0.00173131
-0.00173093
-0.00173083
-0.00188397
-0.00188307
-0.00188263
-0.00188199
-0.00188173
-0.00203322
-0.00203202
-0.00203101
-0.00202941
-0.00202866
-0.00218014
-0.0021783
-0.0021775
-0.00217752
-0.0021781
-0.00232082
-0.0023187
-0.00232092
-0.00232537
-0.00232851
-0.00245041
-0.00245131
-0.00245556
-0.00245829
-0.00246041
-0.00255985
-0.00256042
-0.0025627
-0.00256201
-0.0025622
-0.00264975
-0.00264441
-0.00264124
-0.00263638
-0.00263378
-0.00271313
-0.00269998
-0.00269031
-0.00267993
-0.00267414
-0.00275684
-0.00273754
-0.00271997
-0.00270458
-0.00269393
-0.00278602
-0.00275913
-0.00274111
-0.00272676
-0.0027213
-0.00280074
-0.00276307
-0.00273014
-0.00270508
-0.00267487
-0.00282914
-0.00279235
-0.0027751
-0.00275947
-0.00276833
-0.0028065
-0.00273936
-0.00266331
-0.00260671
-0.00245363
-0.00284133
-0.00279145
-0.00278322
-0.00272786
-0.00281869
-0.00276089
-0.00265064
-0.00248746
-0.00240492
-0.00160128
-0.00279881
-0.00264798
-0.00255435
-0.00237303
-0.00258399
-0.0027353
-0.00251677
-0.00250293
-0.0022504
-0.00111802
-0.00282286
-0.00274546
-0.00286553
-0.00284463
-0.00129415
-0.00266193
-0.00258455
-0.00251
-0.00261063
-0.00363945
-0.00262903
-0.00257729
-0.00237636
-0.00214427
-0.00146321
-0.00250721
-0.00250505
-0.00248195
-0.00210683
-0.00134299
-0.0026052
-0.00261393
-0.00291087
-0.00276817
-0.00523943
-0.00230755
-0.00230529
-0.00227829
-0.00250692
-0.0028159
-0.00230914
-0.00233648
-0.0022473
-0.00252282
-0.00216667
-0.0019168
-0.00189783
-0.00188075
-0.00193871
-0.00195387
-0.00161027
-0.00162357
-0.00163062
-0.00170449
-0.00162666
-0.000816401
-0.000829572
-0.000847864
-0.00086289
-0.000860224
-0.000421712
-0.000448016
-0.000507858
-0.000590717
-0.000638377
-0.00264972
-0.00208688
-0.00298648
-0.00258784
-0.00156022
-0.00407071
-0.000808843
0.00196716
-0.00100631
-0.00513995
-0.00348645
0.00205702
-0.00253477
-0.00331925
-0.00356459
-0.00268593
-0.00391871
-0.00408775
-0.00224144
-0.00258316
-0.00296787
-0.00363973
-0.0039626
-0.00379681
-0.00420407
-0.00411253
-0.00325957
-0.00426749
-0.00408563
-0.00126007
-0.0037473
-0.00348735
-0.00490286
-0.00248494
-0.00434714
-0.00391843
-0.00423685
-0.00450198
-0.00441054
-0.00435156
-0.00450693
-0.00437223
-0.00378342
-0.00403518
-0.0041586
-0.00272825
-0.00396267
-0.00372855
-0.00439381
-0.00448295
-0.00514738
-0.00238736
-0.00275606
-0.0037428
-0.00299746
-0.00343074
-0.00153545
-0.00423578
-0.00349888
-0.00239986
-0.00329318
-0.00295163
-0.00380757
-0.000944933
0.00202452
0.000638933
-0.00204266
-0.00345514
-0.00298657
-0.00458927
-0.0043325
-0.00394617
-0.00333966
-0.00319732
-0.00265504
0.00168406
-0.000933936
-0.000554672
-0.00365995
-0.00249709
-0.0030251
-0.000392893
-0.00203456
0.00100373
0.00701123
0.00255878
0.000995743
-0.00164626
-0.00184856
-0.00172599
-0.0023571
-0.00287868
-0.0033861
-0.000651743
0.000810233
-0.00134672
0.000522826
-0.000313978
0.00131211
-0.00264322
-0.00134778
-0.00230841
0.00150723
-0.00060765
-0.00176904
-0.0020706
-0.00196869
-0.00235131
-0.000877596
8.15927e-05
-0.00240168
0.000103955
0.00286658
0.00319174
-0.000814828
0.0009206
-0.00108872
-0.00132711
-0.00209963
-0.0022228
)
;
    }
    procBoundary2to3
    {
        type            processor;
        value           nonuniform List<scalar> 
320
(
-7.76907e-05
-7.76893e-05
-7.77002e-05
-7.77e-05
-7.7725e-05
-0.000170353
-0.000170354
-0.000170359
-0.000170364
-0.000170372
-0.000357933
-0.000357933
-0.000357948
-0.000357956
-0.000357987
-0.000488751
-0.000488752
-0.000488768
-0.000488781
-0.000488813
-0.000661035
-0.000661037
-0.000661062
-0.000661079
-0.00066113
-0.000803662
-0.000803665
-0.000803699
-0.000803724
-0.000803793
-0.000967328
-0.000967332
-0.000967381
-0.000967415
-0.000967512
-0.00111573
-0.00111574
-0.00111581
-0.00111585
-0.00111599
-0.00127415
-0.00127416
-0.00127425
-0.00127432
-0.00127451
-0.0014252
-0.00142521
-0.00142534
-0.00142543
-0.00142571
-0.00157987
-0.00157989
-0.00158009
-0.00158023
-0.00158062
-0.0017308
-0.00173088
-0.00173124
-0.00173153
-0.00173213
-0.00188168
-0.00188193
-0.00188254
-0.00188298
-0.00188385
-0.0020286
-0.00202931
-0.00203088
-0.00203191
-0.00203307
-0.00217809
-0.00217748
-0.00217739
-0.00217817
-0.00218001
-0.00232855
-0.00232546
-0.00232096
-0.00231868
-0.00232074
-0.0024604
-0.00245832
-0.00245559
-0.00245136
-0.0024503
-0.00256213
-0.00256195
-0.00256261
-0.00256036
-0.00255974
-0.00263365
-0.00263622
-0.00264099
-0.00264419
-0.00264959
-0.00267396
-0.00267968
-0.00268993
-0.0026996
-0.00271268
-0.00269373
-0.00270427
-0.00271947
-0.002737
-0.00275617
-0.00272099
-0.0027264
-0.00274054
-0.00275849
-0.00278523
-0.00267472
-0.00270473
-0.0027296
-0.00276237
-0.00279983
-0.0027674
-0.00275877
-0.00277419
-0.00279141
-0.00282792
-0.0024544
-0.00260645
-0.002663
-0.00273864
-0.00280557
-0.00281457
-0.00272611
-0.00278139
-0.00279005
-0.00284018
-0.00160636
-0.00240373
-0.00248749
-0.0026495
-0.00276048
-0.00238677
-0.00236907
-0.00255171
-0.0026449
-0.00279661
0.000621658
-0.00172544
-0.0025015
-0.00251334
-0.00273505
-0.00125438
-0.00371207
-0.00286272
-0.00274022
-0.0028194
-0.00408258
-0.00299262
-0.00250967
-0.00257864
-0.00265963
-0.000864248
-0.00224705
-0.00236709
-0.00257073
-0.00262507
0.00197816
-0.00151906
-0.00247835
-0.00250168
-0.00250234
-0.00406329
-0.00351589
-0.0029067
-0.00260194
-0.00260189
-0.00292835
-0.00245208
-0.00229295
-0.00229751
-0.00230516
-0.00221486
-0.00252918
-0.00226215
-0.00233919
-0.00231125
-0.0019578
-0.0019375
-0.00188383
-0.00189977
-0.00191668
-0.00163397
-0.00170558
-0.00163121
-0.00162431
-0.0016103
-0.000859724
-0.000861857
-0.000846461
-0.000829115
-0.000814794
-0.000636132
-0.000590165
-0.000505943
-0.000447441
-0.000420073
-0.00362653
-0.0025531
-0.00161685
-0.00258279
-0.00263498
-0.00211473
-0.00147642
-0.000791078
0.00189046
-0.00132222
-0.00506253
-0.00346996
-0.00514683
-0.00272849
-0.00399701
-0.00274377
-0.00247137
-0.00330356
-0.00264738
-0.00244595
-0.00211151
-0.00366359
-0.00395577
-0.00364348
-0.00432277
-0.00382765
-0.00318746
-0.00127707
-0.00423332
-0.00408258
-0.00374941
-0.00350262
-0.00487327
-0.00247846
-0.00430732
-0.00387916
-0.00417487
-0.00436484
-0.00440419
-0.00428598
-0.00447813
-0.00431766
-0.00377647
-0.00401913
-0.00414617
-0.00283402
-0.00271986
-0.0039467
-0.00434419
-0.00445439
-0.00512276
-0.0023832
-0.00274187
-0.00370762
-0.0020981
-0.0029656
-0.00338872
-0.00326476
-0.00291227
-0.00376401
-0.00418521
-0.00346671
-0.00235283
-0.00114127
-0.000947289
0.00202842
-0.00203083
-0.00344178
-0.00298
-0.00456361
-0.00431418
-0.00393575
-0.0033301
-0.00319239
-0.00264026
0.00153549
-0.000956443
-0.000574604
-0.00363179
-0.00247908
-0.00299102
-0.000372388
-0.00200399
0.000968235
0.00700028
0.00256173
0.00100938
-0.00224121
-0.00164648
-0.00184476
-0.00235173
-0.00286933
-0.00337489
-0.000631711
0.000801703
-0.00133556
0.000452529
-0.00038252
0.00131964
-0.00214257
-0.00262545
-0.00130904
-0.00205079
-0.00194822
-0.00232009
0.00149679
-0.000639334
-0.00174895
-0.00257607
-0.000878997
6.43302e-05
0.000108934
0.00283957
0.00320293
-0.00081156
0.00093308
-0.00110274
-0.00131301
-0.00208926
-0.00222274
)
;
    }
}


// ************************************************************************* //
