/*--------------------------------*- C++ -*----------------------------------*\
| =========                 |                                                 |
| \\      /  F ield         | OpenFOAM: The Open Source CFD Toolbox           |
|  \\    /   O peration     | Version:  5.x                                   |
|   \\  /    A nd           | Web:      www.OpenFOAM.org                      |
|    \\/     M anipulation  |                                                 |
\*---------------------------------------------------------------------------*/
FoamFile
{
    version     2.0;
    format      ascii;
    class       volVectorField;
    location    "0.051";
    object      U;
}
// * * * * * * * * * * * * * * * * * * * * * * * * * * * * * * * * * * * * * //

dimensions      [0 1 -1 0 0 0 0];

internalField   nonuniform List<vector> 
1553
(
(-1.17296e-05 -6.28936e-07 0.00482614)
(-1.15325e-05 -7.65013e-07 0.00481897)
(-7.22683e-06 -8.43345e-07 0.0048211)
(-7.30516e-06 -9.06269e-07 0.00481767)
(-7.7792e-07 -9.58258e-07 0.00481883)
(-1.17415e-05 5.52312e-06 0.00482508)
(-1.1561e-05 5.5566e-06 0.00481795)
(-7.25529e-06 5.5321e-06 0.00482007)
(-7.33352e-06 5.55455e-06 0.00481667)
(-8.0859e-07 5.52942e-06 0.00481782)
(-1.16948e-05 5.59519e-06 0.00482778)
(-1.15234e-05 5.64372e-06 0.00482076)
(-7.22887e-06 5.62891e-06 0.00482289)
(-7.30784e-06 5.66297e-06 0.00481956)
(-8.1e-07 5.64633e-06 0.00482072)
(-1.16908e-05 9.72152e-06 0.00482581)
(-1.15272e-05 9.83301e-06 0.0048188)
(-7.23604e-06 9.8327e-06 0.00482093)
(-7.3161e-06 9.90353e-06 0.0048176)
(-8.23422e-07 9.89654e-06 0.00481875)
(-1.15797e-05 1.02489e-05 0.00483191)
(-1.14122e-05 1.036e-05 0.00482502)
(-7.15836e-06 1.03677e-05 0.00482716)
(-7.24402e-06 1.04404e-05 0.0048239)
(-8.09157e-07 1.04423e-05 0.00482506)
(-4.5249e-06 -6.72236e-07 -0.00093324)
(-6.17101e-06 -4.39347e-07 -0.000933596)
(-5.00303e-06 -3.48696e-07 -0.000934443)
(-4.44265e-06 -2.21486e-07 -0.0009349)
(-1.72812e-06 -1.62784e-07 -0.000935392)
(-4.49048e-06 2.35415e-06 -0.000932868)
(-6.11504e-06 2.47912e-06 -0.000933227)
(-4.95737e-06 2.52353e-06 -0.000934067)
(-4.39888e-06 2.60575e-06 -0.000934527)
(-1.69421e-06 2.64163e-06 -0.000935013)
(-4.3952e-06 3.23396e-06 -0.000932381)
(-6.00145e-06 3.3433e-06 -0.000932729)
(-4.8764e-06 3.37405e-06 -0.000933565)
(-4.32455e-06 3.44572e-06 -0.000934024)
(-1.65911e-06 3.46939e-06 -0.000934511)
(-4.37727e-06 4.59248e-06 -0.000931628)
(-5.97483e-06 4.68117e-06 -0.000931975)
(-4.85495e-06 4.70229e-06 -0.000932807)
(-4.30354e-06 4.76378e-06 -0.000933267)
(-1.64601e-06 4.78091e-06 -0.000933752)
(-4.3034e-06 3.56443e-06 -0.000931173)
(-5.89157e-06 3.63831e-06 -0.000931504)
(-4.7938e-06 3.65047e-06 -0.000932335)
(-4.24594e-06 3.70163e-06 -0.000932787)
(-1.62927e-06 3.71011e-06 -0.000933273)
(-1.23165e-05 -3.24377e-07 0.0032753)
(-1.298e-05 -4.2168e-07 0.00326782)
(-8.71229e-06 -4.58245e-07 0.00326788)
(-8.41183e-06 -5.23684e-07 0.00326333)
(-1.30663e-06 -5.60027e-07 0.00326338)
(-1.23302e-05 6.50726e-06 0.00327521)
(-1.30035e-05 6.551e-06 0.00326773)
(-8.73722e-06 6.53853e-06 0.00326778)
(-8.43756e-06 6.55956e-06 0.00326324)
(-1.33469e-06 6.54002e-06 0.00326328)
(-1.2271e-05 6.98891e-06 0.00327922)
(-1.29486e-05 7.05102e-06 0.00327182)
(-8.70373e-06 7.04426e-06 0.00327187)
(-8.41034e-06 7.08e-06 0.00326738)
(-1.34822e-06 7.06536e-06 0.00326742)
(-1.22655e-05 1.11461e-05 0.00327913)
(-1.2948e-05 1.12774e-05 0.00327173)
(-8.70824e-06 1.12821e-05 0.00327178)
(-8.41646e-06 1.13619e-05 0.0032673)
(-1.36202e-06 1.13563e-05 0.00326733)
(-1.21355e-05 1.09177e-05 0.00328591)
(-1.28126e-05 1.10477e-05 0.00327864)
(-8.6192e-06 1.10574e-05 0.0032787)
(-8.33616e-06 1.11399e-05 0.0032743)
(-1.3599e-06 1.11406e-05 0.00327435)
(-1.22366e-05 -8.2634e-07 0.000311006)
(-1.35991e-05 -6.49443e-07 0.000304381)
(-9.49059e-06 -6.10058e-07 0.000303452)
(-8.94132e-06 -4.90679e-07 0.000299197)
(-1.86036e-06 -4.59481e-07 0.000298653)
(-1.21989e-05 6.27657e-06 0.00031133)
(-1.35516e-05 6.47938e-06 0.000304715)
(-9.45467e-06 6.51501e-06 0.000303791)
(-8.90524e-06 6.65089e-06 0.000299541)
(-1.84034e-06 6.67855e-06 0.000299001)
(-1.20267e-05 7.14766e-06 0.00031515)
(-1.33605e-05 7.34521e-06 0.000308639)
(-9.31909e-06 7.37484e-06 0.000307727)
(-8.77777e-06 7.50683e-06 0.000303538)
(-1.79671e-06 7.52796e-06 0.000303002)
(-1.19947e-05 1.12793e-05 0.000315915)
(-1.33243e-05 1.15108e-05 0.000309421)
(-9.29305e-06 1.15416e-05 0.000308511)
(-8.75213e-06 1.16933e-05 0.000304334)
(-1.78813e-06 1.17139e-05 0.000303799)
(-1.17878e-05 1.05584e-05 0.00032204)
(-1.30982e-05 1.07653e-05 0.000315701)
(-9.13664e-06 1.07917e-05 0.000314808)
(-8.60558e-06 1.09269e-05 0.000310725)
(-1.75726e-06 1.09431e-05 0.000310197)
(-1.91757e-05 -1.94522e-07 0.00242155)
(-2.05371e-05 -2.49039e-07 0.00240913)
(-1.38963e-05 -2.73203e-07 0.002408)
(-1.32109e-05 -3.19738e-07 0.00240015)
(-1.98211e-06 -3.51177e-07 0.00239952)
(-1.91781e-05 1.06517e-05 0.00242197)
(-2.05461e-05 1.08097e-05 0.00240956)
(-1.39123e-05 1.08136e-05 0.00240843)
(-1.32279e-05 1.09013e-05 0.00240058)
(-2.01002e-06 1.08894e-05 0.00239995)
(-1.90123e-05 1.15742e-05 0.00242911)
(-2.03751e-05 1.17575e-05 0.00241685)
(-1.38046e-05 1.17653e-05 0.00241573)
(-1.31351e-05 1.18733e-05 0.00240799)
(-2.02456e-06 1.18639e-05 0.00240736)
(-1.89884e-05 1.80387e-05 0.00243005)
(-2.03549e-05 1.83429e-05 0.00241783)
(-1.37965e-05 1.83666e-05 0.00241671)
(-1.31293e-05 1.8552e-05 0.00240898)
(-2.03979e-06 1.85543e-05 0.00240835)
(-1.86987e-05 1.72644e-05 0.00244153)
(-2.00472e-05 1.75541e-05 0.00242958)
(-1.35956e-05 1.75816e-05 0.0024285)
(-1.29474e-05 1.77617e-05 0.00242094)
(-2.0384e-06 1.77694e-05 0.00242033)
(-2.50596e-05 -4.83655e-07 0.000910452)
(-2.71511e-05 -3.5871e-07 0.000894905)
(-1.84695e-05 -3.43918e-07 0.000893136)
(-1.74216e-05 -2.54277e-07 0.000883256)
(-2.705e-06 -2.44176e-07 0.000882251)
(-2.50134e-05 1.38351e-05 0.000911088)
(-2.7101e-05 1.42023e-05 0.000895568)
(-1.84353e-05 1.4249e-05 0.000893803)
(-1.73863e-05 1.44883e-05 0.000883937)
(-2.69981e-06 1.45179e-05 0.000882933)
(-2.46804e-05 1.52249e-05 0.000919964)
(-2.67371e-05 1.56108e-05 0.000904715)
(-1.81835e-05 1.56568e-05 0.000902984)
(-1.71526e-05 1.5908e-05 0.000893286)
(-2.65503e-06 1.59341e-05 0.000892295)
(-2.46146e-05 2.37109e-05 0.000921418)
(-2.66689e-05 2.42471e-05 0.000906223)
(-1.81381e-05 2.43112e-05 0.0009045)
(-1.7109e-05 2.4653e-05 0.000894836)
(-2.65243e-06 2.46881e-05 0.000893847)
(-2.41268e-05 2.24241e-05 0.000935697)
(-2.61367e-05 2.2912e-05 0.000920929)
(-1.77777e-05 2.29736e-05 0.000919257)
(-1.67759e-05 2.32843e-05 0.00090986)
(-2.60803e-06 2.33174e-05 0.000908894)
(-3.526e-05 1.6232e-07 0.00197335)
(-3.786e-05 1.46714e-07 0.00194956)
(-2.55461e-05 1.25368e-07 0.00194685)
(-2.40961e-05 9.77603e-08 0.00193178)
(-3.24832e-06 6.25934e-08 0.00193026)
(-3.52342e-05 2.01638e-05 0.00197444)
(-3.78387e-05 2.062e-05 0.0019507)
(-2.55437e-05 2.0662e-05 0.00194799)
(-2.40975e-05 2.09321e-05 0.00193295)
(-3.28108e-06 2.09335e-05 0.00193142)
(-3.47888e-05 2.1905e-05 0.00198814)
(-3.73616e-05 2.24132e-05 0.00196482)
(-2.5234e-05 2.24627e-05 0.00196216)
(-2.38247e-05 2.27727e-05 0.00194738)
(-3.2898e-06 2.27781e-05 0.00194589)
(-3.47091e-05 3.37776e-05 0.00199046)
(-3.72807e-05 3.45636e-05 0.00196724)
(-2.51842e-05 3.46467e-05 0.00196458)
(-2.37821e-05 3.51326e-05 0.00194985)
(-3.30664e-06 3.51605e-05 0.00194836)
(-3.39788e-05 3.20483e-05 0.00201239)
(-3.64925e-05 3.27787e-05 0.00198984)
(-2.46652e-05 3.28606e-05 0.00198728)
(-2.33111e-05 3.33147e-05 0.00197298)
(-3.29041e-06 3.33469e-05 0.00197154)
(-4.96419e-05 4.19575e-07 0.00119984)
(-5.36608e-05 5.45461e-07 0.0011682)
(-3.62538e-05 5.43549e-07 0.0011644)
(-3.40091e-05 6.26784e-07 0.00114428)
(-4.52894e-06 6.15235e-07 0.00114217)
(-4.95456e-05 2.86257e-05 0.0012013)
(-5.35662e-05 2.9457e-05 0.00116973)
(-3.61943e-05 2.95549e-05 0.00116596)
(-3.39515e-05 3.00844e-05 0.00114589)
(-4.54208e-06 3.01382e-05 0.00114379)
(-4.87832e-05 3.12431e-05 0.00121932)
(-5.27312e-05 3.21421e-05 0.00118842)
(-3.56264e-05 3.22442e-05 0.00118477)
(-3.34258e-05 3.28123e-05 0.00116513)
(-4.48067e-06 3.28664e-05 0.00116307)
(-4.86162e-05 4.79658e-05 0.00122243)
(-5.25647e-05 4.92793e-05 0.0011917)
(-3.55241e-05 4.94428e-05 0.00118809)
(-3.33293e-05 5.02675e-05 0.00116857)
(-4.48765e-06 5.0353e-05 0.00116653)
(-4.7427e-05 4.50964e-05 0.00125128)
(-5.12542e-05 4.62856e-05 0.00122162)
(-3.46387e-05 4.64495e-05 0.00121818)
(-3.25159e-05 4.72009e-05 0.00119933)
(-4.39959e-06 4.72897e-05 0.00119737)
(-6.80162e-05 1.24242e-06 0.00173417)
(-7.33178e-05 1.29675e-06 0.00168706)
(-4.94587e-05 1.2905e-06 0.00168117)
(-4.63259e-05 1.3003e-06 0.00165145)
(-5.77991e-06 1.26026e-06 0.00164818)
(-6.79072e-05 3.96388e-05 0.00173667)
(-7.31947e-05 4.08459e-05 0.00168974)
(-4.93819e-05 4.1033e-05 0.00168383)
(-4.62701e-05 4.17807e-05 0.00165419)
(-5.81685e-06 4.18362e-05 0.0016509)
(-6.67698e-05 4.30328e-05 0.00176352)
(-7.19231e-05 4.43773e-05 0.00171768)
(-4.85238e-05 4.45887e-05 0.0017119)
(-4.55227e-05 4.54487e-05 0.00168292)
(-5.79243e-06 4.55245e-05 0.00167972)
(-6.6518e-05 6.5748e-05 0.00176864)
(-7.16382e-05 6.77819e-05 0.00172309)
(-4.83105e-05 6.80672e-05 0.00171731)
(-4.53342e-05 6.93485e-05 0.00168846)
(-5.79456e-06 6.94753e-05 0.00168524)
(-6.46713e-05 6.19254e-05 0.00181157)
(-6.96038e-05 6.37721e-05 0.00176773)
(-4.69578e-05 6.40243e-05 0.00176224)
(-4.41152e-05 6.51697e-05 0.00173448)
(-5.71579e-06 6.52829e-05 0.00173143)
(-9.83421e-05 2.57721e-06 0.00130614)
(-0.000106673 2.8361e-06 0.00124331)
(-7.18697e-05 2.80613e-06 0.00123466)
(-6.70024e-05 2.93886e-06 0.00119438)
(-8.25926e-06 2.8888e-06 0.00118949)
(-9.80656e-05 5.79796e-05 0.00130955)
(-0.000106421 6.00727e-05 0.00124699)
(-7.17406e-05 6.02859e-05 0.00123848)
(-6.68825e-05 6.15576e-05 0.00119845)
(-8.30966e-06 6.16758e-05 0.00119365)
(-9.61795e-05 6.32175e-05 0.00134502)
(-0.000104366 6.54888e-05 0.00128409)
(-7.03848e-05 6.57221e-05 0.00127607)
(-6.56125e-05 6.70784e-05 0.00123721)
(-8.18374e-06 6.72028e-05 0.00123266)
(-9.57161e-05 9.60372e-05 0.00135183)
(-0.000103915 9.93464e-05 0.00129145)
(-7.0151e-05 9.97937e-05 0.0012836)
(-6.54018e-05 0.000101846 0.00124524)
(-8.21785e-06 0.00010209 0.00124083)
(-9.27584e-05 8.9502e-05 0.00140828)
(-0.00010061 9.24597e-05 0.00135059)
(-6.78868e-05 9.29192e-05 0.00134328)
(-6.33175e-05 9.48018e-05 0.00130656)
(-7.96951e-06 9.50727e-05 0.00130242)
(-0.00013308 4.13985e-06 0.00159214)
(-0.000144829 4.42831e-06 0.0014979)
(-9.83937e-05 4.54386e-06 0.00148435)
(-9.14945e-05 4.76468e-06 0.00142521)
(-1.13135e-05 4.79094e-06 0.00141774)
(-0.00013269 7.85221e-05 0.00159804)
(-0.000144297 8.16261e-05 0.00150439)
(-9.79239e-05 8.24451e-05 0.00149086)
(-9.10975e-05 8.46192e-05 0.00143195)
(-1.12788e-05 8.50093e-05 0.00142443)
(-0.000129871 8.53111e-05 0.00165083)
(-0.000140905 8.88389e-05 0.00156)
(-9.54006e-05 8.97062e-05 0.00154685)
(-8.89303e-05 9.22405e-05 0.0014895)
(-1.10345e-05 9.27038e-05 0.00148221)
(-0.000129043 0.000129036 0.00166246)
(-0.0001399 0.000134312 0.00157245)
(-9.45223e-05 0.00013531 0.00155946)
(-8.80999e-05 0.000138725 0.00150249)
(-1.0908e-05 0.000139259 0.0014952)
(-0.000124427 0.000120425 0.00174685)
(-0.000134631 0.000125042 0.0016611)
(-9.09892e-05 0.000125863 0.00164893)
(-8.49827e-05 0.000128694 0.00159479)
(-1.05898e-05 0.000129085 0.00158809)
(-0.000195829 7.93388e-06 0.00129104)
(-0.000214507 8.74234e-06 0.00116661)
(-0.000144551 8.71205e-06 0.00114663)
(-0.000133613 9.02752e-06 0.00106563)
(-1.64237e-05 8.91538e-06 0.0010535)
(-0.000194934 0.000116672 0.00129908)
(-0.00021364 0.000122171 0.00117558)
(-0.000144184 0.000122785 0.00115611)
(-0.000133309 0.000125846 0.00107628)
(-1.65358e-05 0.000126145 0.00106463)
(-0.000190147 0.000127635 0.00136819)
(-0.000208392 0.000133542 0.00124854)
(-0.000140876 0.000134319 0.00123061)
(-0.000130253 0.000137624 0.00115421)
(-1.62243e-05 0.000137975 0.0011437)
(-0.000188819 0.000192097 0.00138317)
(-0.000206954 0.000200486 0.00126548)
(-0.000140102 0.000201917 0.00124785)
(-0.000129653 0.000207169 0.00117304)
(-1.62689e-05 0.000208016 0.00116306)
(-0.000181459 0.000176822 0.00149243)
(-0.000198571 0.000184183 0.00138128)
(-0.000134195 0.000185503 0.00136557)
(-0.000124157 0.000190297 0.0012946)
(-1.54443e-05 0.000191183 0.00128553)
(-0.000262004 1.14831e-05 0.00145976)
(-0.000289302 1.26189e-05 0.00127102)
(-0.000199375 1.32144e-05 0.00123532)
(-0.000184623 1.44938e-05 0.00111556)
(-2.4454e-05 1.49619e-05 0.00109634)
(-0.000260658 0.000155674 0.00147425)
(-0.000287331 0.000163554 0.00128751)
(-0.000197233 0.000166432 0.00125273)
(-0.000182584 0.000173197 0.00113377)
(-2.3959e-05 0.000175215 0.00111446)
(-0.000253849 0.000169398 0.00157782)
(-0.000278541 0.000178734 0.00139746)
(-0.000189732 0.000181447 0.00136533)
(-0.000175841 0.000189002 0.00125069)
(-2.26054e-05 0.000191134 0.00123214)
(-0.000251006 0.000253338 0.00160502)
(-0.000275278 0.000267113 0.00142722)
(-0.000186966 0.000270334 0.00139668)
(-0.000172897 0.000279178 0.00128466)
(-2.1968e-05 0.000281147 0.00126701)
(-0.000239632 0.000233714 0.00177043)
(-0.000261545 0.000245088 0.00160301)
(-0.000177671 0.000247888 0.00157502)
(-0.000165031 0.000254698 0.00146947)
(-2.07983e-05 0.000256031 0.0014538)
(-0.000391207 2.16449e-05 0.00117466)
(-0.000439031 2.43692e-05 0.000922999)
(-0.000300003 2.5221e-05 0.000881486)
(-0.000272587 2.62965e-05 0.000731347)
(-3.66546e-05 2.60496e-05 0.000707756)
(-0.000388245 0.000234729 0.00119321)
(-0.00043525 0.000248615 0.000945482)
(-0.000297912 0.000252799 0.000903252)
(-0.000271576 0.000260974 0.000753726)
(-3.69208e-05 0.00026194 0.000730287)
(-0.000376806 0.000258397 0.00132528)
(-0.000420954 0.000273251 0.00108903)
(-0.000287644 0.000278264 0.00104746)
(-0.000263446 0.000288511 0.00090054)
(-3.59044e-05 0.000290526 0.000877598)
(-0.000372814 0.000384788 0.00135918)
(-0.000415374 0.000406108 0.00112983)
(-0.000282652 0.000411681 0.00108813)
(-0.000259314 0.000426028 0.000941939)
(-3.50695e-05 0.000429761 0.000918216)
(-0.000354694 0.000348013 0.00156966)
(-0.000394061 0.000366133 0.00135632)
(-0.000267732 0.000370118 0.00132143)
(-0.000245373 0.00038163 0.00118658)
(-3.22734e-05 0.000384573 0.00116675)
(-0.000522739 2.90975e-05 0.0012417)
(-0.000582618 3.40148e-05 0.00087237)
(-0.000391029 3.3861e-05 0.000782059)
(-0.000358358 3.55936e-05 0.000520591)
(-4.94974e-05 3.6142e-05 0.000460166)
(-0.000517337 0.000306294 0.0012775)
(-0.000577421 0.000329587 0.000911862)
(-0.00038899 0.000332414 0.000828486)
(-0.000355554 0.000342395 0.000575382)
(-4.88902e-05 0.000345061 0.000519073)
(-0.000498724 0.000335371 0.00148295)
(-0.000556489 0.000363084 0.00112463)
(-0.000378221 0.000366326 0.00105119)
(-0.000345711 0.000377216 0.00082536)
(-4.71353e-05 0.000379064 0.00077723)
(-0.000488801 0.00049783 0.00154346)
(-0.000546454 0.000534531 0.00119546)
(-0.000374859 0.00054443 0.00112363)
(-0.000342816 0.00056536 0.000907932)
(-4.7332e-05 0.000570444 0.000867018)
(-0.000460842 0.000452018 0.00186393)
(-0.000509889 0.000479977 0.0015404)
(-0.000347404 0.000489763 0.00147872)
(-0.000319707 0.000508254 0.00127032)
(-4.23847e-05 0.000513595 0.00123286)
(-0.000774145 5.6272e-05 0.000918893)
(-0.000898848 6.25689e-05 0.000408597)
(-0.000651772 7.02058e-05 0.000259115)
(-0.000594482 7.9464e-05 -6.9422e-05)
(-9.88682e-05 8.32432e-05 -0.000159381)
(-0.000767261 0.000475977 0.000968428)
(-0.000884441 0.000500866 0.000475736)
(-0.00063438 0.000521924 0.000332229)
(-0.000580989 0.000565743 1.27883e-05)
(-9.50685e-05 0.000579006 -7.11462e-05)
(-0.000747852 0.000524345 0.00122495)
(-0.000852881 0.000556832 0.00076184)
(-0.000586897 0.000573396 0.000645425)
(-0.0005374 0.00062105 0.000327751)
(-8.58998e-05 0.000638462 0.000253124)
(-0.000733156 0.000765932 0.00131393)
(-0.000835364 0.000822034 0.000866063)
(-0.000570162 0.00083937 0.000760584)
(-0.000515921 0.000871165 0.000469931)
(-7.77482e-05 0.000885571 0.00040098)
(-0.000689565 0.000679768 0.00171905)
(-0.000779443 0.000723358 0.00130973)
(-0.000537792 0.000737872 0.00121958)
(-0.000491219 0.000757346 0.000958924)
(-7.16164e-05 0.000763976 0.000907951)
(-0.00105142 7.74384e-05 0.000859022)
(-0.0012427 9.95779e-05 6.84524e-05)
(-0.000869038 0.000105354 -0.000190197)
(-0.000776865 0.0001159 -0.000671779)
(-0.000141645 0.000122364 -0.000837996)
(-0.00102804 0.000612367 0.000940938)
(-0.00121392 0.000682844 0.000183618)
(-0.000851929 0.000718738 -5.84404e-05)
(-0.00075894 0.000739578 -0.000522601)
(-0.000135135 0.000757576 -0.000673538)
(-0.000979019 0.000680864 0.00132952)
(-0.0011363 0.00075341 0.000622821)
(-0.000812308 0.00079468 0.000394939)
(-0.000738027 0.000834349 -6.28286e-05)
(-0.000124239 0.000851181 -0.000196304)
(-0.000953219 0.000992141 0.00147703)
(-0.00110006 0.00108268 0.000815693)
(-0.00077099 0.00111887 0.000621639)
(-0.000702435 0.00119683 0.000178124)
(-0.00011889 0.00122557 6.09439e-05)
(-0.000885384 0.000872294 0.00207689)
(-0.00100957 0.000940129 0.0014724)
(-0.000698203 0.000965876 0.00132397)
(-0.000631355 0.00101519 0.000931265)
(-9.59938e-05 0.00103888 0.000847096)
(-0.00159219 0.000136957 0.00046339)
(-0.00194846 0.000176068 -0.000528688)
(-0.00139197 0.000200338 -0.000923538)
(-0.0012423 0.000226743 -0.00160646)
(-0.000267206 0.000245766 -0.00188481)
(-0.00155131 0.000946458 0.000606027)
(-0.0018842 0.00105523 -0.00035444)
(-0.00134057 0.00110706 -0.000713569)
(-0.0011961 0.0011747 -0.00135754)
(-0.000248205 0.00122071 -0.00160761)
(-0.00148009 0.00106039 0.00110422)
(-0.00178781 0.00118886 0.000189177)
(-0.00127251 0.00125344 -0.000129591)
(-0.00112864 0.00132174 -0.000720408)
(-0.000221759 0.00137291 -0.000931985)
(-0.00141872 0.00151363 0.00131349)
(-0.00169108 0.00167194 0.000476753)
(-0.00120769 0.00176875 0.000188212)
(-0.00107661 0.00186564 -0.00036193)
(-0.000197483 0.00192937 -0.000537629)
(-0.00131597 0.00130147 0.00205784)
(-0.00153269 0.00140422 0.00130668)
(-0.00107889 0.00146567 0.00109599)
(-0.000968078 0.00153714 0.000590938)
(-0.00015824 0.00157753 0.000445271)
(-0.00208118 0.000218242 8.26795e-05)
(-0.00263027 0.000271439 -0.00141481)
(-0.00194677 0.000312735 -0.0021746)
(-0.00173817 0.000361685 -0.00324472)
(-0.000423624 0.00039625 -0.00380749)
(-0.00202493 0.00125324 0.000327015)
(-0.00253414 0.00140073 -0.00108978)
(-0.00185499 0.00151272 -0.00176625)
(-0.00165301 0.00162565 -0.00276146)
(-0.000389063 0.00171043 -0.00324627)
(-0.00192829 0.0013883 0.00111526)
(-0.00237071 0.00158457 -0.000260824)
(-0.00172186 0.00169643 -0.000829933)
(-0.00154045 0.00182992 -0.00177298)
(-0.000339899 0.00192112 -0.00218288)
(-0.00182228 0.00194619 0.00147112)
(-0.0022259 0.00220074 0.000212317)
(-0.00160964 0.00234506 -0.00026189)
(-0.0014283 0.0025088 -0.00109786)
(-0.000298666 0.00260347 -0.00142433)
(-0.0016659 0.00164589 0.00264935)
(-0.00197185 0.00180226 0.00146468)
(-0.00141392 0.00190777 0.00110754)
(-0.00128212 0.00200437 0.000311927)
(-0.000246075 0.00205934 6.68023e-05)
(-0.00314729 0.00037933 -0.000303399)
(-0.00420664 0.000498402 -0.00234204)
(-0.00322179 0.000606143 -0.00356819)
(-0.00287524 0.000706641 -0.00509415)
(-0.000833709 0.000803879 -0.00609655)
(-0.00302279 0.00197901 4.66379e-05)
(-0.00397832 0.00220921 -0.0018226)
(-0.00301215 0.00245175 -0.002897)
(-0.00267616 0.00264647 -0.00425616)
(-0.000736749 0.00284537 -0.00509382)
(-0.00290736 0.00220439 0.000999569)
(-0.00373375 0.00249083 -0.000750439)
(-0.00278456 0.00275769 -0.00165001)
(-0.00248162 0.00298524 -0.00290742)
(-0.000635816 0.00319476 -0.0035786)
(-0.0027247 0.00304842 0.00152757)
(-0.00342478 0.00339813 -3.06907e-05)
(-0.00251774 0.00370698 -0.000750638)
(-0.00223905 0.0039514 -0.00183316)
(-0.00052819 0.00417995 -0.00235262)
(-0.00254298 0.00252192 0.00293677)
(-0.00307519 0.00270364 0.00151762)
(-0.00223153 0.00288617 0.000989235)
(-0.00200879 0.0030015 2.65042e-05)
(-0.000407945 0.00312616 -0.000323644)
(-0.0041999 0.000565588 -0.00101979)
(-0.00589652 0.000787054 -0.00421212)
(-0.00469875 0.000979986 -0.00653639)
(-0.00426669 0.00119504 -0.00901773)
(-0.00143144 0.00139405 -0.0110888)
(-0.00396944 0.00255631 -0.000391226)
(-0.00547913 0.00299239 -0.00327797)
(-0.00428838 0.00343098 -0.00523028)
(-0.00384992 0.00381247 -0.00738312)
(-0.00123286 0.00422854 -0.00901663)
(-0.00374724 0.00286913 0.00101446)
(-0.00502156 0.00337633 -0.00165766)
(-0.0038787 0.00384265 -0.00327384)
(-0.00346913 0.00425276 -0.00524113)
(-0.0010174 0.0046622 -0.00654713)
(-0.00344333 0.00388425 0.00190634)
(-0.00450523 0.00446992 -0.00041302)
(-0.00341196 0.00498557 -0.00165791)
(-0.00303034 0.00544407 -0.00328889)
(-0.000824843 0.00585988 -0.00422309)
(-0.00313946 0.0031093 0.00397825)
(-0.00392024 0.00341317 0.00189627)
(-0.00290492 0.00371638 0.00100405)
(-0.0025951 0.00393911 -0.000411165)
(-0.000602819 0.00416819 -0.00104151)
(-0.00646458 0.00100543 -0.00147345)
(-0.0097253 0.00142786 -0.00577702)
(-0.00802734 0.00190834 -0.00981651)
(-0.00742787 0.00233456 -0.0137006)
(-0.00291235 0.00287111 -0.0180198)
(-0.00602338 0.0040133 -0.000498139)
(-0.00881919 0.00476359 -0.0041814)
(-0.00711712 0.00571439 -0.00744748)
(-0.00646261 0.00642317 -0.0104811)
(-0.00237714 0.00738726 -0.0136975)
(-0.0056836 0.00450168 0.001257)
(-0.00802368 0.00535541 -0.00214195)
(-0.00636778 0.00632982 -0.00472073)
(-0.00575501 0.0070793 -0.00746341)
(-0.00194945 0.00798825 -0.00982765)
(-0.00513508 0.00601364 0.00252164)
(-0.00699035 0.00695338 -0.000247865)
(-0.00539323 0.00798649 -0.00214004)
(-0.00480416 0.00878317 -0.00419557)
(-0.00146962 0.00968763 -0.00578755)
(-0.00470382 0.0046725 0.00494744)
(-0.00605083 0.00510376 0.00250659)
(-0.00453869 0.00565206 0.00124336)
(-0.00405438 0.00599289 -0.000526552)
(-0.00104622 0.00643251 -0.00149885)
(-0.00867507 0.00153615 -0.00220104)
(-0.0142428 0.00237675 -0.00885433)
(-0.0126226 0.00334302 -0.0158776)
(-0.0124706 0.00440958 -0.0221669)
(-0.00575806 0.0057127 -0.0301779)
(-0.00780644 0.00528681 -0.000662934)
(-0.0124313 0.00662746 -0.0062216)
(-0.0105878 0.00852687 -0.0116504)
(-0.0101001 0.0100498 -0.0164605)
(-0.0044591 0.0124213 -0.0221539)
(-0.00728365 0.00588839 0.00184605)
(-0.0110019 0.00730938 -0.00319857)
(-0.00919969 0.00914962 -0.00745723)
(-0.00857616 0.0105381 -0.0116708)
(-0.00339204 0.0125724 -0.0158895)
(-0.00633052 0.00757615 0.00372809)
(-0.00916893 0.00912047 -0.000242065)
(-0.00735916 0.0109522 -0.00319506)
(-0.00667785 0.0123837 -0.0062372)
(-0.00242806 0.0141919 -0.00886222)
(-0.00567706 0.00563154 0.00712089)
(-0.00762578 0.006285 0.00371259)
(-0.00593755 0.00723691 0.00183283)
(-0.00533737 0.00776156 -0.000692101)
(-0.00158619 0.00862813 -0.00222757)
(-0.0133907 0.00254055 -0.00263433)
(-0.0234065 0.00405043 -0.0118528)
(-0.021343 0.00612916 -0.0251392)
(-0.0217294 0.00802527 -0.0369399)
(-0.0109526 0.0108906 -0.058526)
(-0.0118142 0.00806058 -7.8614e-05)
(-0.01981 0.0104191 -0.00694942)
(-0.0173573 0.014135 -0.0165621)
(-0.0169661 0.0169194 -0.0237097)
(-0.00809091 0.0216769 -0.0369371)
(-0.010937 0.00889238 0.00304372)
(-0.0173303 0.0113343 -0.00326134)
(-0.0148403 0.0147855 -0.0103193)
(-0.0141875 0.0173038 -0.0165809)
(-0.00618572 0.021283 -0.0251393)
(-0.00927154 0.0112915 0.00573933)
(-0.0139156 0.0138667 0.00136735)
(-0.0113878 0.0172799 -0.00325518)
(-0.010471 0.0197652 -0.00696714)
(-0.00410934 0.0233542 -0.0118591)
(-0.00825222 0.00820508 0.00953394)
(-0.0113419 0.0092244 0.00571829)
(-0.00894305 0.0108885 0.00303204)
(-0.00811497 0.0117699 -0.000113088)
(-0.00259532 0.0133397 -0.00265037)
(-0.0182622 0.00408334 -0.00127516)
(-0.0367496 0.00727265 -0.0143056)
(-0.0377174 0.0119181 -0.0346419)
(-0.0458462 0.0176583 -0.0540323)
(-0.0273843 0.0273732 -0.0869442)
(-0.0149803 0.0109645 0.0021438)
(-0.0289173 0.0152172 -0.00737947)
(-0.0273501 0.0233439 -0.0211886)
(-0.0304687 0.0304023 -0.032665)
(-0.0177069 0.0457968 -0.0539778)
(-0.013852 0.0117046 0.00610655)
(-0.0243685 0.0156254 -0.00220608)
(-0.0225187 0.022456 -0.0121677)
(-0.0233933 0.0272826 -0.0212314)
(-0.0119698 0.0376582 -0.0346491)
(-0.010904 0.0140678 0.00942633)
(-0.0181663 0.0181029 0.00384744)
(-0.0156929 0.0243072 -0.00219317)
(-0.0152801 0.0288541 -0.00740463)
(-0.00733781 0.0366827 -0.0143021)
(-0.00965247 0.00958542 0.0141224)
(-0.0141291 0.0108369 0.00940004)
(-0.0117672 0.0137869 0.00608982)
(-0.0110194 0.0149182 0.00209609)
(-0.00414349 0.018205 -0.00130692)
(-0.0270129 0.00595433 0.000307486)
(-0.0567814 0.0109565 -0.0176517)
(-0.0611067 0.019585 -0.0575455)
(-0.0739861 0.0294189 -0.100056)
(-0.0442749 0.044093 -0.224046)
(-0.0217837 0.015442 0.00587351)
(-0.0431476 0.022519 -0.00452841)
(-0.0426612 0.0366048 -0.0286099)
(-0.0497343 0.0496991 -0.0451674)
(-0.0295648 0.0739262 -0.10006)
(-0.019633 0.0161749 0.0103083)
(-0.0356112 0.0225648 0.00110088)
(-0.0338745 0.0337898 -0.0149473)
(-0.0366646 0.0425826 -0.0286249)
(-0.0196738 0.0609956 -0.0574832)
(-0.0151137 0.0193126 0.0148389)
(-0.0255378 0.0254754 0.00978155)
(-0.0226433 0.035544 0.00111128)
(-0.0225804 0.0430978 -0.00455213)
(-0.0110481 0.0567045 -0.0176548)
(-0.0131936 0.0131197 0.0191827)
(-0.0193798 0.0150398 0.0148156)
(-0.0162469 0.0195544 0.0103103)
(-0.0155114 0.0217164 0.00584447)
(-0.00602634 0.0269262 0.00033247)
(-0.0369871 0.00963616 0.0100934)
(-0.0945536 0.0203965 -0.0115585)
(-0.120129 0.0409357 -0.0651262)
(-0.212109 0.0730363 -0.145298)
(-0.153396 0.153802 -0.289669)
(-0.0259178 0.020962 0.0156134)
(-0.0633843 0.0339503 0.00395833)
(-0.0679916 0.0658782 -0.024587)
(-0.101767 0.10168 -0.0529043)
(-0.0729991 0.21212 -0.145157)
(-0.0234969 0.0206653 0.0205336)
(-0.0496198 0.0299378 0.0105663)
(-0.0522478 0.0521806 -0.00626803)
(-0.0658657 0.0679003 -0.0246534)
(-0.0409415 0.120071 -0.065069)
(-0.0162445 0.0229393 0.0239896)
(-0.0318913 0.031815 0.0192499)
(-0.030029 0.0495604 0.010591)
(-0.0340268 0.0633068 0.00391732)
(-0.0204787 0.0944496 -0.0115413)
(-0.0142408 0.0141497 0.0281489)
(-0.0229987 0.0161535 0.0239487)
(-0.0207335 0.0234227 0.0205158)
(-0.020994 0.02585 0.0155481)
(-0.00970146 0.0369574 0.0100803)
(-0.0498541 0.0114771 0.0263289)
(-0.131982 0.0265158 0.00827318)
(-0.194846 0.0605777 -0.0587773)
(-0.412673 0.126649 -0.238425)
(-0.136376 0.16389 -0.816558)
(-0.0341397 0.0258799 0.0318096)
(-0.0833632 0.0446317 0.0249847)
(-0.099568 0.0953517 -0.00552194)
(-0.170341 0.170376 -0.0381037)
(-0.127126 0.412621 -0.238215)
(-0.0301631 0.0245578 0.0341303)
(-0.0624264 0.0378839 0.0288592)
(-0.0691514 0.069025 0.0128666)
(-0.0953565 0.0994462 -0.00556314)
(-0.0607322 0.194615 -0.0583778)
(-0.020165 0.026935 0.036415)
(-0.038949 0.0388706 0.0353293)
(-0.0380034 0.0623414 0.0288661)
(-0.0447008 0.0833144 0.0249295)
(-0.0266729 0.131836 0.00822037)
(-0.0176386 0.0175231 0.037321)
(-0.02702 0.0200494 0.0363951)
(-0.0246544 0.0300412 0.0341573)
(-0.0259448 0.0340478 0.0317988)
(-0.011567 0.0497365 0.0264566)
(-0.056187 0.0151118 0.0598265)
(-0.178347 0.0372489 0.0636982)
(-0.291825 0.0955318 0.0626066)
(-0.692753 0.157233 -0.153065)
(-1.39793 0.38852 -1.28168)
(-0.0333426 0.0287432 0.055245)
(-0.100577 0.0543479 0.0619738)
(-0.128769 0.136623 0.0582052)
(-0.287805 0.288032 0.0277752)
(-0.413875 0.715201 -0.280243)
(-0.0292278 0.0252742 0.0552698)
(-0.0708337 0.0402649 0.0574849)
(-0.0866346 0.0865314 0.063573)
(-0.136212 0.128629 0.0582074)
(-0.0954908 0.292042 0.0628353)
(-0.0175586 0.0261282 0.0512955)
(-0.0394141 0.0393248 0.0555895)
(-0.0404114 0.0708012 0.0575071)
(-0.0544849 0.100531 0.0619066)
(-0.0374692 0.177976 0.0636269)
(-0.0153364 0.0152245 0.0496389)
(-0.0261607 0.0174467 0.051239)
(-0.0253332 0.0291731 0.0552437)
(-0.0286744 0.0333193 0.0551647)
(-0.0151494 0.0563393 0.0598335)
(-0.0468717 0.00692268 0.105856)
(-0.121022 0.0250087 0.140432)
(-0.180326 0.0571729 0.293857)
(-0.751393 0.141126 0.515295)
(-0.694031 0.233195 -5.39642)
(-0.0277498 0.0213243 0.0884282)
(-0.0791411 0.0381492 0.109524)
(-0.0912378 0.090737 0.185188)
(-0.34061 0.232897 0.354653)
(-0.716458 0.93409 0.774725)
(-0.0281971 0.0206053 0.078253)
(-0.0539855 0.0314561 0.0966678)
(-0.0672649 0.0671657 0.140975)
(-0.0905189 0.0912609 0.185236)
(-0.0575058 0.180962 0.294259)
(-0.01591 0.0213085 0.067309)
(-0.0326912 0.0325784 0.0773429)
(-0.0316435 0.053875 0.0966425)
(-0.0383137 0.0790128 0.109413)
(-0.0251727 0.120679 0.140166)
(-0.0160189 0.0158456 0.0591718)
(-0.0214196 0.0157367 0.0672918)
(-0.0207257 0.0280258 0.078271)
(-0.0213561 0.0276448 0.088442)
(-0.00705185 0.0468339 0.105983)
(-0.0212358 -0.00227986 0.112281)
(0.011112 0.00670129 0.137134)
(-0.00261889 -0.0140934 0.259376)
(0.105349 -0.0495763 0.350208)
(0.923355 -0.332608 -5.40737)
(-0.0121262 0.00120872 0.0969659)
(-0.00567532 0.0113731 0.118484)
(-0.00218259 -0.0174877 0.185072)
(0.0806335 -0.0804664 0.238225)
(0.279233 -0.48556 0.394664)
(-0.0105412 0.00420141 0.086079)
(-0.0085711 0.00844688 0.105777)
(0.000338014 -0.000423957 0.146022)
(0.0183063 0.00228388 0.184681)
(0.0145179 0.00489218 0.258918)
(-0.00731083 0.00709114 0.0743849)
(-0.0102827 0.010151 0.0871544)
(-0.00870478 0.00855683 0.105901)
(-0.0117566 0.0056097 0.118463)
(-0.0071703 -0.0117698 0.137478)
(-0.00701265 0.0068823 0.0640883)
(-0.00710549 0.00718038 0.0743096)
(-0.00423042 0.0105285 0.0860101)
(-0.00103023 0.0122274 0.0968416)
(0.00234992 0.0217879 0.112127)
(-0.019494 -0.00845322 0.0730986)
(0.0226869 0.0056307 0.100285)
(-0.0315469 -0.0263219 0.0521033)
(0.245199 -0.0221339 -0.232304)
(0.353798 -0.161013 -2.98921)
(-0.00483249 -0.00499785 0.072698)
(0.00639625 0.00687133 0.0948658)
(0.00275667 -0.0231733 0.0799932)
(0.0345442 -0.033899 0.00556722)
(0.0990164 -0.268909 -0.430447)
(-0.0072772 -0.00203781 0.0699058)
(0.00601736 0.000167743 0.0832674)
(0.00890363 -0.00927634 0.0850227)
(0.0229394 -0.00290608 0.0796633)
(0.0261281 0.0299639 0.0513503)
(-0.00243757 -0.000711513 0.0655892)
(-0.00119906 0.00113488 0.0777978)
(-0.000375809 -0.0061981 0.0833927)
(-0.00681646 -0.00625294 0.0949395)
(-0.00587178 -0.0227398 0.100799)
(-0.00525865 0.00500801 0.0588048)
(0.000530262 0.00218722 0.0655175)
(0.001869 0.00690823 0.0697963)
(0.00488357 0.00462202 0.0725093)