/*--------------------------------*- C++ -*----------------------------------*\
| =========                 |                                                 |
| \\      /  F ield         | OpenFOAM: The Open Source CFD Toolbox           |
|  \\    /   O peration     | Version:  5.x                                   |
|   \\  /    A nd           | Web:      www.OpenFOAM.org                      |
|    \\/     M anipulation  |                                                 |
\*---------------------------------------------------------------------------*/
FoamFile
{
    version     2.0;
    format      ascii;
    class       volScalarField;
    location    "0.09";
    object      phiIB;
}
// * * * * * * * * * * * * * * * * * * * * * * * * * * * * * * * * * * * * * //

dimensions      [0 2 -1 0 0 0 0];

internalField   nonuniform List<scalar> 
1553
(
-0.000396664
-0.000396683
-0.0003967
-0.000396735
-0.000396831
-0.000396361
-0.000396374
-0.000396379
-0.00039641
-0.000396495
-0.000396328
-0.000396343
-0.000396346
-0.000396378
-0.00039646
-0.000396198
-0.000396211
-0.000396208
-0.000396238
-0.00039631
-0.000396211
-0.000396226
-0.000396224
-0.000396255
-0.000396322
-0.000785279
-0.00078527
-0.000785262
-0.000785271
-0.000785247
-0.000785178
-0.000785166
-0.000785156
-0.000785164
-0.000785138
-0.000785097
-0.000785084
-0.000785071
-0.000785078
-0.000785052
-0.000785032
-0.000785018
-0.000785002
-0.000785008
-0.000784979
-0.000784994
-0.000784979
-0.000784962
-0.000784967
-0.000784936
-0.00185329
-0.00185329
-0.0018533
-0.00185335
-0.00185346
-0.00185291
-0.0018529
-0.0018529
-0.00185294
-0.00185304
-0.00185274
-0.00185273
-0.00185272
-0.00185276
-0.00185285
-0.00185253
-0.0018525
-0.00185249
-0.00185252
-0.0018526
-0.00185245
-0.00185242
-0.0018524
-0.00185244
-0.00185251
-0.00239686
-0.00239684
-0.00239686
-0.00239692
-0.00239702
-0.00239652
-0.00239649
-0.0023965
-0.00239656
-0.00239665
-0.00239629
-0.00239626
-0.00239627
-0.00239632
-0.0023964
-0.00239607
-0.00239603
-0.00239602
-0.00239607
-0.00239614
-0.00239595
-0.00239591
-0.0023959
-0.00239594
-0.002396
-0.0033996
-0.00339959
-0.00339965
-0.00339976
-0.00339999
-0.00339904
-0.00339901
-0.00339905
-0.00339916
-0.00339937
-0.00339872
-0.00339869
-0.00339872
-0.00339882
-0.00339902
-0.00339837
-0.00339833
-0.00339834
-0.00339843
-0.00339862
-0.00339821
-0.00339817
-0.00339817
-0.00339825
-0.00339842
-0.00400868
-0.00400867
-0.00400877
-0.00400894
-0.00400925
-0.004008
-0.00400798
-0.00400806
-0.00400823
-0.00400852
-0.0040076
-0.00400757
-0.00400764
-0.00400779
-0.00400808
-0.00400717
-0.00400713
-0.00400718
-0.00400732
-0.00400759
-0.00400698
-0.00400692
-0.00400696
-0.0040071
-0.00400735
-0.00495415
-0.00495417
-0.00495435
-0.00495462
-0.00495512
-0.00495319
-0.00495319
-0.00495334
-0.00495359
-0.00495408
-0.00495264
-0.00495263
-0.00495276
-0.00495301
-0.00495348
-0.00495206
-0.00495203
-0.00495214
-0.00495236
-0.00495281
-0.0049518
-0.00495175
-0.00495185
-0.00495206
-0.00495249
-0.00561043
-0.00561047
-0.00561075
-0.00561114
-0.00561186
-0.00560918
-0.0056092
-0.00560945
-0.00560983
-0.00561054
-0.00560845
-0.00560846
-0.00560869
-0.00560906
-0.00560976
-0.00560771
-0.00560771
-0.00560791
-0.00560826
-0.00560893
-0.00560739
-0.00560738
-0.00560756
-0.00560789
-0.00560854
-0.00650943
-0.00650952
-0.00650996
-0.00651053
-0.00651163
-0.00650769
-0.00650775
-0.00650815
-0.00650871
-0.00650979
-0.00650671
-0.00650675
-0.00650713
-0.00650768
-0.00650874
-0.00650572
-0.00650574
-0.00650607
-0.0065066
-0.00650762
-0.0065053
-0.00650531
-0.00650561
-0.00650612
-0.00650711
-0.00720004
-0.00720018
-0.00720081
-0.00720164
-0.00720319
-0.00719771
-0.00719782
-0.00719842
-0.00719924
-0.00720078
-0.00719641
-0.0071965
-0.00719708
-0.00719788
-0.00719942
-0.00719514
-0.0071952
-0.00719573
-0.0071965
-0.00719801
-0.00719462
-0.00719466
-0.00719515
-0.0071959
-0.00719739
-0.00805883
-0.00805904
-0.00805998
-0.00806115
-0.00806343
-0.00805561
-0.00805579
-0.00805667
-0.00805784
-0.0080601
-0.00805386
-0.00805401
-0.00805487
-0.00805602
-0.00805827
-0.00805217
-0.00805228
-0.00805305
-0.00805417
-0.00805637
-0.0080515
-0.00805159
-0.00805231
-0.0080534
-0.00805556
-0.0087713
-0.00877159
-0.00877285
-0.00877444
-0.00877757
-0.00876693
-0.00876721
-0.00876845
-0.00877007
-0.00877325
-0.00876464
-0.00876488
-0.0087661
-0.0087677
-0.00877092
-0.00876246
-0.00876267
-0.00876382
-0.0087654
-0.00876859
-0.00876165
-0.00876182
-0.00876294
-0.00876447
-0.00876764
-0.00959076
-0.00959112
-0.00959285
-0.00959491
-0.00959936
-0.00958484
-0.00958518
-0.00958684
-0.00958896
-0.00959343
-0.00958191
-0.00958223
-0.00958386
-0.00958598
-0.00959049
-0.00957911
-0.00957939
-0.00958091
-0.009583
-0.00958744
-0.0095781
-0.00957837
-0.00957983
-0.0095819
-0.00958628
-0.0103097
-0.01031
-0.010312
-0.0103145
-0.0103203
-0.010302
-0.0103023
-0.0103044
-0.0103069
-0.0103129
-0.0102986
-0.010299
-0.010301
-0.0103034
-0.0103095
-0.0102955
-0.0102958
-0.0102977
-0.0103001
-0.0103061
-0.0102944
-0.0102947
-0.0102966
-0.0102989
-0.0103049
-0.0110806
-0.0110807
-0.0110829
-0.0110852
-0.0110928
-0.0110714
-0.0110715
-0.0110734
-0.0110757
-0.0110832
-0.0110693
-0.0110692
-0.0110707
-0.0110725
-0.0110799
-0.0110672
-0.0110665
-0.0110676
-0.0110689
-0.011076
-0.0110676
-0.0110664
-0.0110671
-0.0110681
-0.0110749
-0.0117752
-0.0117748
-0.0117768
-0.0117785
-0.0117874
-0.0117664
-0.0117655
-0.0117667
-0.0117677
-0.0117764
-0.0117676
-0.0117654
-0.0117659
-0.0117657
-0.0117737
-0.0117746
-0.0117664
-0.0117634
-0.0117631
-0.0117702
-0.0117853
-0.0117734
-0.0117643
-0.0117631
-0.0117698
-0.0124528
-0.0124514
-0.0124531
-0.0124541
-0.0124674
-0.0124456
-0.012442
-0.0124416
-0.0124407
-0.0124512
-0.0124569
-0.0124475
-0.0124434
-0.0124413
-0.0124492
-0.01247
-0.0124604
-0.0124456
-0.012439
-0.0124454
-0.0124781
-0.0124683
-0.0124533
-0.0124407
-0.0124461
-0.013026
-0.0130252
-0.0130295
-0.0130372
-0.0130658
-0.0130162
-0.0130112
-0.0130116
-0.0130143
-0.0130339
-0.0130179
-0.0130153
-0.0130119
-0.0130109
-0.0130245
-0.0130151
-0.0130142
-0.0130125
-0.013008
-0.013018
-0.013012
-0.0130128
-0.0130129
-0.0130104
-0.0130178
-0.0134833
-0.0134859
-0.0135008
-0.0135232
-0.0135633
-0.0134561
-0.0134576
-0.0134622
-0.0134757
-0.0135176
-0.0134417
-0.0134442
-0.0134534
-0.0134585
-0.0134919
-0.0134226
-0.0134266
-0.0134385
-0.0134486
-0.013472
-0.0134143
-0.0134184
-0.0134319
-0.0134431
-0.0134659
-0.0138027
-0.0138149
-0.0138424
-0.0138738
-0.0139233
-0.0137346
-0.013749
-0.0137712
-0.0138104
-0.0138679
-0.0136758
-0.0136986
-0.0137292
-0.0137663
-0.0138314
-0.013625
-0.0136565
-0.0136913
-0.0137368
-0.0137958
-0.0135685
-0.01362
-0.0136634
-0.0137176
-0.0137792
-0.014006
-0.014016
-0.0140383
-0.0140639
-0.0141198
-0.0138965
-0.0139125
-0.0139466
-0.0139904
-0.0140564
-0.0138298
-0.0138489
-0.0138893
-0.0139411
-0.0140256
-0.0137693
-0.0137973
-0.0138409
-0.0138988
-0.0139954
-0.0137509
-0.0137629
-0.0138158
-0.0138765
-0.0139787
-0.0141016
-0.0141116
-0.0141338
-0.0141653
-0.0142404
-0.0139279
-0.0139696
-0.0140145
-0.0140711
-0.0141564
-0.0137687
-0.0138548
-0.0139163
-0.0140093
-0.0141193
-0.0136672
-0.0137858
-0.013846
-0.0139559
-0.0140887
-0.0134375
-0.013663
-0.0137554
-0.0139102
-0.0140741
-0.0141312
-0.0141242
-0.0141361
-0.0141471
-0.0142294
-0.0139697
-0.01399
-0.0140143
-0.0140455
-0.0141367
-0.0139149
-0.0139262
-0.0139624
-0.014008
-0.0141195
-0.0138229
-0.0138951
-0.0139188
-0.0139758
-0.0140997
-0.0138453
-0.0138159
-0.0139035
-0.0139501
-0.014106
-0.0141197
-0.0141307
-0.0141532
-0.0141906
-0.0142927
-0.0138936
-0.0139378
-0.0139758
-0.0140528
-0.0141789
-0.0136693
-0.0138155
-0.0138693
-0.0139706
-0.0141353
-0.0135744
-0.0137729
-0.0138054
-0.0139223
-0.0141026
-0.0125951
-0.0135692
-0.0136553
-0.0138755
-0.0140884
-0.0140577
-0.0140623
-0.0140863
-0.0140984
-0.0142071
-0.0137932
-0.0138775
-0.0139067
-0.0139612
-0.0140865
-0.0136354
-0.0137839
-0.0138196
-0.0138999
-0.0140683
-0.0135208
-0.0139329
-0.0137768
-0.0138627
-0.0140344
-0.0136076
-0.013515
-0.0136247
-0.0137721
-0.0140321
-0.0140766
-0.0140566
-0.0140913
-0.0141209
-0.0142453
-0.0137051
-0.0137519
-0.0138492
-0.0139425
-0.0141069
-0.0134893
-0.0135959
-0.013736
-0.0138432
-0.0140699
-0.0132982
-0.0132695
-0.0135838
-0.013734
-0.014024
-0.0121471
-0.0127928
-0.0134752
-0.0136841
-0.0140389
-0.0139496
-0.0139032
-0.0139298
-0.0139145
-0.0140414
-0.0138582
-0.0137579
-0.0137783
-0.0137891
-0.0139007
-0.0137411
-0.0137754
-0.0137471
-0.0137699
-0.0139101
-0.0140135
-0.0137264
-0.013766
-0.0137396
-0.0138755
-0.0142823
-0.0138874
-0.0137327
-0.0138358
-0.0139203
-0.0139547
-0.0138861
-0.0139188
-0.0139291
-0.0140347
-0.0137221
-0.0137113
-0.013747
-0.01381
-0.0139143
-0.0136729
-0.0135974
-0.013683
-0.0137385
-0.0138941
-0.0131683
-0.0133499
-0.0135831
-0.0136895
-0.0138558
-0.014285
-0.0137835
-0.0136388
-0.013696
-0.0139059
-0.0135131
-0.013462
-0.0135
-0.0134979
-0.0136148
-0.0133445
-0.0133224
-0.0133759
-0.0134118
-0.0134861
-0.0130396
-0.013205
-0.0132417
-0.0133642
-0.0134812
-0.0128352
-0.0132244
-0.0131899
-0.013298
-0.0134339
-0.0120355
-0.0129912
-0.0130104
-0.0133193
-0.0134746
-0.0135497
-0.0135025
-0.0135184
-0.0135432
-0.0136012
-0.0134771
-0.0134446
-0.0134619
-0.0135046
-0.0135329
-0.0135121
-0.0133589
-0.0133991
-0.0134485
-0.0135032
-0.0127477
-0.0130099
-0.0133428
-0.0134236
-0.0134731
-0.01061
-0.012619
-0.0134774
-0.0134486
-0.0135048
-0.0129313
-0.012887
-0.0128811
-0.0128595
-0.0128871
-0.0129197
-0.0128645
-0.0128895
-0.0128594
-0.0128536
-0.0131834
-0.0129986
-0.01293
-0.0128843
-0.0128719
-0.0132459
-0.0128152
-0.0129898
-0.0128529
-0.0128695
-0.0150912
-0.0137251
-0.0131584
-0.0129044
-0.0129039
-0.012852
-0.0128991
-0.0128844
-0.0129052
-0.0128994
-0.0129849
-0.0129601
-0.0129334
-0.0129291
-0.0129026
-0.0127492
-0.012927
-0.0128405
-0.0129282
-0.0128772
-0.0129483
-0.0130072
-0.0129258
-0.0129531
-0.0128903
-0.0127145
-0.0129302
-0.0127329
-0.0129658
-0.0128341
-0.0118796
-0.0118835
-0.0118708
-0.0118612
-0.0118588
-0.0119376
-0.0119487
-0.0119085
-0.0118949
-0.0118576
-0.0119425
-0.0119807
-0.0119163
-0.0119046
-0.0118646
-0.0120421
-0.0120841
-0.0119751
-0.0119402
-0.0118736
-0.0117805
-0.0120386
-0.0119324
-0.0119282
-0.011868
-0.0116447
-0.0116711
-0.011665
-0.0116725
-0.0116728
-0.0117283
-0.0117247
-0.0117018
-0.0116939
-0.0116708
-0.0116207
-0.0117094
-0.0116651
-0.0116935
-0.0116572
-0.0118079
-0.0117497
-0.0116999
-0.0117126
-0.0116642
-0.0116854
-0.0117962
-0.0116085
-0.0117144
-0.011635
-0.00985765
-0.00989886
-0.00992335
-0.0099608
-0.0099748
-0.00984362
-0.0099007
-0.00991666
-0.0099515
-0.00995781
-0.00979262
-0.00985426
-0.00985271
-0.00990783
-0.00991558
-0.00986496
-0.00989513
-0.00983411
-0.00988621
-0.00989104
-0.0097683
-0.00986195
-0.00978402
-0.00984146
-0.00985667
-0.00889912
-0.00891044
-0.00890999
-0.00890831
-0.00890653
-0.00893164
-0.00893833
-0.0089241
-0.00891938
-0.00890676
-0.00895853
-0.00895342
-0.00891564
-0.0089166
-0.00890393
-0.00916842
-0.00906382
-0.00894562
-0.00892691
-0.00890553
-0.00927505
-0.00916383
-0.00895347
-0.00892883
-0.00889821
-0.00642656
-0.00641817
-0.0063985
-0.00638398
-0.00637547
-0.00645478
-0.00644234
-0.00641329
-0.00639825
-0.00638245
-0.00649858
-0.0065004
-0.00644382
-0.00640985
-0.00639671
-0.00658061
-0.00655703
-0.00648303
-0.00643813
-0.006419
-0.0066134
-0.00657915
-0.00649515
-0.00645389
-0.00642695
-0.00523673
-0.00522515
-0.00520987
-0.00519938
-0.00519793
-0.00527385
-0.00525634
-0.00523121
-0.00521498
-0.00520121
-0.00535389
-0.00531444
-0.00526349
-0.00523661
-0.00521429
-0.00550217
-0.00543769
-0.00532797
-0.0052678
-0.00523251
-0.00558789
-0.00550574
-0.00536152
-0.00528066
-0.00524318
-0.00221325
-0.00219539
-0.0021804
-0.00217638
-0.00218041
-0.00222398
-0.00220633
-0.00219202
-0.00217655
-0.00217756
-0.00225222
-0.0022362
-0.00222463
-0.00220207
-0.00218567
-0.00224821
-0.00227112
-0.00226497
-0.00222322
-0.00220156
-0.00221757
-0.00225623
-0.00226544
-0.00223408
-0.00222054
-0.00116738
-0.00116355
-0.00115927
-0.00115811
-0.00115848
-0.00119459
-0.00118561
-0.00117211
-0.0011676
-0.00115934
-0.00122258
-0.00120051
-0.00118149
-0.00117531
-0.00116195
-0.00134727
-0.00126157
-0.00120824
-0.00119234
-0.00116805
-0.00145298
-0.00135021
-0.00122822
-0.00119869
-0.00117072
-0.0134872
-0.0146206
-0.0150789
-0.0125031
-0.0125901
-0.0134859
-0.0124893
-0.0131615
-0.0129095
-0.0127074
-0.0124529
-0.0123479
-0.0124975
-0.0124087
-0.0130221
-0.0112216
-0.0105794
-0.0160788
-0.0136361
-0.0143519
-0.0160826
-0.0122423
-0.011861
-0.0120107
-0.011268
-0.0127601
-0.0102036
-0.0112709
-0.0135966
-0.0142439
-0.014265
-0.0130035
-0.0132716
-0.0123941
-0.0129849
-0.0131004
-0.0137832
-0.0138215
-0.0134436
-0.0135103
-0.0131059
-0.0132476
-0.0131036
-0.0137617
-0.0131573
-0.013247
-0.013505
-0.0130815
-0.0134237
-0.0135897
-0.0138167
-0.0131734
-0.0131655
-0.0129319
-0.0136726
-0.0136709
-0.0131443
-0.0138481
-0.0137426
-0.0125554
-0.012421
-0.0134713
-0.0127916
-0.0131784
-0.0138324
-0.0132355
-0.0127683
-0.0124233
-0.0134421
-0.0125562
-0.0142438
-0.0134791
-0.0123269
-0.0137699
-0.0133222
-0.0140588
-0.013777
-0.0142365
-0.0134675
-0.0123198
-0.0137551
-0.0133015
-0.0140562
-0.0137666
-0.0135033
-0.0133401
-0.014232
-0.0147591
-0.0140138
-0.0147664
-0.0147379
-0.0131948
-0.014269
-0.014265
-0.0144129
-0.0139153
-0.0138723
-0.0138817
-0.0142251
-0.0139114
-0.0145397
-0.013408
-0.0142591
-0.0126845
-0.0149559
-0.0142241
-0.0139004
-0.014528
-0.0133927
-0.014252
-0.0126732
-0.0149578
-0.0148969
-0.0141517
-0.0141551
-0.0124637
-0.0145418
-0.0137796
-0.0137718
-0.0140746
-0.0147353
-0.0147354
-0.014625
-0.0148801
-0.0143679
-0.0143718
-0.0147647
-0.0148235
-0.0149118
-0.0141389
-0.0149816
-0.013873
-0.0147341
-0.0147616
-0.0148112
-0.0149015
-0.0141221
-0.0149807
-0.0138643
-0.0147286
-0.0149323
-0.0149265
-0.0148606
-0.0154978
-0.0150116
-0.0153096
-0.0153037
-0.0137169
-0.0153034
-0.0138807
-0.0138058
-0.0137067
-0.0150457
-0.0140826
-0.0137079
-0.015286
-0.0140013
-0.0141181
-0.0136978
-0.0150107
-0.0137861
-0.0144401
-0.0156942
-0.015222
-0.0156637
-0.0156327
-0.0153992
-0.0158491
-0.0144268
-0.0156754
-0.0152184
-0.0156533
-0.0156116
-0.0153846
-0.0158329
-0.0167543
-0.0140598
-0.0140522
-0.0116851
-0.0158657
-0.0136635
-0.0136576
-0.014649
-0.0146418
-0.0155123
-0.0160261
-0.0139122
-0.0144822
-0.0144645
-0.0145464
-0.0145432
-0.0147916
-0.0142528
-0.0136976
-0.0139289
-0.0139228
-0.0126592
-0.0120074
-0.0126309
-0.0134258
-0.0133364
-0.0139662
-0.0135137
-0.0126501
-0.0119612
-0.0127533
-0.0135065
-0.0133273
-0.0139692
-0.0134253
-0.0157898
-0.014869
-0.0150821
-0.01492
-0.0150708
-0.0145866
-0.0144238
-0.0157758
-0.0148589
-0.0150594
-0.0149171
-0.0150558
-0.0145769
-0.0144118
-0.0137152
-0.0138681
-0.0141457
-0.0136602
-0.0140963
-0.0131953
-0.0133916
-0.0138521
-0.0136981
-0.0141315
-0.0136518
-0.0140959
-0.0131948
-0.0133698
-0.0122039
-0.00774618
-0.0121414
-0.0118541
-0.0131643
-0.0104109
-0.0118635
-0.0156089
-0.014142
-0.014143
-0.0146662
-0.0149747
-0.0151587
-0.0151547
-0.0163282
-0.0138756
-0.0156857
-0.0167136
-0.0167253
-0.0157809
-0.0160659
-0.014208
-0.0142127
-0.0158708
-0.0158815
-0.013711
-0.0143729
-0.0143628
-0.0163206
-0.0138529
-0.015692
-0.0166722
-0.0167623
-0.0157549
-0.0160538
-0.0148298
-0.0132098
-0.0128843
-0.0144572
-0.0143849
-0.01392
-0.0141566
-0.0148294
-0.0131959
-0.0129033
-0.0144482
-0.0143757
-0.0139169
-0.0141447
-0.0169499
-0.0147375
-0.0147195
-0.0141221
-0.0157206
-0.0149057
-0.0148927
-0.0129376
-0.0110812
-0.0110789
-0.0125889
-0.0110519
-0.0127213
-0.0127176
-0.0135996
-0.0139259
-0.0137209
-0.0136188
-0.0136264
-0.0137796
-0.0136081
-0.0134576
-0.0119929
-0.0108724
-0.0112722
-0.0107336
-0.0121146
-0.0130691
-0.0134783
-0.0120034
-0.0108436
-0.0112756
-0.0107486
-0.01218
-0.0130726
-0.0136848
-0.0139136
-0.0136837
-0.0137565
-0.013872
-0.013409
-0.0134374
-0.0139087
-0.0136738
-0.0136874
-0.0137356
-0.013853
-0.0133993
-0.0134307
-0.01155
-0.0115583
-0.0123834
-0.00985354
-0.0051993
-0.00680848
-0.0068279
-0.0135042
-0.0123139
-0.0127998
-0.0130188
-0.0134068
-0.0139773
-0.013219
-0.0135005
-0.0122984
-0.0132902
-0.013224
-0.0133954
-0.013952
-0.0129999
-0.0124346
-0.0123141
-0.0122993
-0.0131871
-0.00983145
-0.0131893
-0.0132076
-0.0150148
-0.0146736
-0.0144875
-0.0136517
-0.0136304
-0.0135322
-0.0139623
-0.0150085
-0.0146548
-0.0144773
-0.0136537
-0.0136127
-0.0135098
-0.0139444
-0.0128163
-0.014132
-0.0136645
-0.0112747
-0.0128648
-0.0133077
-0.0102833
-0.0128134
-0.0141528
-0.0137558
-0.0112404
-0.0128963
-0.0133118
-0.0102893
-0.0138803
-0.01386
-0.0128365
-0.0117715
-0.0130218
-0.0130271
-0.0130378
-0.0132826
-0.0125836
-0.0130137
-0.0134138
-0.0133568
-0.013365
-0.0134162
-0.0133922
-0.0137634
-0.0136024
-0.0136582
-0.0135552
-0.0136501
-0.0135138
-0.013391
-0.0137613
-0.0136029
-0.013651
-0.0135505
-0.0136443
-0.0135048
-0.00994199
-0.00997745
-0.010287
-0.0108068
-0.00956094
-0.0100732
-0.0100432
-0.0144081
-0.0138292
-0.0147985
-0.0136649
-0.0135866
-0.0139049
-0.0133406
-0.0143976
-0.0138229
-0.0147935
-0.0136468
-0.0135901
-0.0138952
-0.0133306
-0.0128653
-0.0131183
-0.0130062
-0.0133354
-0.0133688
-0.0121896
-0.0128253
-0.0128606
-0.0130986
-0.0128328
-0.0128015
-0.0133637
-0.0121602
-0.0133383
-0.0117877
-0.00939898
-0.0095371
-0.0108576
-0.0121578
-0.0127436
-0.00989955
-0.0118128
-0.00937989
-0.0095181
-0.0108316
-0.0121205
-0.0127628
-0.0098649
-0.0121644
-0.0132161
-0.0131617
-0.0127743
-0.012986
-0.0129004
-0.0127232
-0.0121464
-0.0132103
-0.0131722
-0.0127502
-0.012952
-0.0128958
-0.0127012
-0.0138953
-0.0129306
-0.0136222
-0.0116831
-0.0123121
-0.0107015
-0.0116752
-0.00792957
-0.00929472
-0.00928218
-0.00610868
-0.0104368
-0.00805715
-0.00807717
-0.0120776
-0.0120831
-0.010317
-0.011172
-0.0134074
-0.0124564
-0.0124525
-0.00945862
-0.0121936
-0.0113739
-0.0114351
-0.0117057
-0.011669
-0.00858924
-0.00946723
-0.0121839
-0.0113686
-0.011447
-0.0117266
-0.0116742
-0.00857752
-0.0135061
-0.0132203
-0.0133523
-0.0128671
-0.0126323
-0.0132158
-0.0131839
-0.0135115
-0.0132135
-0.0133752
-0.0128706
-0.0126182
-0.0131831
-0.0131806
-0.0106461
-0.0127567
-0.0127423
-0.0126605
-0.0127506
-0.0123602
-0.0123636
-0.0113201
-0.013239
-0.0122492
-0.0128599
-0.0129014
-0.0134447
-0.0132635
-0.0113253
-0.0132561
-0.012255
-0.0128849
-0.012912
-0.0134608
-0.0132749
)
;

boundaryField
{
    inlet
    {
        type            fixedValue;
        value           uniform 0;
    }
    wall
    {
        type            zeroGradient;
    }
    outlet
    {
        type            fixedValue;
        value           uniform 0;
    }
    procBoundary1to0
    {
        type            processor;
        value           nonuniform List<scalar> 
320
(
-0.0003967
-0.000396407
-0.000396375
-0.000396254
-0.000396269
-0.000785306
-0.000785208
-0.000785128
-0.000785066
-0.00078503
-0.00185336
-0.00185299
-0.00185283
-0.00185262
-0.00185256
-0.00239694
-0.0023966
-0.00239639
-0.00239617
-0.00239606
-0.0033997
-0.00339915
-0.00339885
-0.00339852
-0.00339838
-0.00400879
-0.00400813
-0.00400774
-0.00400734
-0.00400715
-0.00495428
-0.00495334
-0.00495281
-0.00495226
-0.00495203
-0.00561056
-0.00560935
-0.00560864
-0.00560794
-0.00560764
-0.00650957
-0.00650789
-0.00650694
-0.006506
-0.00650561
-0.00720019
-0.00719793
-0.00719667
-0.00719545
-0.00719497
-0.00805898
-0.00805585
-0.00805415
-0.00805255
-0.00805193
-0.00877145
-0.00876719
-0.00876496
-0.00876288
-0.00876212
-0.00959089
-0.00958513
-0.00958228
-0.00957963
-0.0095787
-0.0103098
-0.0103023
-0.0102991
-0.0102961
-0.010295
-0.0110808
-0.0110719
-0.01107
-0.0110681
-0.0110685
-0.0117755
-0.0117669
-0.011768
-0.0117749
-0.0117855
-0.0124532
-0.0124463
-0.0124573
-0.0124707
-0.0124791
-0.0130268
-0.0130175
-0.0130195
-0.0130173
-0.0130148
-0.0134842
-0.013458
-0.0134442
-0.0134261
-0.0134185
-0.0138034
-0.0137364
-0.0136783
-0.0136288
-0.0135731
-0.0140061
-0.0138985
-0.0138329
-0.0137741
-0.0137567
-0.0141017
-0.0139302
-0.0137721
-0.0136725
-0.0134422
-0.014131
-0.0139727
-0.0139198
-0.0138298
-0.0138541
-0.0141194
-0.0138966
-0.0136732
-0.0135814
-0.0125949
-0.0140567
-0.0137968
-0.0136395
-0.0135301
-0.0136168
-0.0140759
-0.0137082
-0.0134956
-0.013307
-0.0121452
-0.0139486
-0.0138611
-0.0137443
-0.0140217
-0.014278
-0.0139528
-0.013724
-0.0136766
-0.0131731
-0.0142887
-0.01351
-0.0133436
-0.0130404
-0.0128363
-0.0120345
-0.0135471
-0.0134759
-0.0135141
-0.0127529
-0.0106208
-0.0129275
-0.0129191
-0.0131827
-0.0132513
-0.0150943
-0.0128487
-0.0129795
-0.0127487
-0.0129461
-0.0127207
-0.0118724
-0.0119334
-0.0119376
-0.0120379
-0.011791
-0.0116361
-0.0117142
-0.0116102
-0.0117936
-0.0116896
-0.00984657
-0.0098304
-0.00977333
-0.009857
-0.00976473
-0.0088859
-0.00891544
-0.00894234
-0.00915368
-0.00927236
-0.00642344
-0.00644969
-0.00648514
-0.0065706
-0.00660844
-0.00523505
-0.00527585
-0.005351
-0.00549086
-0.00558282
-0.00221562
-0.00222757
-0.00226271
-0.00224849
-0.00221655
-0.00116347
-0.00119324
-0.00122814
-0.00135639
-0.0014548
-0.0146223
-0.0134861
-0.0125045
-0.012905
-0.0124963
-0.0124208
-0.01122
-0.0143533
-0.0160759
-0.0117983
-0.0101929
-0.0112674
-0.0142693
-0.0123987
-0.0130033
-0.0137843
-0.0131036
-0.013445
-0.0131707
-0.0136744
-0.013818
-0.0138509
-0.0134657
-0.0125596
-0.0134794
-0.0137768
-0.0137647
-0.0133401
-0.0147789
-0.0147579
-0.0144311
-0.0138862
-0.0142844
-0.0145454
-0.0149599
-0.0134135
-0.0146263
-0.0143731
-0.0147389
-0.0149126
-0.0147348
-0.0141359
-0.0149445
-0.0153126
-0.0150159
-0.0153048
-0.0150409
-0.013808
-0.0156303
-0.0158469
-0.0156901
-0.0145474
-0.0139317
-0.0137003
-0.0120065
-0.0139682
-0.0134323
-0.0150818
-0.0144283
-0.0148667
-0.014144
-0.0133881
-0.0137158
-0.00773206
-0.010406
-0.0118568
-0.014668
-0.0151597
-0.0141427
-0.0156881
-0.0160638
-0.016708
-0.0132071
-0.0141539
-0.0144578
-0.0125911
-0.0127249
-0.0110781
-0.0108798
-0.0130786
-0.0112839
-0.0136833
-0.0134429
-0.0137628
-0.0115451
-0.00676828
-0.005183
-0.0123203
-0.0139723
-0.0130198
-0.0146742
-0.0139603
-0.0136281
-0.012866
-0.0102756
-0.014136
-0.00991004
-0.0100352
-0.0095348
-0.013116
-0.0121756
-0.01334
-0.0121364
-0.00988005
-0.00938597
-0.0132189
-0.0127189
-0.0127839
-0.0129419
-0.0107052
-0.0116831
-0.00609578
-0.00803483
-0.00927513
-0.0113627
-0.00857925
-0.0114351
-0.0132218
-0.013192
-0.0128789
)
;
    }
    procBoundary1to3
    {
        type            processor;
        value           nonuniform List<scalar> 
320
(
-0.000396147
-0.00039616
-0.000396154
-0.000396184
-0.000396241
-0.000784958
-0.000784941
-0.00078492
-0.000784923
-0.000784889
-0.00185234
-0.00185231
-0.00185227
-0.0018523
-0.00185236
-0.00239584
-0.00239579
-0.00239576
-0.0023958
-0.00239585
-0.00339804
-0.00339798
-0.00339797
-0.00339804
-0.00339819
-0.00400679
-0.00400672
-0.00400674
-0.00400685
-0.00400708
-0.00495156
-0.00495149
-0.00495155
-0.00495174
-0.00495213
-0.0056071
-0.00560707
-0.00560722
-0.00560753
-0.00560813
-0.00650494
-0.00650492
-0.00650518
-0.00650566
-0.00650658
-0.00719421
-0.00719422
-0.00719465
-0.00719536
-0.00719679
-0.00805099
-0.00805104
-0.00805167
-0.0080527
-0.00805476
-0.0087611
-0.00876122
-0.00876223
-0.0087637
-0.00876673
-0.00957737
-0.0095776
-0.00957891
-0.00958089
-0.00958506
-0.0102935
-0.0102938
-0.0102955
-0.0102977
-0.0103035
-0.0110663
-0.0110649
-0.0110654
-0.0110663
-0.0110728
-0.0117851
-0.011773
-0.0117625
-0.0117607
-0.0117669
-0.0124769
-0.012467
-0.0124518
-0.0124377
-0.012442
-0.0130078
-0.0130085
-0.0130083
-0.0130061
-0.0130125
-0.0134086
-0.0134123
-0.0134247
-0.0134349
-0.0134575
-0.0135621
-0.0136129
-0.013655
-0.0137088
-0.0137697
-0.0137433
-0.0137552
-0.0138065
-0.0138669
-0.013968
-0.0134294
-0.0136525
-0.0137436
-0.0138971
-0.0140582
-0.013835
-0.0138061
-0.0138906
-0.0139373
-0.0140855
-0.0125825
-0.013555
-0.0136402
-0.0138566
-0.0140656
-0.0129241
-0.0135028
-0.0136052
-0.0137544
-0.0140039
-0.00776489
-0.0122964
-0.0134538
-0.0136594
-0.0140111
-0.0133388
-0.0152813
-0.0137076
-0.0138152
-0.0138907
-0.0142245
-0.0137403
-0.0136175
-0.0136745
-0.0138848
-0.0118975
-0.0130835
-0.0129866
-0.013305
-0.0134461
-0.0112193
-0.0119466
-0.0134394
-0.013438
-0.0134783
-0.0146206
-0.0138215
-0.0131439
-0.0128879
-0.0128809
-0.0128952
-0.0129258
-0.0127136
-0.0129487
-0.0128151
-0.0117865
-0.0120251
-0.0119211
-0.0119144
-0.0118491
-0.0116884
-0.0117912
-0.0116101
-0.0117096
-0.0116353
-0.00976654
-0.00986247
-0.00978181
-0.00984229
-0.00985611
-0.00927764
-0.00915981
-0.00895591
-0.00892919
-0.00890062
-0.0066109
-0.00657685
-0.00649529
-0.00645636
-0.00642896
-0.00558657
-0.00549639
-0.00535676
-0.00528144
-0.00524302
-0.00221736
-0.00225057
-0.0022601
-0.00222849
-0.00221893
-0.00145524
-0.00135544
-0.00122826
-0.00119467
-0.00116668
-0.0134897
-0.0124862
-0.0150734
-0.0125142
-0.0124093
-0.0127107
-0.0143505
-0.016096
-0.0105606
-0.0102096
-0.0112705
-0.0120082
-0.0123944
-0.0129749
-0.0142515
-0.0130855
-0.0134103
-0.0131605
-0.01317
-0.0136687
-0.013815
-0.013443
-0.0125529
-0.0132451
-0.0134673
-0.0137669
-0.0137564
-0.0147561
-0.0147169
-0.0142278
-0.0143957
-0.0138632
-0.0142492
-0.0145133
-0.014948
-0.0133856
-0.0146291
-0.0143749
-0.0147357
-0.014901
-0.0147308
-0.0141259
-0.0149149
-0.0153013
-0.0150077
-0.0150275
-0.0137852
-0.0140065
-0.0156294
-0.0158375
-0.0156756
-0.0145438
-0.0139137
-0.0136926
-0.0139599
-0.0134096
-0.0127625
-0.0141343
-0.0133814
-0.0137064
-0.0150331
-0.0143918
-0.0148621
-0.0104116
-0.0118786
-0.0121558
-0.0146641
-0.0151526
-0.014138
-0.015681
-0.0160551
-0.0166875
-0.0132158
-0.0141531
-0.0144427
-0.0125839
-0.0127076
-0.0110712
-0.0108132
-0.0130539
-0.0112697
-0.0136949
-0.0134714
-0.0136984
-0.0115538
-0.00682295
-0.00520079
-0.0139625
-0.0130023
-0.0132854
-0.0146549
-0.0139534
-0.0136236
-0.0128803
-0.0103084
-0.014139
-0.00999533
-0.010077
-0.0095849
-0.0121774
-0.0133323
-0.0128271
-0.0132166
-0.012712
-0.0127417
-0.0121411
-0.00987882
-0.0093612
-0.0107024
-0.0116679
-0.0136044
-0.00610672
-0.00806594
-0.00929481
-0.0113851
-0.00855676
-0.0114316
-0.0132209
-0.0131587
-0.0128551
)
;
    }
}


// ************************************************************************* //
