/*--------------------------------*- C++ -*----------------------------------*\
| =========                 |                                                 |
| \\      /  F ield         | OpenFOAM: The Open Source CFD Toolbox           |
|  \\    /   O peration     | Version:  5.x                                   |
|   \\  /    A nd           | Web:      www.OpenFOAM.org                      |
|    \\/     M anipulation  |                                                 |
\*---------------------------------------------------------------------------*/
FoamFile
{
    version     2.0;
    format      ascii;
    class       volScalarField;
    location    "0.099";
    object      interFace;
}
// * * * * * * * * * * * * * * * * * * * * * * * * * * * * * * * * * * * * * //

dimensions      [0 0 0 0 0 0 0];

internalField   nonuniform List<scalar> 
1588
(
0
0
0
0
0
0
0
0
0
0
0
0
0
0
0
0
0
0
0
0
0
0
0
0
0
0
0
0
0
0
0
0
0
0
0
0
0
0
0
0
0
0
0
0
0
0
0
0
0
0
0
0
0
0
0
0
0
0
0
0
0
0
0
0
0
0
0
0
0
0
0
0
0
0
0
0
0
0
0
0
0
0
0
0
0
0
0
0
0
0
0
0
0
0
0
0
0
0
0
0
0
0
0
0
0
0
0
0
0
0
0
0
0
0
0
0
0
0
0
0
0
0
0
0
0
0
0
0
0
0
0
0
0
0
0
0
0
0
0
0
0
0
0
0
0
0
0
0
0
0
0
0
0
0
0
0
0
0
0
0
0
0
0
0
0
0
0
0
0
0
0
0
0
0
0
0
0
0
0
0
0
0
0
0
0
0
0
0
0
0
0
0
0
0
0
0
0
0
0
0
0
0
0
0
0
0
0
0
0
0
0
0
0
0
0
0
0
0
0
0
0
0
0
0
0
0
0
0
0
0
0
0
0
0
0
0
0
0
0
0
0
0
0
0
0
0
0
0
0
0
0
0
0
0
0
0
0
0
0
0
0
0
0
0
0
0
0
0
0
0
0
0
0
0
0
0
0
0
0
0
0
0
0
0
0
0
0
0
0
0
0
0
0
0
0
0
0
0
0
0
0
0
0
0
0
0
0
0
0
0
0
0
0
0
0
0
0
0
0
0
0
0
0
0
0
0
0
0
0
0
0
0
0
0
0
0
0
0
0
0
0
0
0
0
0
0
0
0
0
0
0
0
0
0
0
0
0
0
0
0
0
0
0
0
0
0
0
0
0
0
0
0
0
0
0
0
0
0
0
0
0
0
0
0
0
0
0
0
0
0
0
0
0
0
0
0
0
0
0
0
0
0
0
0
0
0
0
0
0
0
0
0
0
0
0
0
0
0
0
0
0
0
0
0
0
0
0
0
0
0
0
0
0
0
0
0
0
0
0
0
0
0
0
0
0
0
0
0
0
0
0
0
0
0
0
0
0
0
0
0
0
0
0
0
0
0
0
0
0
0
0
0
0
0
0
0
0
0
0
0
0
0
0
0
0
0
0
0
0
0
0
0
0
0
0
0
0
0
0
0
0
0
0
0
0
0
0
0
0
0
0
0
0
0
0
0
0
0
0
0
0
0
0
0
0
0
0
0
0
0
0
0
0
0
0
0
0
0
0
0
0
0
0
0
0
0
0
0
0
0
0
0
0
0
0
0
0
0
0
0
0
0
0
0
0
0
0
0
0
0
0
0
0
0
0
0
0
0
0
0
0
0
0
0
0
0
0
0
0
0
0
0
0
0
0
0
0
0
0
0
0
0
0
0
0
0
0
0
0
0
0
0
0
0
0
0
0
0
0
0
0.931419
0
0
0
0
0
0
0
0
0
0
0
0
0
0
0
0
0
0
0
0
0
0
0
0
0.323249
0.771886
0
0
0
0
0
0
0
0
0
0
0
0
0
0
0
0
0
0
0
0
0
0
0
0.432209
0.978611
0
0
0
0
0
0
0
0
0
0
0
0
0
0
0
0
0
0
0
0
0
0
0
0.991872
0
0
0
0
0
0
0
0
0
0
0
0
0
0
0
0
0
0
0
0
0
0
0
0
0.404168
0.838964
0
0
0
0
0
0
0
0
0
0
0
0
0
0
0
0
0
0
0
0
0
0
0
0.340813
0.865249
0
0
0
0
0
0
0
0
0
0
0
0
0
0
0
0
0
0
0
0
0
0
0
0
0
0
0
0
0
0
0
0
0
0
0
0
0
0
0
0
0
0
0
0
0
0
0
0
0
0
0
0
0
0
0
0
0
0
0
0
0
0
0
0
0
0
0
0
0
0
0
0
0
0
0
0
0
0
0
0
0
0
0
0
0
0
0
0
0
0
0
0
0
0
0
0
0
0
0
0
0
0
0
0
0
0
0
0
0
0
0
0
0
0
0
0
0
0
0
0
0
0
0
0
0
0
0
0
0
0
0
0
0
0
0
0
0
0
0
0
0
0
0
0
0
0
0
0
0
0
0
0
0
0
0
0
0
0
0
0
0
0
0
0
0
0
0
0
0
0
0
0
0
0
0
0
0
0
0
0
0
0
0
0
0
0
0
0
0
0
0
0
0
0
0
0
0
0
0
0
0
0
0
0
0
0
0
0
0
0
0
0
0
0
0
0
0
0
0
0
0
0
0
0
0
0
0
0
0
0
0
0
0
0
0
0
0
0
0
0
0
0
0
0
0
0
0
0
0
0
0
0
0
0
0.891498
0
0
0
0
0
0.609802
0.0719656
0.340955
0.763912
0
0.495065
0.764054
0.673158
0.135321
0.40431
0.289421
0.55841
0.0205736
0.289563
0
0.81264
0.991966
0.532058
0.801048
0.263211
0.5322
0.701455
0.163604
0.432851
0.984544
0.988054
0.71594
0.985186
0.760654
0.760868
0.805582
0.57665
0.487007
0.531722
0.531936
0
0.611385
0.978183
0
0
0
0
0
0.612241
0
0
0
0
0
0
0.850189
0.895117
0.666185
0.755612
0.80054
0.621257
0
0.850617
0.895331
0.666399
0.756254
0.800968
0.621684
0.53986
0.539907
0.584703
0.398849
0.309211
0.354006
0.354054
0
0.52007
0.865155
0
0
0.967894
0
0
0.520259
0
0
0
0.968084
0
0.808755
0.629476
0.674318
0.488465
0.578059
0.622901
0.443622
0.80885
0.629571
0.674366
0.488512
0.578201
0.622996
0.443717
0.592496
0.054645
0.323891
0.337738
0.606985
0.0691338
0.33838
0.392538
0.208319
0.208533
0.302896
0.253247
0.34761
0.347824
0.482073
0.477137
0.297854
0.5715
0.342782
0.616428
0.437145
0.898418
0.898465
0.763982
0.578128
0.847048
0.712564
0.712612
0.482287
0.477565
0.298282
0.572142
0.342996
0.616856
0.437573
0.571822
0.566886
0.5671
0.840747
0.432531
0.706177
0.706391
0.257816
0.116761
0.116808
0.168178
0.161603
0.212973
0.213021
0.347432
0.385656
0.206377
0.437025
0.251219
0.481868
0.302589
0.347479
0.38575
0.206471
0.437168
0.251267
0.481963
0.302684
0.113848
0.114062
0.158776
0.109126
0.0194837
0.064198
0.0644119
0
0.502425
0.771672
0
0
0.516914
0.786161
0
0.503281
0
0.786375
0
0.51777
0
0.437095
0.475319
0.475366
0.706015
0.340882
0.571531
0.571579
0.656313
0.750676
0.795604
0
0.835381
0.880309
0.974672
0.656955
0.751532
0.796246
0
0.836451
0.881165
0.975742
0.382667
0.203383
0.248311
0.198661
0.288088
0.333016
0.153733
0.383094
0.203811
0.248525
0.198875
0.28873
0.333444
0.154161
0.472415
0.472629
0.33806
0.28841
0.557335
0.422765
0.422979
0.0653688
0.0654162
0.110211
0.10364
0.0140021
0.0587974
0.0588447
0
0.583425
0.838869
0
0
0.468678
0.737667
0
0.583614
0
0.737715
0
0.468867
0
0.334264
0.154985
0.199827
0.193256
0.282849
0.327692
0.148413
0.334358
0.155079
0.199875
0.193303
0.282992
0.327787
0.148508
0.564912
0.616282
0.661125
0.744147
0.78899
0.885202
0.84036
0.565055
0.616472
0.661267
0.744384
0.789179
0.885392
0.840597
0.939758
0.662814
0.932061
0.408061
0.677307
0.139457
0.408703
0.104297
0.0993593
0.0995733
0.0146541
0.144288
0.0593684
0.0595824
0.423927
0.423974
0.28949
0.282919
0.551839
0.417355
0.417403
0.193831
0.368178
0.188894
0.283259
0.233822
0.328187
0.148903
0.194045
0.368606
0.189322
0.283901
0.234036
0.328615
0.149331
0.561842
0.740911
0.785839
0.467264
0.512192
0.736189
0.69126
0.562484
0.741981
0.786695
0.46812
0.512834
0.737045
0.69233
0.28358
0.457927
0.458141
0.552505
0.323571
0.417936
0.41815
0.141889
0.180116
0.180163
0.0522512
0.224959
0.0970464
0.0970938
0.231505
0.449011
0.269732
0.321099
0.314574
0.365941
0.186662
0.231552
0.449105
0.269827
0.321241
0.314622
0.366036
0.186757
0.51352
0.692755
0.737598
0.462106
0.506949
0.731026
0.686184
0.513663
0.692992
0.737787
0.462296
0.507091
0.731216
0.686421
0
0
0
0
0
0
0
0.651591
0
0.875588
0.73651
0.601941
0.825937
0.960507
0.321168
0.538674
0.538721
0.590088
0.404238
0.455604
0.455652
0.184171
0.184385
0.229099
0.358731
0.269089
0.313803
0.314017
0
0
0
0
0
0.587237
0.949205
0
0
0
0.949633
0
0.588093
0
0.547354
0.462434
0.507363
0.731359
0.726422
0.77135
0.686431
0.547996
0.46329
0.508005
0.732215
0.727492
0.772206
0.687501
0.452989
0.273706
0.318634
0.448266
0.537693
0.582621
0.403338
0.453417
0.274134
0.318848
0.44848
0.538335
0.583049
0.403766
0
0
0
0
0
0
0
0.603184
0.961745
0.827261
0.731096
0.596612
0.820689
0.955173
0.603278
0.961839
0.827403
0.731143
0.596707
0.820832
0.955268
0.542738
0.542952
0.408383
0.538015
0.806939
0.67237
0.672584
0.308006
0.308054
0.352849
0.525559
0.435922
0.480717
0.480764
0.652019
0
0.87623
0.736724
0.602369
0.826579
0.960935
0
0
0
0
0
0.915323
0
0
0
0
0
0
0.915512
0
0.576901
0.397622
0.442465
0.615175
0.704769
0.749612
0.570333
0.576996
0.397717
0.442512
0.615223
0.704911
0.749706
0.570427
0.628268
0.500355
0.545198
0.807502
0.852345
0.769275
0.724433
0.62841
0.500545
0.54534
0.807739
0.852534
0.769465
0.72467
0.637102
0.731681
0.597111
0.821108
0.995668
0.861099
0.955677
0.63753
0.731895
0.597539
0.82175
0.996096
0.861741
0.956105
0.666564
0.666611
0.532128
0.704838
0.973758
0.839275
0.839322
0
0
0
0
0
0
0
0.533184
0.707529
0.707743
0.443541
0.752457
0.488255
0.488469
0.622718
0.976347
0.797063
0.712146
0.841992
0.757074
0.57779
0.622932
0.976775
0.797491
0.712788
0.842206
0.757502
0.578218
0.632165
0.811233
0.856162
0.716869
0.761797
0.985794
0.940865
0.632807
0.812303
0.857018
0.717725
0.762439
0.98665
0.941935
)
;

boundaryField
{
    inlet
    {
        type            calculated;
        value           uniform 0;
    }
    wall
    {
        type            calculated;
        value           uniform 0;
    }
    outlet
    {
        type            calculated;
        value           uniform 0;
    }
    procBoundary1to0
    {
        type            processor;
        value           uniform 0;
    }
    procBoundary1to3
    {
        type            processor;
        value           uniform 0;
    }
}


// ************************************************************************* //
