FoamFile
{version 2.0; format ascii;class vectorField; location 0;object  v;}
1
(
( 4.68246e-10 -0.119099 4.68246e-10 )  
)
