/*--------------------------------*- C++ -*----------------------------------*\
| =========                 |                                                 |
| \\      /  F ield         | OpenFOAM: The Open Source CFD Toolbox           |
|  \\    /   O peration     | Version:  5.x                                   |
|   \\  /    A nd           | Web:      www.OpenFOAM.org                      |
|    \\/     M anipulation  |                                                 |
\*---------------------------------------------------------------------------*/
FoamFile
{
    version     2.0;
    format      ascii;
    class       volScalarField;
    location    "0.021";
    object      interFace;
}
// * * * * * * * * * * * * * * * * * * * * * * * * * * * * * * * * * * * * * //

dimensions      [0 0 0 0 0 0 0];

internalField   nonuniform List<scalar> 
1581
(
0
0
0
0
0
0
0
0
0
0
0
0
0
0
0
0
0
0
0
0
0
0
0
0
0
0
0
0
0
0
0
0
0
0
0
0
0
0
0
0
0
0
0
0
0
0
0
0
0
0
0
0
0
0
0
0
0
0
0
0
0
0
0
0
0
0
0
0
0
0
0
0
0
0
0
0
0
0
0
0
0
0
0
0
0
0
0
0
0
0
0
0
0
0
0
0
0
0
0
0
0
0
0
0
0
0
0
0
0
0
0
0
0
0
0
0
0
0
0
0
0
0
0
0
0
0
0
0
0
0
0
0
0
0
0
0
0
0
0
0
0
0
0
0
0
0
0
0
0
0
0
0
0
0
0
0
0
0
0
0
0
0
0
0
0
0
0
0
0
0
0
0
0
0
0
0
0
0
0
0
0
0
0
0
0
0
0
0
0
0
0
0
0
0
0
0
0
0
0
0
0
0
0
0
0
0
0
0
0
0
0
0
0
0
0
0
0
0
0
0
0
0
0
0
0
0
0
0
0
0
0
0
0
0
0
0
0
0
0
0
0
0
0
0
0
0
0
0
0
0
0
0
0
0
0
0
0
0
0
0
0
0
0
0
0
0
0
0
0
0
0
0
0
0
0
0
0
0
0
0
0
0
0
0
0
0
0
0
0
0
0
0
0
0
0
0
0
0
0
0
0
0
0
0
0
0
0
0
0
0
0
0
0
0
0
0
0
0
0
0
0
0
0
0
0
0
0
0
0
0
0
0
0
0
0
0
0
0
0
0
0
0
0
0
0
0
0
0
0
0
0
0
0
0
0
0
0
0
0
0
0
0
0
0
0
0
0
0
0
0
0
0
0
0
0
0
0
0
0
0
0
0
0
0
0
0
0
0
0
0
0
0
0
0
0
0
0
0
0
0
0
0
0
0
0
0
0
0
0
0
0
0
0
0
0
0
0
0
0
0
0
0
0
0
0
0
0
0
0
0
0
0
0
0
0
0
0
0
0
0
0
0
0
0
0
0
0
0
0
0
0
0
0
0
0
0
0
0
0
0
0
0
0
0
0
0
0
0
0
0
0
0
0
0
0
0
0
0
0
0
0
0
0
0
0
0
0
0
0
0
0
0
0
0
0
0
0
0
0
0
0
0
0
0
0
0
0
0
0
0
0
0
0
0
0
0
0
0
0
0
0
0
0
0
0
0
0
0
0
0
0
0
0
0
0
0
0
0
0
0
0
0
0
0
0
0
0
0
0
0
0
0
0
0
0
0
0
0
0
0
0
0
0
0
0
0
0
0
0
0
0
0
0
0
0
0
0
0
0
0
0
0
0
0
0
0
0
0
0
0
0
0
0
0
0
0
0
0
0
0
0
0
0
0
0
0
0
0
0
0
0
0
0
0
0
0
0
0
0
0
0
0
0
0
0
0
0
0
0
0
0
0
0
0
0
0
0
0
0
0
0
0
0
0
0
0
0
0
0
0
0
0
0
0
0
0
0
0
0
0
0
0
0
0
0
0
0
0
0
0
0
0
0
0
0
0
0
0
0
0
0
0
0
0
0
0
0
0
0
0
0
0
0
0
0
0
0
0
0
0
0
0
0
0
0
0
0
0
0
0
0
0
0
0
0
0
0
0
0
0
0
0
0
0
0
0
0
0
0
0
0
0
0
0
0
0
0
0
0
0
0
0
0
0
0
0
0
0
0
0
0
0
0
0
0.637016
0
0
0
0
0
0
0
0
0
0
0
0
0
0
0
0
0
0
0
0
0
0
0
0
0.280129
0
0
0
0
0.728336
0
0
0
0
0
0
0
0
0
0
0
0
0
0
0
0
0
0
0
0.64037
0
0
0
0
0
0
0
0
0
0
0
0
0
0
0
0
0
0
0
0
0
0
0
0
0.78892
0
0
0
0
0
0
0
0
0
0
0
0
0
0
0
0
0
0
0
0
0
0
0
0
0.331926
0
0
0
0
0.780132
0
0
0
0
0
0
0
0
0
0
0
0
0
0
0
0
0
0
0
0.417926
0
0
0
0
0.96092
0
0
0
0
0
0
0
0
0
0
0
0
0
0
0
0
0
0
0
0
0
0
0
0
0
0
0
0
0
0
0
0
0
0
0
0
0
0
0
0
0
0
0
0
0
0
0
0
0
0
0
0
0
0
0
0
0
0
0
0
0
0
0
0
0
0
0
0
0
0
0
0
0
0
0
0
0
0
0
0
0
0
0
0
0
0
0
0
0
0
0
0
0
0
0
0
0
0
0
0
0
0
0
0
0
0
0
0
0
0
0
0
0
0
0
0.855726
0
0
0
0.481402
0
0.750326
0.368094
0.905941
0.637019
0.30212
0.0331981
0.571045
0.302123
0.855729
0
0
0.750327
0.481405
0
0
0.459411
0
0.728335
0
0.662361
0
0.903062
0.0112071
0.549054
0.280132
0.483079
0.214157
0.752004
0.483082
0
0
0
0
0
0
0
0.459414
0
0
0.903064
0.662364
0
0
0
0
0
0
0
0
0
0.371448
0.909295
0.640373
0
0.994381
0
0
0
0
0
0
0
0
0
0
0
0
0
0.7871
0
0.966382
0.694132
0.968203
0.78892
0.422478
0.153554
0.691401
0.422478
0
0
0
0.966382
0.7871
0
0
0.511208
0
0.780132
0
0.508477
0
0.777401
0.063003
0.60085
0.331926
0.329195
0.060272
0.598119
0.329195
0
0
0
0
0
0
0
0.511208
0
0
0.777401
0.508477
0
0
0.597208
0
0.96092
0
0
0
0
0.149003
0.686849
0.417926
0.953042
0.684118
0.959099
0.953041
0.597208
0
0
0
0
0
0
0
0
0
0
0
0
0
0.213318
0.145668
0.32495
0.302958
0.190489
0.347779
0.168497
0.840808
0.593875
0.952439
0.751166
0.817978
0.616705
0.975269
0.752842
0.505909
0.685191
0.842482
0.55073
0.887303
0.708021
0.196554
0.197465
0.376747
0.286195
0.242285
0.331016
0.151734
0.461836
0.283464
0.462747
0.551477
0.328285
0.596298
0.417016
0.279291
0.368932
0.167659
0.346941
0.413753
0.21248
0.23447
0.189651
0.10001
0.0780182
0.0780191
0.122839
0.14483
0.144831
0.368933
0.637856
0.436583
0.436583
0.503394
0.503395
0.302121
0.279292
0.368934
0.167661
0.346943
0.413754
0.212481
0.234472
0.751163
0.683513
0.504232
0.48224
0.728334
0.527061
0.706342
0.840805
0.593873
0.952437
0.751165
0.817975
0.616703
0.975267
0.818813
0.54989
0.886463
0.707182
0.594711
0.931284
0.773992
0.123678
0.0560272
0.0560281
0.0340366
0.100848
0.0788567
0.0788576
0.30296
0.414591
0.414592
0.571883
0.28013
0.437421
0.437422
0.213319
0.14567
0.324952
0.302961
0.19049
0.347781
0.168499
0.280968
0.370608
0.348618
0.5279
0.415429
0.393439
0.236147
0.191328
0.101687
0.258977
0.258978
0.303798
0.146507
0.146508
0.37061
0.639533
0.617542
0.617543
0.505071
0.505072
0.48308
0.280969
0.370611
0.34862
0.527902
0.415431
0.39344
0.236149
0.751167
0.504234
0.683517
0.482244
0.728338
0.527064
0.706347
0.818817
0.549894
0.707185
0.886468
0.594714
0.931288
0.773997
0.663201
0.416268
0.416269
0.57356
0.461089
0.61838
0.618381
0.842483
0.774833
0.774834
0
0.640372
0.976944
0.976945
0.752843
0.505911
0.685193
0.842485
0.550731
0.887305
0.708023
0.468209
0.55785
0.288016
0.467298
0.60267
0.332837
0.423388
0.378567
0.288926
0.198375
0.198375
0.243195
0.333747
0.333747
0.468208
0.55785
0.288016
0.467298
0.60267
0.332837
0.423388
0.734401
0.735311
0.556029
0.465478
0.780132
0.510298
0.68958
0.733491
0.464567
0.73258
0.553298
0.509388
0.777401
0.68867
0.823132
0.733491
0.642939
0
0.599029
0.957593
0.867042
0.106913
0.107824
0.107824
0.0172721
0.152644
0.0620927
0.0620927
0.286195
0.466388
0.466388
0.555119
0.331926
0.420657
0.420657
0.196554
0.197465
0.376747
0.286195
0.242285
0.331016
0.151734
0.195644
0.285285
0.194734
0.374016
0.330106
0.239554
0.150823
0.106003
0.0163618
0.105093
0.105093
0.149913
0.0611824
0.0611823
0.285285
0.554208
0.463657
0.463657
0.419747
0.419747
0.329195
0.195644
0.285285
0.194734
0.374016
0.330106
0.239554
0.150823
0.734401
0.556029
0.735311
0.465478
0.780132
0.510298
0.68958
0.823132
0.73349
0.642939
0
0.599029
0.957593
0.867042
0.73349
0.464567
0.553298
0.73258
0.509388
0.777401
0.68867
0.999683
0.821311
0.642029
0.73076
0.866132
0.77558
0.954862
0.372195
0.193823
0.193823
0.282554
0.238644
0.327375
0.327375
0.551477
0.552388
0.552388
0.820401
0.417926
0.685939
0.685939
0.461836
0.283464
0.462747
0.551477
0.328285
0.596298
0.417016
0.640208
0.729849
0.81858
0.997862
0.77467
0.8634
0.595388
0.550567
0.460926
0.728939
0.728939
0.773759
0.505746
0.505746
0.640208
0.729849
0.81858
0.997862
0.77467
0.8634
0.595388
0.999683
0.642029
0.821311
0.730759
0.866131
0.77558
0.954862
0
0
0
0.899709
0.720427
0
0.89971
0.301283
0.412915
0.412915
0.211642
0.457736
0.256462
0.256463
0.390923
0.502555
0.681837
0.480564
0.547376
0.525385
0.346102
0.817136
0.548213
0.705504
0.526223
0.593034
0.750325
0.772315
0.390924
0.502557
0.681839
0.480566
0.547377
0.525387
0.346104
0.81714
0.548217
0.526225
0.705509
0.593037
0.750329
0.77232
0.55785
0.826773
0.556939
0.556939
0.692311
0.692311
0.422478
0.480565
0.771479
0.77148
0.749488
0.637018
0.615026
0.615027
0.824042
0.64567
0
0.734401
0.869773
0.599939
0.958504
0.824042
0.64567
0
0.734401
0.869773
0.599939
0.958504
0.55876
0.738952
0.738952
0.469119
0.783773
0.513939
0.513939
0
0
0
0
0
0
0
0.906778
0.817138
0.615864
0.974429
0.682676
0
0.839966
0.906781
0.817139
0.615866
0.97443
0.682678
0
0.839969
)
;

boundaryField
{
    inlet
    {
        type            calculated;
        value           uniform 0;
    }
    wall
    {
        type            calculated;
        value           uniform 0;
    }
    outlet
    {
        type            calculated;
        value           uniform 0;
    }
    procBoundary2to0
    {
        type            processor;
        value           uniform 0;
    }
    procBoundary2to3
    {
        type            processor;
        value           uniform 0;
    }
}


// ************************************************************************* //
