/*--------------------------------*- C++ -*----------------------------------*\
| =========                 |                                                 |
| \\      /  F ield         | OpenFOAM: The Open Source CFD Toolbox           |
|  \\    /   O peration     | Version:  5.x                                   |
|   \\  /    A nd           | Web:      www.OpenFOAM.org                      |
|    \\/     M anipulation  |                                                 |
\*---------------------------------------------------------------------------*/
FoamFile
{
    version     2.0;
    format      ascii;
    class       volVectorField;
    location    "0.021";
    object      U;
}
// * * * * * * * * * * * * * * * * * * * * * * * * * * * * * * * * * * * * * //

dimensions      [0 1 -1 0 0 0 0];

internalField   nonuniform List<vector> 
1581
(
(-1.23799e-06 3.9181e-08 0.000248952)
(-1.3588e-06 4.31322e-08 0.000248118)
(-8.67462e-07 3.859e-08 0.000248342)
(-8.03162e-07 4.46851e-08 0.000247947)
(-8.93042e-08 4.43746e-08 0.000248052)
(-1.23765e-06 7.27672e-07 0.000248841)
(-1.35885e-06 7.44137e-07 0.000248015)
(-8.67543e-07 7.46068e-07 0.000248237)
(-8.03064e-07 7.5824e-07 0.000247846)
(-8.73815e-08 7.60178e-07 0.000247948)
(-1.22125e-06 7.85275e-07 0.000249174)
(-1.3404e-06 8.05074e-07 0.000248369)
(-8.5336e-07 8.07726e-07 0.000248593)
(-7.8905e-07 8.21953e-07 0.000248213)
(-7.86194e-08 8.24284e-07 0.000248318)
(-1.21752e-06 1.26357e-06 0.000248944)
(-1.3364e-06 1.28738e-06 0.000248144)
(-8.50663e-07 1.29219e-06 0.000248367)
(-7.86508e-07 1.30886e-06 0.00024799)
(-7.72148e-08 1.31263e-06 0.000248093)
(-1.19711e-06 1.15094e-06 0.000249694)
(-1.31177e-06 1.17135e-06 0.000248913)
(-8.31874e-07 1.17589e-06 0.00024914)
(-7.68617e-07 1.1904e-06 0.000248773)
(-6.77594e-08 1.19404e-06 0.00024888)
(-7.40158e-07 -6.42719e-09 -0.000183346)
(-9.85974e-07 4.06393e-08 -0.000183563)
(-7.43482e-07 5.77521e-08 -0.000183666)
(-6.31867e-07 8.50331e-08 -0.000183824)
(-1.5505e-07 9.9108e-08 -0.000183878)
(-7.27909e-07 5.11561e-07 -0.000183292)
(-9.6862e-07 5.39209e-07 -0.000183507)
(-7.30419e-07 5.49516e-07 -0.000183609)
(-6.18704e-07 5.67899e-07 -0.000183767)
(-1.45355e-07 5.77168e-07 -0.00018382)
(-7.12084e-07 6.46472e-07 -0.000183115)
(-9.48012e-07 6.67877e-07 -0.00018333)
(-7.14792e-07 6.7576e-07 -0.000183431)
(-6.04215e-07 6.90506e-07 -0.00018359)
(-1.37308e-07 6.97169e-07 -0.000183643)
(-7.06203e-07 8.96381e-07 -0.000183013)
(-9.39328e-07 9.14377e-07 -0.000183226)
(-7.07789e-07 9.2074e-07 -0.000183326)
(-5.97295e-07 9.33726e-07 -0.000183484)
(-1.32989e-07 9.39019e-07 -0.000183537)
(-6.93866e-07 6.82753e-07 -0.000182784)
(-9.23648e-07 6.95093e-07 -0.000182993)
(-6.95444e-07 6.98618e-07 -0.000183091)
(-5.85936e-07 7.07592e-07 -0.000183247)
(-1.28749e-07 7.10124e-07 -0.0001833)
(-1.46809e-06 1.07993e-07 0.000161529)
(-1.69159e-06 1.10854e-07 0.00016052)
(-1.13955e-06 1.10004e-07 0.000160444)
(-1.02408e-06 1.13641e-07 0.000159846)
(-1.36827e-07 1.14738e-07 0.000159811)
(-1.46664e-06 9.65668e-07 0.000161575)
(-1.68965e-06 9.84017e-07 0.000160567)
(-1.1384e-06 9.8786e-07 0.00016049)
(-1.0232e-06 1.0001e-06 0.000159892)
(-1.34777e-07 1.00238e-06 0.000159855)
(-1.44947e-06 1.0729e-06 0.000162145)
(-1.6694e-06 1.09495e-06 0.000161151)
(-1.12346e-06 1.09966e-06 0.000161077)
(-1.00956e-06 1.1145e-06 0.000160487)
(-1.28559e-07 1.11725e-06 0.000160451)
(-1.44428e-06 1.60779e-06 0.000162217)
(-1.66289e-06 1.63734e-06 0.000161228)
(-1.11885e-06 1.64454e-06 0.000161155)
(-1.00561e-06 1.66447e-06 0.000160569)
(-1.27166e-07 1.66897e-06 0.000160533)
(-1.41956e-06 1.39349e-06 0.000163175)
(-1.63264e-06 1.41821e-06 0.00016221)
(-1.09634e-06 1.4241e-06 0.000162143)
(-9.85144e-07 1.441e-06 0.000161572)
(-1.19666e-07 1.44483e-06 0.000161539)
(-1.76231e-06 5.43778e-08 -8.09338e-05)
(-2.07099e-06 9.40201e-08 -8.20854e-05)
(-1.41736e-06 1.05331e-07 -8.22874e-05)
(-1.2656e-06 1.3127e-07 -8.30056e-05)
(-1.93028e-07 1.42804e-07 -8.31128e-05)
(-1.74959e-06 1.12756e-06 -8.08338e-05)
(-2.05434e-06 1.17e-06 -8.1981e-05)
(-1.40516e-06 1.18197e-06 -8.21808e-05)
(-1.25394e-06 1.20899e-06 -8.28946e-05)
(-1.83789e-07 1.21755e-06 -8.30002e-05)
(-1.7193e-06 1.28795e-06 -8.01404e-05)
(-2.01658e-06 1.32921e-06 -8.12694e-05)
(-1.37837e-06 1.34097e-06 -8.14634e-05)
(-1.23001e-06 1.36736e-06 -8.2165e-05)
(-1.73679e-07 1.37507e-06 -8.22669e-05)
(-1.70781e-06 1.92679e-06 -7.99544e-05)
(-2.00131e-06 1.97421e-06 -8.10742e-05)
(-1.36701e-06 1.98759e-06 -8.1265e-05)
(-1.21985e-06 2.0185e-06 -8.19608e-05)
(-1.69148e-07 2.02682e-06 -8.20609e-05)
(-1.67134e-06 1.65361e-06 -7.88505e-05)
(-1.95577e-06 1.69008e-06 -7.99377e-05)
(-1.33408e-06 1.69966e-06 -8.01197e-05)
(-1.19078e-06 1.72341e-06 -8.07974e-05)
(-1.60717e-07 1.72908e-06 -8.08943e-05)
(-2.63599e-06 2.15063e-07 6.51772e-05)
(-3.04521e-06 2.23117e-07 6.32752e-05)
(-2.05971e-06 2.25634e-07 6.30046e-05)
(-1.84946e-06 2.33209e-07 6.19004e-05)
(-2.37751e-07 2.37562e-07 6.17815e-05)
(-2.63006e-06 1.7591e-06 6.53306e-05)
(-3.03673e-06 1.80008e-06 6.343e-05)
(-2.05203e-06 1.81186e-06 6.31561e-05)
(-1.84257e-06 1.84071e-06 6.20349e-05)
(-2.32964e-07 1.84827e-06 6.19121e-05)
(-2.5945e-06 1.95237e-06 6.64517e-05)
(-2.99245e-06 2.00175e-06 6.45811e-05)
(-2.01908e-06 2.01555e-06 6.43079e-05)
(-1.81305e-06 2.04831e-06 6.31704e-05)
(-2.24799e-07 2.0566e-06 6.30328e-05)
(-2.58008e-06 2.89776e-06 6.67173e-05)
(-2.97355e-06 2.96904e-06 6.48619e-05)
(-2.00547e-06 2.98833e-06 6.45893e-05)
(-1.80152e-06 3.03217e-06 6.34526e-05)
(-2.2174e-07 3.04165e-06 6.33126e-05)
(-2.52245e-06 2.51324e-06 6.85184e-05)
(-2.90188e-06 2.57087e-06 6.67277e-05)
(-1.95594e-06 2.58568e-06 6.64711e-05)
(-1.75974e-06 2.62096e-06 6.5367e-05)
(-2.12372e-07 2.62796e-06 6.52315e-05)
(-3.69077e-06 2.40541e-07 -3.75203e-06)
(-4.24371e-06 2.70203e-07 -6.44279e-06)
(-2.79219e-06 2.75138e-07 -6.87307e-06)
(-2.4887e-06 2.77062e-07 -8.57819e-06)
(-3.06671e-07 2.83919e-07 -8.8182e-06)
(-3.67665e-06 2.40206e-06 -3.53411e-06)
(-4.22902e-06 2.47591e-06 -6.21209e-06)
(-2.80022e-06 2.48528e-06 -6.64165e-06)
(-2.49799e-06 2.47899e-06 -8.32517e-06)
(-3.0098e-07 2.46888e-06 -8.56779e-06)
(-3.61596e-06 2.6746e-06 -1.97374e-06)
(-4.16049e-06 2.76112e-06 -4.59188e-06)
(-2.78911e-06 2.77416e-06 -5.00853e-06)
(-2.50509e-06 2.78507e-06 -6.62381e-06)
(-3.06524e-07 2.77564e-06 -6.84631e-06)
(-3.58909e-06 3.99359e-06 -1.57867e-06)
(-4.12946e-06 4.121e-06 -4.16883e-06)
(-2.77627e-06 4.15089e-06 -4.58552e-06)
(-2.49651e-06 4.21531e-06 -6.18773e-06)
(-3.04802e-07 4.22561e-06 -6.40966e-06)
(-3.48724e-06 3.48008e-06 9.16949e-07)
(-4.00319e-06 3.58194e-06 -1.56016e-06)
(-2.69481e-06 3.60764e-06 -1.94911e-06)
(-2.43037e-06 3.66436e-06 -3.49135e-06)
(-2.92054e-07 3.67461e-06 -3.70142e-06)
(-5.36498e-06 4.42317e-07 3.66985e-06)
(-6.16641e-06 4.63025e-07 -2.73138e-07)
(-4.19508e-06 4.66697e-07 -8.86445e-07)
(-3.79457e-06 4.9553e-07 -3.37793e-06)
(-4.70971e-07 4.9939e-07 -3.72712e-06)
(-5.34611e-06 3.53739e-06 3.99222e-06)
(-6.14445e-06 3.65097e-06 6.65644e-08)
(-4.16509e-06 3.67638e-06 -5.44698e-07)
(-3.76869e-06 3.79507e-06 -3.00888e-06)
(-4.66613e-07 3.82013e-06 -3.35971e-06)
(-5.2501e-06 3.9078e-06 6.28439e-06)
(-6.02742e-06 4.04498e-06 2.43938e-06)
(-4.05098e-06 4.07165e-06 1.84663e-06)
(-3.65081e-06 4.18573e-06 -5.1917e-07)
(-4.40211e-07 4.21471e-06 -8.43284e-07)
(-5.2074e-06 5.78866e-06 6.84357e-06)
(-5.98058e-06 6.00095e-06 3.04798e-06)
(-4.02434e-06 6.04793e-06 2.45044e-06)
(-3.62563e-06 6.1648e-06 1.03358e-07)
(-4.3656e-07 6.18671e-06 -2.18643e-07)
(-5.0357e-06 5.04522e-06 1.04611e-05)
(-5.76815e-06 5.21692e-06 6.86568e-06)
(-3.88713e-06 5.25977e-06 6.31804e-06)
(-3.51204e-06 5.35564e-06 4.05373e-06)
(-4.16218e-07 5.37465e-06 3.75059e-06)
(-7.69102e-06 5.95902e-07 3.46581e-05)
(-8.80036e-06 6.35229e-07 2.88013e-05)
(-5.89702e-06 6.40289e-07 2.78541e-05)
(-5.32941e-06 6.63968e-07 2.43281e-05)
(-6.45253e-07 6.69126e-07 2.38388e-05)
(-7.65934e-06 5.01662e-06 3.51617e-05)
(-8.7663e-06 5.18846e-06 2.9319e-05)
(-5.8757e-06 5.21838e-06 2.83665e-05)
(-5.31303e-06 5.33778e-06 2.48352e-05)
(-6.40261e-07 5.35275e-06 2.434e-05)
(-7.51688e-06 5.52595e-06 3.84217e-05)
(-8.59859e-06 5.74257e-06 3.27908e-05)
(-5.7477e-06 5.76934e-06 3.18597e-05)
(-5.19504e-06 5.89735e-06 2.83918e-05)
(-6.21423e-07 5.91674e-06 2.78918e-05)
(-7.44005e-06 8.1706e-06 3.93034e-05)
(-8.5229e-06 8.54762e-06 3.37491e-05)
(-5.72093e-06 8.62263e-06 3.27998e-05)
(-5.16563e-06 8.78857e-06 2.93535e-05)
(-6.17989e-07 8.81985e-06 2.88483e-05)
(-7.13617e-06 7.15137e-06 4.43798e-05)
(-8.14656e-06 7.45524e-06 3.93285e-05)
(-5.50676e-06 7.53139e-06 3.84555e-05)
(-4.99783e-06 7.67205e-06 3.52242e-05)
(-5.8726e-07 7.70143e-06 3.47326e-05)
(-1.1306e-05 9.61392e-07 -2.53928e-05)
(-1.29708e-05 9.94909e-07 -3.33799e-05)
(-8.66821e-06 9.93155e-07 -3.45768e-05)
(-7.8098e-06 1.01448e-06 -3.94839e-05)
(-9.49771e-07 1.01389e-06 -4.01153e-05)
(-1.12725e-05 7.30094e-06 -2.47223e-05)
(-1.294e-05 7.64042e-06 -3.26648e-05)
(-8.64888e-06 7.68191e-06 -3.3895e-05)
(-7.79521e-06 7.85869e-06 -3.88125e-05)
(-9.50426e-07 7.87303e-06 -3.94655e-05)
(-1.09628e-05 8.04947e-06 -2.00358e-05)
(-1.25899e-05 8.47505e-06 -2.7814e-05)
(-8.44994e-06 8.50482e-06 -2.90468e-05)
(-7.61869e-06 8.70401e-06 -3.3861e-05)
(-9.29644e-07 8.72293e-06 -3.45237e-05)
(-1.08425e-05 1.17472e-05 -1.87311e-05)
(-1.24846e-05 1.25391e-05 -2.65239e-05)
(-8.41992e-06 1.26441e-05 -2.78018e-05)
(-7.5771e-06 1.29976e-05 -3.26185e-05)
(-9.31313e-07 1.3028e-05 -3.33142e-05)
(-1.01645e-05 1.01995e-05 -1.12354e-05)
(-1.1693e-05 1.08774e-05 -1.86985e-05)
(-7.99149e-06 1.09975e-05 -1.99914e-05)
(-7.23488e-06 1.13103e-05 -2.46466e-05)
(-8.97889e-07 1.13434e-05 -2.52974e-05)
(-1.58022e-05 1.29479e-06 4.15067e-05)
(-1.79851e-05 1.37489e-06 2.9985e-05)
(-1.20011e-05 1.34532e-06 2.80582e-05)
(-1.0868e-05 1.35477e-06 2.03453e-05)
(-1.2595e-06 1.3375e-06 1.91963e-05)
(-1.57251e-05 1.03736e-05 4.24604e-05)
(-1.79397e-05 1.07545e-05 3.10396e-05)
(-1.20234e-05 1.07484e-05 2.91087e-05)
(-1.08836e-05 1.09608e-05 2.15035e-05)
(-1.27738e-06 1.09444e-05 2.03585e-05)
(-1.54149e-05 1.15172e-05 4.89028e-05)
(-1.76104e-05 1.18836e-05 3.7988e-05)
(-1.17947e-05 1.18626e-05 3.61306e-05)
(-1.06719e-05 1.20913e-05 2.9142e-05)
(-1.26995e-06 1.20681e-05 2.81043e-05)
(-1.53513e-05 1.69715e-05 5.08937e-05)
(-1.75943e-05 1.76638e-05 3.99227e-05)
(-1.18156e-05 1.76788e-05 3.79969e-05)
(-1.06781e-05 1.80037e-05 3.10815e-05)
(-1.29988e-06 1.8047e-05 3.00396e-05)
(-1.47124e-05 1.47605e-05 6.20211e-05)
(-1.69031e-05 1.53994e-05 5.09282e-05)
(-1.14548e-05 1.54619e-05 4.89444e-05)
(-1.03038e-05 1.57676e-05 4.25286e-05)
(-1.22558e-06 1.58428e-05 4.15864e-05)
(-2.30104e-05 1.93536e-06 -3.49703e-05)
(-2.64203e-05 2.06972e-06 -5.23181e-05)
(-1.83079e-05 2.06337e-06 -5.54035e-05)
(-1.66716e-05 2.19106e-06 -6.59532e-05)
(-2.07817e-06 2.19205e-06 -6.76016e-05)
(-2.28746e-05 1.4697e-05 -3.34885e-05)
(-2.62927e-05 1.56433e-05 -5.06404e-05)
(-1.81849e-05 1.57543e-05 -5.37693e-05)
(-1.65454e-05 1.66554e-05 -6.42983e-05)
(-2.07792e-06 1.67809e-05 -6.59342e-05)
(-2.20533e-05 1.64827e-05 -2.40108e-05)
(-2.53629e-05 1.73581e-05 -4.0379e-05)
(-1.72959e-05 1.7393e-05 -4.32712e-05)
(-1.5645e-05 1.82819e-05 -5.37186e-05)
(-1.95169e-06 1.8404e-05 -5.53343e-05)
(-2.19866e-05 2.48667e-05 -2.1245e-05)
(-2.53823e-05 2.54803e-05 -3.74546e-05)
(-1.72611e-05 2.54589e-05 -4.03643e-05)
(-1.55344e-05 2.63851e-05 -5.05734e-05)
(-1.95814e-06 2.6511e-05 -5.22318e-05)
(-2.14227e-05 2.14926e-05 -6.09755e-06)
(-2.47707e-05 2.20565e-05 -2.11976e-05)
(-1.63911e-05 2.21212e-05 -2.39474e-05)
(-1.45929e-05 2.29391e-05 -3.3374e-05)
(-1.8269e-06 2.30733e-05 -3.48373e-05)
(-3.34211e-05 2.81112e-06 2.35623e-05)
(-3.842e-05 3.08455e-06 -2.67532e-07)
(-2.56362e-05 3.00932e-06 -4.53829e-06)
(-2.30662e-05 3.03552e-06 -1.98157e-05)
(-2.87948e-06 3.02592e-06 -2.23461e-05)
(-3.31453e-05 2.13332e-05 2.58167e-05)
(-3.82223e-05 2.26937e-05 2.04978e-06)
(-2.56814e-05 2.28807e-05 -2.12826e-06)
(-2.30486e-05 2.31955e-05 -1.73113e-05)
(-2.88931e-06 2.32118e-05 -1.98052e-05)
(-3.2041e-05 2.37607e-05 3.98391e-05)
(-3.68724e-05 2.50695e-05 1.65808e-05)
(-2.51344e-05 2.52677e-05 1.24064e-05)
(-2.27351e-05 2.58164e-05 -2.07939e-06)
(-2.86294e-06 2.57706e-05 -4.47774e-06)
(-3.18142e-05 3.48861e-05 4.39343e-05)
(-3.67152e-05 3.68467e-05 2.0787e-05)
(-2.49345e-05 3.70042e-05 1.65897e-05)
(-2.25457e-05 3.835e-05 2.10692e-06)
(-2.93595e-06 3.85457e-05 -2.01012e-07)
(-3.00501e-05 3.0146e-05 6.58984e-05)
(-3.47543e-05 3.19101e-05 4.39835e-05)
(-2.36312e-05 3.21372e-05 3.98964e-05)
(-2.11938e-05 3.32357e-05 2.59264e-05)
(-2.66812e-06 3.35087e-05 2.36705e-05)
(-4.72392e-05 4.21697e-06 -4.00461e-05)
(-5.45232e-05 4.41544e-06 -7.62964e-05)
(-3.7856e-05 4.502e-06 -8.34459e-05)
(-3.44793e-05 4.72167e-06 -0.000106453)
(-4.57974e-06 4.75497e-06 -0.000110449)
(-4.70364e-05 3.09737e-05 -3.70685e-05)
(-5.42398e-05 3.24916e-05 -7.27551e-05)
(-3.75459e-05 3.26989e-05 -7.97919e-05)
(-3.42222e-05 3.43916e-05 -0.000102479)
(-4.54689e-06 3.46492e-05 -0.000106434)
(-4.56913e-05 3.46003e-05 -1.75607e-05)
(-5.27978e-05 3.60952e-05 -5.16326e-05)
(-3.5956e-05 3.61108e-05 -5.8236e-05)
(-3.2529e-05 3.77e-05 -7.97211e-05)
(-4.3266e-06 3.80081e-05 -8.33575e-05)
(-4.55052e-05 5.09282e-05 -1.12609e-05)
(-5.27291e-05 5.28851e-05 -4.49881e-05)
(-3.59411e-05 5.29511e-05 -5.16193e-05)
(-3.2325e-05 5.43931e-05 -7.26717e-05)
(-4.24459e-06 5.46615e-05 -7.6194e-05)
(-4.36834e-05 4.38029e-05 1.94577e-05)
(-5.07749e-05 4.56247e-05 -1.11818e-05)
(-3.44482e-05 4.5808e-05 -1.74762e-05)
(-3.08187e-05 4.71538e-05 -3.69203e-05)
(-4.06273e-06 4.73443e-05 -3.98716e-05)
(-7.02607e-05 5.83516e-06 -1.05707e-05)
(-8.18235e-05 6.66741e-06 -6.19314e-05)
(-5.57925e-05 6.70273e-06 -7.29822e-05)
(-5.00695e-05 7.04732e-06 -0.000105658)
(-6.84111e-06 7.07622e-06 -0.000111847)
(-6.94137e-05 4.38186e-05 -6.01648e-06)
(-8.09492e-05 4.73576e-05 -5.64711e-05)
(-5.54054e-05 4.80906e-05 -6.73789e-05)
(-4.96908e-05 4.9927e-05 -9.96014e-05)
(-6.81009e-06 5.03036e-05 -0.000105648)
(-6.66658e-05 4.95683e-05 2.21901e-05)
(-7.75512e-05 5.28365e-05 -2.62527e-05)
(-5.3223e-05 5.34403e-05 -3.61859e-05)
(-4.78566e-05 5.56237e-05 -6.73018e-05)
(-6.46609e-06 5.60106e-05 -7.28992e-05)
(-6.6081e-05 7.19074e-05 3.08546e-05)
(-7.70769e-05 7.73008e-05 -1.67416e-05)
(-5.26181e-05 7.77675e-05 -2.62453e-05)
(-4.71205e-05 8.11545e-05 -5.63844e-05)
(-6.42592e-06 8.20352e-05 -6.18381e-05)
(-6.11851e-05 6.13609e-05 7.66208e-05)
(-7.16911e-05 6.62567e-05 3.093e-05)
(-4.93697e-05 6.68339e-05 2.22752e-05)
(-4.35892e-05 6.95697e-05 -5.84469e-06)
(-5.58911e-06 7.04211e-05 -1.04086e-05)
(-9.94596e-05 8.82296e-06 -5.47592e-05)
(-0.00011694 9.9201e-06 -0.000132374)
(-8.15828e-05 1.01474e-05 -0.000149207)
(-7.33437e-05 1.08176e-05 -0.000198199)
(-1.07365e-05 1.09923e-05 -0.000207809)
(-9.83395e-05 6.37345e-05 -4.73854e-05)
(-0.000115607 6.81703e-05 -0.000124194)
(-8.06761e-05 6.94953e-05 -0.000140637)
(-7.24918e-05 7.27481e-05 -0.000188857)
(-1.05607e-05 7.35966e-05 -0.000198186)
(-9.49449e-05 7.14713e-05 -8.1132e-06)
(-0.000111179 7.58246e-05 -7.98382e-05)
(-7.7005e-05 7.72443e-05 -9.50506e-05)
(-6.92423e-05 8.0917e-05 -0.000140522)
(-9.8927e-06 8.18183e-05 -0.000149082)
(-9.38882e-05 0.000105363 4.15852e-06)
(-0.000109834 0.000110073 -6.51794e-05)
(-7.55838e-05 0.000111417 -7.98314e-05)
(-6.79178e-05 0.000115855 -0.000124072)
(-9.66725e-06 0.000117157 -0.000132242)
(-9.00947e-05 9.02903e-05 6.60415e-05)
(-0.000105125 9.40839e-05 4.2799e-06)
(-7.12229e-05 9.51401e-05 -7.98887e-06)
(-6.35026e-05 9.85427e-05 -4.71332e-05)
(-8.60086e-06 9.9634e-05 -5.44864e-05)
(-0.000149139 1.32802e-05 -7.18205e-05)
(-0.00017628 1.49067e-05 -0.000182451)
(-0.000121617 1.53313e-05 -0.00021049)
(-0.000108671 1.6443e-05 -0.000281716)
(-1.64007e-05 1.67526e-05 -0.000298328)
(-0.000147467 9.04646e-05 -6.06714e-05)
(-0.000174208 9.98931e-05 -0.000169311)
(-0.000120068 0.000102247 -0.000196252)
(-0.00010724 0.000107604 -0.000265906)
(-1.60906e-05 0.00010903 -0.000281724)
(-0.000139569 0.000101112 -3.90095e-06)
(-0.000164496 0.000111851 -0.000106026)
(-0.000113907 0.000114245 -0.000130309)
(-0.000101888 0.000120409 -0.000196146)
(-1.4975e-05 0.000121954 -0.000210396)
(-0.000136556 0.000146068 1.56367e-05)
(-0.000161074 0.000161426 -8.32416e-05)
(-0.00011151 0.000164837 -0.000106031)
(-9.95315e-05 0.000174551 -0.000169209)
(-1.45457e-05 0.000176639 -0.000182358)
(-0.000123972 0.000124271 0.000105633)
(-0.000145728 0.000136855 1.57573e-05)
(-0.000100783 0.000139855 -3.79415e-06)
(-9.00867e-05 0.000147754 -6.04644e-05)
(-1.28831e-05 0.000149442 -7.16064e-05)
(-0.000211941 2.00556e-05 -9.74642e-05)
(-0.000255622 2.3125e-05 -0.000257836)
(-0.000180848 2.445e-05 -0.000300126)
(-0.000161181 2.66775e-05 -0.000404033)
(-2.7299e-05 2.76451e-05 -0.00042962)
(-0.000208795 0.000131654 -8.11925e-05)
(-0.0002512 0.000144595 -0.000237871)
(-0.000177272 0.000149677 -0.000278516)
(-0.000157964 0.000158318 -0.000379577)
(-2.63325e-05 0.000161529 -0.000404061)
(-0.000198787 0.000147779 5.89637e-07)
(-0.000237598 0.000161893 -0.000147463)
(-0.000167125 0.000167465 -0.000183787)
(-0.000149329 0.000177614 -0.000278341)
(-2.41055e-05 0.000181184 -0.000299988)
(-0.00019442 0.000214907 2.80401e-05)
(-0.000231512 0.000231866 -0.000113643)
(-0.000161551 0.000237943 -0.000147479)
(-0.000144245 0.000251549 -0.000237707)
(-2.27779e-05 0.000255959 -0.000257711)
(-0.000181462 0.000181779 0.000151546)
(-0.000214562 0.000194737 2.82097e-05)
(-0.000147444 0.000199095 7.4879e-07)
(-0.000131315 0.000209105 -8.08232e-05)
(-1.97122e-05 0.000212238 -9.71734e-05)
(-0.000312229 2.96553e-05 -0.000188742)
(-0.00037896 3.49671e-05 -0.000426513)
(-0.000267814 3.70346e-05 -0.000504209)
(-0.000238165 4.09857e-05 -0.00066152)
(-4.18941e-05 4.23871e-05 -0.000711286)
(-0.0003068 0.000188518 -0.000160801)
(-0.000371549 0.000210266 -0.000391266)
(-0.000261773 0.000218587 -0.000464006)
(-0.000232786 0.000233297 -0.00061581)
(-4.04936e-05 0.000238662 -0.000661604)
(-0.000290105 0.000210344 -4.7766e-05)
(-0.000348889 0.000236078 -0.000259652)
(-0.000244784 0.000245281 -0.000324429)
(-0.00021809 0.000262278 -0.00046386)
(-3.65394e-05 0.000268303 -0.000504144)
(-0.000280606 0.000297038 8.90262e-07)
(-0.000336608 0.000337114 -0.000201667)
(-0.000235573 0.000349388 -0.000259696)
(-0.000209764 0.000372086 -0.000391164)
(-3.44704e-05 0.000379472 -0.00042649)
(-0.000249398 0.000249868 0.000178522)
(-0.000296538 0.000281076 1.04493e-06)
(-0.000209815 0.000290568 -4.76557e-05)
(-0.000188009 0.000307295 -0.000160546)
(-2.9149e-05 0.0003127 -0.000188562)
(-0.000453728 4.81354e-05 -0.000177047)
(-0.000571117 5.84778e-05 -0.00051728)
(-0.000415853 6.47672e-05 -0.000631915)
(-0.000368259 7.24692e-05 -0.000860514)
(-7.69949e-05 7.74182e-05 -0.000935901)
(-0.000443164 0.000272631 -0.000138556)
(-0.000554433 0.000311457 -0.000464839)
(-0.000401815 0.000329458 -0.000572795)
(-0.000355563 0.000355979 -0.000789998)
(-7.20502e-05 0.000368671 -0.00086063)
(-0.000414309 0.000309469 2.05685e-05)
(-0.000514286 0.000351491 -0.000281301)
(-0.000371332 0.000371774 -0.000373865)
(-0.000329046 0.000402259 -0.000572522)
(-6.43459e-05 0.000416297 -0.000631774)
(-0.000400418 0.000441216 8.15983e-05)
(-0.000492122 0.000492587 -0.000198242)
(-0.000351046 0.000514741 -0.00028137)
(-0.000311039 0.00055489 -0.000464629)
(-5.80561e-05 0.00057157 -0.000517199)
(-0.000362003 0.000362477 0.000322727)
(-0.00044076 0.000400891 8.18818e-05)
(-0.000309035 0.000414774 2.07722e-05)
(-0.000272221 0.000443627 -0.000138063)
(-4.77087e-05 0.000454183 -0.000176712)
(-0.000658381 6.83235e-05 -0.000409663)
(-0.00083387 8.75719e-05 -0.000925884)
(-0.000611045 9.63113e-05 -0.00115138)
(-0.000542152 0.000111655 -0.00150458)
(-0.000117133 0.000117794 -0.0016688)
(-0.000638789 0.000386134 -0.000336242)
(-0.000805828 0.000446246 -0.000827849)
(-0.000586929 0.000476638 -0.00103048)
(-0.000520622 0.00052129 -0.00136277)
(-0.000110994 0.00054279 -0.00150484)
(-0.000597238 0.000430496 -0.000114398)
(-0.000743359 0.000502673 -0.000555904)
(-0.000536001 0.000536704 -0.000732259)
(-0.000476 0.000587644 -0.00103027)
(-9.56417e-05 0.000611731 -0.00115141)
(-0.000565359 0.000599226 4.96518e-06)
(-0.00069961 0.000700331 -0.000406912)
(-0.000501957 0.000744062 -0.000556045)
(-0.000445594 0.000806585 -0.000827791)
(-8.69003e-05 0.000834576 -0.000926065)
(-0.000494485 0.000495242 0.000341512)
(-0.000598522 0.000566116 5.18387e-06)
(-0.000429757 0.000597978 -0.000114315)
(-0.000385493 0.000639569 -0.000335975)
(-6.76387e-05 0.000659108 -0.000409625)
(-0.000979038 0.000121808 -0.000303365)
(-0.0013129 0.000156693 -0.00103939)
(-0.000994547 0.00018588 -0.00137108)
(-0.000885683 0.000214413 -0.00190136)
(-0.000241114 0.000241566 -0.00214839)
(-0.000943405 0.000567898 -0.000208805)
(-0.00124873 0.000681438 -0.000892918)
(-0.000936729 0.000748579 -0.00119657)
(-0.000829925 0.000830297 -0.00167665)
(-0.000213986 0.000886065 -0.00190159)
(-0.000863643 0.000650674 9.30327e-05)
(-0.0011322 0.000772424 -0.000521146)
(-0.000845689 0.000846206 -0.000768914)
(-0.000748197 0.000937231 -0.00119618)
(-0.000185439 0.000995069 -0.00137098)
(-0.000819564 0.000897168 0.000233912)
(-0.00105318 0.00105373 -0.000310279)
(-0.000771922 0.00113274 -0.000521296)
(-0.00068106 0.00124924 -0.000892664)
(-0.000156264 0.00131342 -0.00103942)
(-0.000704376 0.000705071 0.00068409)
(-0.000896629 0.000820259 0.000234339)
(-0.000650191 0.000864334 9.32898e-05)
(-0.000567534 0.000944081 -0.000208112)
(-0.000121374 0.000979715 -0.000303026)
(-0.00140781 0.000163171 -0.000818455)
(-0.00190169 0.000234308 -0.00192311)
(-0.001473 0.000271052 -0.00261972)
(-0.00131946 0.000336617 -0.00345134)
(-0.00036394 0.000364763 -0.0040652)
(-0.00133542 0.000782531 -0.000619768)
(-0.00179368 0.000964488 -0.00163997)
(-0.00137064 0.00107881 -0.00222657)
(-0.00122565 0.00122647 -0.00297155)
(-0.000335774 0.00132021 -0.00345197)
(-0.00122262 0.000873204 -0.000183964)
(-0.00160539 0.0010853 -0.00108549)
(-0.00121102 0.00121196 -0.00157854)
(-0.00107806 0.00137161 -0.00222626)
(-0.000270188 0.00147389 -0.00262001)
(-0.00111955 0.00119034 0.000100306)
(-0.00145489 0.00145589 -0.00070208)
(-0.00108433 0.00160635 -0.00108581)
(-0.000963717 0.00179475 -0.00164004)
(-0.000233435 0.00190263 -0.00192373)
(-0.000952466 0.000953656 0.000721433)
(-0.00118938 0.00112074 0.000100572)
(-0.0008722 0.00122377 -0.000184011)
(-0.000781808 0.00133664 -0.000619594)
(-0.000162237 0.00140892 -0.000818816)
(-0.00210476 0.000320948 -0.000446152)
(-0.00311434 0.00044012 -0.00205871)
(-0.00252278 0.000579458 -0.00305735)
(-0.00233119 0.000694403 -0.00439698)
(-0.000854831 0.000855235 -0.00529792)
(-0.00198296 0.0012024 -0.000212859)
(-0.00285569 0.00151906 -0.00162686)
(-0.0022683 0.00178977 -0.00250603)
(-0.00205535 0.00205539 -0.00360336)
(-0.000694135 0.00233129 -0.00439731)
(-0.00178214 0.00137074 0.00034446)
(-0.00252692 0.0017103 -0.000884649)
(-0.00198646 0.00198696 -0.00155626)
(-0.00178967 0.00226874 -0.0025056)
(-0.000579135 0.00252332 -0.00305738)
(-0.00163684 0.00180265 0.000670511)
(-0.00223941 0.0022399 -0.000346651)
(-0.00170986 0.00252741 -0.000884915)
(-0.00151898 0.00285606 -0.00162664)
(-0.000439847 0.00311478 -0.002059)
(-0.00133677 0.00133773 0.00146082)
(-0.00180216 0.0016378 0.000671047)
(-0.00137035 0.00178311 0.000344714)
(-0.00120235 0.00198388 -0.000212043)
(-0.000320719 0.0021057 -0.000445999)
(-0.00305094 0.000396831 -0.00145013)
(-0.00451315 0.000666558 -0.00379248)
(-0.00381123 0.000822587 -0.00603059)
(-0.00356006 0.00113064 -0.00816238)
(-0.00126471 0.00126554 -0.0107834)
(-0.00277658 0.00157313 -0.000905444)
(-0.00408706 0.00213855 -0.00296277)
(-0.0033471 0.0025799 -0.00467312)
(-0.00311694 0.00311785 -0.00641034)
(-0.00112966 0.00356078 -0.0081636)
(-0.00247516 0.00175654 -0.000106184)
(-0.00350629 0.00236547 -0.00186026)
(-0.00283193 0.00283302 -0.00324458)
(-0.00257918 0.00334829 -0.00467271)
(-0.00082161 0.00381216 -0.00603133)
(-0.00215618 0.00230682 0.000549637)
(-0.00301046 0.00301173 -0.000899195)
(-0.00236429 0.0035075 -0.00186086)
(-0.0021378 0.00408852 -0.00296311)
(-0.000665519 0.00451426 -0.00379384)
(-0.0017574 0.00175913 0.00160537)
(-0.00230561 0.00215792 0.00054989)
(-0.00175526 0.00247685 -0.000106506)
(-0.00157251 0.00277841 -0.000905511)
(-0.000395638 0.0030525 -0.00145135)
(-0.00449481 0.000866446 -0.000378254)
(-0.00769523 0.00127024 -0.00388084)
(-0.00689287 0.00193777 -0.00693291)
(-0.00708423 0.00244675 -0.0108103)
(-0.0034758 0.00347627 -0.0144872)
(-0.00408215 0.00254638 0.000186999)
(-0.00662374 0.00345129 -0.00256536)
(-0.00571594 0.00457585 -0.00509747)
(-0.00554593 0.00554516 -0.00767802)
(-0.00244704 0.00708359 -0.0108103)
(-0.00357142 0.00282582 0.00117867)
(-0.00566561 0.00377384 -0.0011503)
(-0.00479894 0.00479925 -0.00291864)
(-0.00457649 0.00571604 -0.00509733)
(-0.00193773 0.00689328 -0.00693311)
(-0.00311402 0.00351436 0.00186386)
(-0.0046501 0.00465024 0.000156784)
(-0.00377375 0.00566578 -0.00115068)
(-0.00345196 0.00662364 -0.00256541)
(-0.00127044 0.00769519 -0.00388151)
(-0.00241293 0.00241415 0.00312844)
(-0.00351419 0.00311524 0.00186435)
(-0.00282575 0.00357267 0.00117872)
(-0.00254723 0.00408334 0.000187595)
(-0.000866764 0.00449588 -0.00037851)
(-0.00662316 0.000962227 -0.00187219)
(-0.0110682 0.00198258 -0.00669193)
(-0.0107407 0.00265797 -0.0138212)
(-0.0111137 0.00426395 -0.020104)
(-0.00494477 0.00494489 -0.0328659)
(-0.00558537 0.00313 -0.000444262)
(-0.00937189 0.00486905 -0.00437619)
(-0.00845968 0.00659399 -0.00908298)
(-0.0088295 0.00883054 -0.013372)
(-0.00426298 0.0111143 -0.0201051)
(-0.00485058 0.00343332 0.000802064)
(-0.00760393 0.00508753 -0.00228125)
(-0.00677879 0.00677964 -0.00590257)
(-0.00659347 0.00846081 -0.00908292)
(-0.0026573 0.0107409 -0.0138225)
(-0.00389808 0.00425679 0.00216793)
(-0.00602527 0.00602664 -0.000108366)
(-0.0050864 0.0076052 -0.00228208)
(-0.00486859 0.0093738 -0.00437712)
(-0.00198156 0.0110692 -0.00669396)
(-0.00304695 0.00304917 0.00364318)
(-0.00425552 0.00390031 0.00216793)
(-0.00343192 0.00485272 0.000801246)
(-0.00312969 0.00558788 -0.000444922)
(-0.000961045 0.00662515 -0.00187457)
(-0.00942045 0.00229531 0.0010094)
(-0.0196458 0.00358652 -0.00619891)
(-0.0203068 0.00667778 -0.0152757)
(-0.0261317 0.00918171 -0.0288911)
(-0.0162447 0.016247 -0.0456489)
(-0.00809881 0.00522055 0.00225281)
(-0.0152635 0.00786216 -0.00232)
(-0.0147129 0.0124947 -0.00906662)
(-0.0165674 0.0165655 -0.0149924)
(-0.00918378 0.0261297 -0.0288882)
(-0.00672024 0.00543804 0.00381388)
(-0.0123709 0.00804175 4.96874e-05)
(-0.0116012 0.0116007 -0.00410094)
(-0.0124967 0.014712 -0.0090677)
(-0.00667805 0.0203064 -0.0152754)
(-0.0054385 0.00635572 0.00502385)
(-0.00910045 0.00909976 0.00268773)
(-0.00804258 0.0123702 4.93394e-05)
(-0.00786403 0.0152627 -0.00232093)
(-0.00358772 0.0196447 -0.00619969)
(-0.00392037 0.00392159 0.00657779)
(-0.00635637 0.00543972 0.00502373)
(-0.00543863 0.0067215 0.00381337)
(-0.00522295 0.00810028 0.00225158)
(-0.00229646 0.00942119 0.00100834)
(-0.013982 0.00220445 0.000253468)
(-0.0273506 0.00586169 -0.00810849)
(-0.0334309 0.00886862 -0.0283358)
(-0.0414615 0.0181754 -0.050594)
(-0.0218041 0.0218011 -0.120819)
(-0.0102611 0.00593456 0.00313222)
(-0.0206906 0.0111167 -0.00293454)
(-0.0211321 0.0177646 -0.0137322)
(-0.0286432 0.0286461 -0.0249942)
(-0.0181747 0.0414623 -0.0505843)
(-0.00869428 0.00620429 0.00469811)
(-0.0155188 0.0100952 0.000598111)
(-0.0158955 0.0158949 -0.006905)
(-0.0177638 0.0211323 -0.0137348)
(-0.0088696 0.0334274 -0.0283372)
(-0.00628679 0.00702078 0.00679344)
(-0.0110001 0.0110011 0.00410609)
(-0.010095 0.0155196 0.000597801)
(-0.0111167 0.0206923 -0.0029367)
(-0.00586125 0.0273503 -0.00810927)
(-0.00463442 0.00463654 0.00809118)
(-0.00702002 0.00628891 0.00679244)
(-0.006204 0.00869626 0.00469637)
(-0.00593479 0.0102633 0.00312892)
(-0.00220444 0.0139838 0.000249749)
(-0.0179899 0.00517349 0.00827626)
(-0.0482388 0.0087643 -0.00293543)
(-0.062811 0.0213025 -0.0264301)
(-0.119363 0.0349386 -0.0860543)
(-0.0883351 0.0883575 -0.170057)
(-0.0143096 0.00966523 0.0103475)
(-0.0321295 0.0165678 0.00591834)
(-0.0367817 0.0339257 -0.00684572)
(-0.0534178 0.0534231 -0.0153444)
(-0.0349471 0.119359 -0.0860884)
(-0.0109196 0.0090998 0.0114387)
(-0.0239753 0.0150836 0.00808665)
(-0.0259376 0.0259343 0.00188199)
(-0.033929 0.0367787 -0.00684687)
(-0.0213033 0.0628 -0.0264427)
(-0.00818869 0.00974954 0.0124634)
(-0.0152971 0.0152951 0.011164)
(-0.0150866 0.0239729 0.00808641)
(-0.0165701 0.0321279 0.00591452)
(-0.00876716 0.0482354 -0.00293841)
(-0.00525371 0.00525392 0.0129181)
(-0.00975192 0.00818889 0.0124619)
(-0.00910268 0.0109194 0.0114374)
(-0.00966962 0.0143099 0.0103423)
(-0.00517583 0.0179877 0.00827321)
(-0.0254547 0.00427251 0.0138902)
(-0.0620282 0.0147258 0.0104958)
(-0.116768 0.0286163 -0.0167335)
(-0.251998 0.0937935 -0.111372)
(-0.245405 0.121442 -0.430991)
(-0.0148206 0.00909538 0.015961)
(-0.0378796 0.0221323 0.0119846)
(-0.0423474 0.0460473 0.000417162)
(-0.108822 0.108789 -0.032988)
(-0.0938065 0.25197 -0.111211)
(-0.0121333 0.00831946 0.0161622)
(-0.0250731 0.0153394 0.015276)
(-0.0308284 0.0308264 0.00980375)
(-0.0460593 0.0423439 0.000441194)
(-0.028631 0.116795 -0.016736)
(-0.00762762 0.00849973 0.0168342)
(-0.0153759 0.0153751 0.0164572)
(-0.015343 0.0250725 0.0152777)
(-0.022135 0.0378772 0.0119758)
(-0.0147276 0.0620375 0.0105112)
(-0.00510844 0.00510911 0.0161298)
(-0.00850035 0.00762829 0.0168315)
(-0.008323 0.0121341 0.0161598)
(-0.00909728 0.0148214 0.0159537)
(-0.00427734 0.0254564 0.0138884)
(-0.0215596 0.00724058 0.034891)
(-0.0778201 0.0102496 0.0521744)
(-0.112348 0.0389444 0.0905998)
(-0.402606 0.0773607 0.01515)
(-1.16496 0.21974 -0.64617)
(-0.018415 0.0119386 0.0316038)
(-0.0476217 0.0213314 0.0383025)
(-0.0702393 0.0600685 0.0621538)
(-0.168164 0.13397 0.0851783)
(-0.307 0.455901 -0.0623313)
(-0.0118549 0.00997481 0.0274287)
(-0.0303258 0.0195542 0.0349932)
(-0.0407232 0.0407458 0.0460442)
(-0.0600751 0.0703872 0.0621459)
(-0.0389755 0.112194 0.0906)