/*--------------------------------*- C++ -*----------------------------------*\
| =========                 |                                                 |
| \\      /  F ield         | OpenFOAM: The Open Source CFD Toolbox           |
|  \\    /   O peration     | Version:  5.x                                   |
|   \\  /    A nd           | Web:      www.OpenFOAM.org                      |
|    \\/     M anipulation  |                                                 |
\*---------------------------------------------------------------------------*/
FoamFile
{
    version     2.0;
    format      ascii;
    class       volVectorField;
    location    "0.003";
    object      U;
}
// * * * * * * * * * * * * * * * * * * * * * * * * * * * * * * * * * * * * * //

dimensions      [0 1 -1 0 0 0 0];

internalField   nonuniform List<vector> 
1567
(
(-2.25581e-08 -3.20043e-08 -0.000391219)
(-3.65123e-08 -2.19124e-08 -0.000391215)
(-3.04197e-08 -1.87946e-08 -0.000391213)
(-2.79375e-08 -1.33425e-08 -0.000391215)
(-1.74025e-08 -9.82206e-09 -0.000391216)
(-1.89798e-08 -1.32836e-08 -0.000391218)
(-3.16283e-08 -7.44383e-09 -0.000391212)
(-2.69906e-08 -4.95365e-09 -0.000391211)
(-2.41322e-08 -1.28918e-09 -0.000391213)
(-1.46305e-08 1.7307e-09 -0.000391214)
(-1.66845e-08 -2.5961e-09 -0.000391217)
(-2.81697e-08 9.34373e-10 -0.000391209)
(-2.42655e-08 2.98124e-09 -0.000391209)
(-2.12529e-08 5.53728e-09 -0.00039121)
(-1.22659e-08 7.78612e-09 -0.000391211)
(-1.54296e-08 5.33886e-09 -0.000391217)
(-2.60429e-08 7.46348e-09 -0.000391209)
(-2.23873e-08 9.10268e-09 -0.000391208)
(-1.93275e-08 1.09254e-08 -0.00039121)
(-1.06823e-08 1.26483e-08 -0.00039121)
(-1.45492e-08 5.14903e-09 -0.000391234)
(-2.43998e-08 6.0278e-09 -0.000391224)
(-2.0801e-08 6.79375e-09 -0.000391223)
(-1.77047e-08 7.6173e-09 -0.000391224)
(-9.28708e-09 8.41947e-09 -0.000391224)
(-1.41133e-08 -2.99368e-08 9.75325e-05)
(-2.99993e-08 -2.23273e-08 9.75222e-05)
(-3.06524e-08 -1.81075e-08 9.75163e-05)
(-2.61353e-08 -1.27346e-08 9.75107e-05)
(-1.71061e-08 -8.96547e-09 9.75086e-05)
(-1.13713e-08 -1.17768e-08 9.75383e-05)
(-2.57187e-08 -7.42534e-09 9.7527e-05)
(-2.70832e-08 -4.78695e-09 9.7521e-05)
(-2.24836e-08 -1.56354e-09 9.7515e-05)
(-1.42442e-08 1.143e-09 9.75126e-05)
(-9.73372e-09 7.60943e-10 9.75466e-05)
(-2.29981e-08 3.18463e-09 9.75347e-05)
(-2.47903e-08 4.9968e-09 9.75286e-05)
(-2.02054e-08 7.12426e-09 9.75224e-05)
(-1.2176e-08 8.99973e-09 9.75198e-05)
(-8.93125e-09 4.93989e-09 9.75548e-05)
(-2.14756e-08 6.29418e-09 9.75427e-05)
(-2.31434e-08 7.48886e-09 9.75364e-05)
(-1.84809e-08 8.90129e-09 9.75302e-05)
(-1.07418e-08 1.02147e-08 9.75274e-05)
(-8.37085e-09 1.67823e-09 9.75682e-05)
(-2.04435e-08 2.23671e-09 9.75561e-05)
(-2.21808e-08 2.71089e-09 9.75496e-05)
(-1.74771e-08 3.20131e-09 9.75433e-05)
(-9.81837e-09 3.71665e-09 9.75404e-05)
(-3.28543e-08 -2.17826e-08 -0.000243166)
(-5.28449e-08 -1.52116e-08 -0.000243182)
(-4.20671e-08 -1.21723e-08 -0.000243191)
(-3.57024e-08 -7.71949e-09 -0.000243201)
(-1.90655e-08 -4.44864e-09 -0.000243206)
(-3.03276e-08 8.01625e-10 -0.000243156)
(-4.90412e-08 4.94985e-09 -0.000243174)
(-3.90648e-08 7.28911e-09 -0.000243183)
(-3.25202e-08 1.03791e-08 -0.000243194)
(-1.64454e-08 1.29145e-08 -0.000243199)
(-2.86815e-08 1.38872e-08 -0.000243143)
(-4.63475e-08 1.66537e-08 -0.000243161)
(-3.66379e-08 1.84184e-08 -0.00024317)
(-3.00768e-08 2.07107e-08 -0.000243181)
(-1.43433e-08 2.25697e-08 -0.000243186)
(-2.75454e-08 2.68715e-08 -0.000243132)
(-4.45034e-08 2.88517e-08 -0.000243149)
(-3.50076e-08 3.01797e-08 -0.000243158)
(-2.83689e-08 3.18485e-08 -0.00024317)
(-1.30257e-08 3.32774e-08 -0.000243175)
(-2.66913e-08 1.8563e-08 -0.000243115)
(-4.30341e-08 1.94156e-08 -0.000243132)
(-3.36394e-08 2.00344e-08 -0.000243141)
(-2.69772e-08 2.07868e-08 -0.000243152)
(-1.1844e-08 2.14294e-08 -0.000243157)
(-3.0871e-08 -1.39869e-08 -2.94382e-05)
(-5.51028e-08 -9.07182e-09 -2.94605e-05)
(-4.96024e-08 -6.48764e-09 -2.94769e-05)
(-4.1041e-08 -2.72691e-09 -2.94932e-05)
(-2.06172e-08 2.11986e-10 -2.95012e-05)
(-2.89256e-08 1.10898e-08 -2.94253e-05)
(-5.2092e-08 1.44924e-08 -2.94484e-05)
(-4.70553e-08 1.64827e-08 -2.94651e-05)
(-3.82894e-08 1.91418e-08 -2.9482e-05)
(-1.82399e-08 2.12957e-08 -2.94902e-05)
(-2.74491e-08 2.53579e-08 -2.94051e-05)
(-4.9702e-08 2.76924e-08 -2.94284e-05)
(-4.49529e-08 2.92389e-08 -2.94453e-05)
(-3.62279e-08 3.1209e-08 -2.94624e-05)
(-1.63932e-08 3.27833e-08 -2.9471e-05)
(-2.65787e-08 3.30408e-08 -2.93859e-05)
(-4.82056e-08 3.46964e-08 -2.94095e-05)
(-4.35389e-08 3.59257e-08 -2.94265e-05)
(-3.47448e-08 3.74229e-08 -2.94437e-05)
(-1.52686e-08 3.87043e-08 -2.94524e-05)
(-2.57851e-08 1.86777e-08 -2.93608e-05)
(-4.68127e-08 1.94692e-08 -2.93843e-05)
(-4.2225e-08 2.0073e-08 -2.94012e-05)
(-3.34472e-08 2.07864e-08 -2.94183e-05)
(-1.41747e-08 2.13732e-08 -2.94271e-05)
(-5.50893e-08 -2.96704e-09 -0.0001554)
(-9.14663e-08 8.2426e-10 -0.000155444)
(-7.48506e-08 2.94538e-09 -0.000155472)
(-5.99889e-08 6.03451e-09 -0.000155502)
(-2.58902e-08 8.5499e-09 -0.000155516)
(-5.34676e-08 3.39953e-08 -0.000155381)
(-8.88568e-08 3.69621e-08 -0.000155426)
(-7.26643e-08 3.88258e-08 -0.000155455)
(-5.76887e-08 4.12057e-08 -0.000155484)
(-2.3798e-08 4.3126e-08 -0.000155499)
(-5.21073e-08 5.3235e-08 -0.000155348)
(-8.66297e-08 5.55113e-08 -0.000155394)
(-7.06072e-08 5.70405e-08 -0.000155422)
(-5.56886e-08 5.90121e-08 -0.000155452)
(-2.20628e-08 6.04628e-08 -0.000155467)
(-5.11804e-08 7.11271e-08 -0.000155319)
(-8.50471e-08 7.29885e-08 -0.000155364)
(-6.91635e-08 7.43178e-08 -0.000155392)
(-5.42663e-08 7.59136e-08 -0.000155422)
(-2.10739e-08 7.71508e-08 -0.000155437)
(-5.0238e-08 4.37197e-08 -0.000155272)
(-8.34357e-08 4.46609e-08 -0.000155317)
(-6.76807e-08 4.53337e-08 -0.000155345)
(-5.28542e-08 4.61467e-08 -0.000155374)
(-2.00021e-08 4.67489e-08 -0.000155389)
(-7.56764e-08 1.01362e-08 -8.77136e-05)
(-1.2787e-07 1.29884e-08 -8.77789e-05)
(-1.0691e-07 1.4654e-08 -8.78233e-05)
(-8.44715e-08 1.71903e-08 -8.78688e-05)
(-3.34583e-08 1.92732e-08 -8.78917e-05)
(-7.42861e-08 6.24106e-08 -8.7687e-05)
(-1.2559e-07 6.50979e-08 -8.77526e-05)
(-1.05051e-07 6.687e-08 -8.77971e-05)
(-8.24495e-08 6.89589e-08 -8.7843e-05)
(-3.17246e-08 7.06293e-08 -8.7866e-05)
(-7.29769e-08 8.80058e-08 -8.76388e-05)
(-1.23406e-07 9.03263e-08 -8.77042e-05)
(-1.03049e-07 9.19197e-08 -8.77486e-05)
(-8.07119e-08 9.38571e-08 -8.77944e-05)
(-3.01445e-08 9.50985e-08 -8.78177e-05)
(-7.19559e-08 1.09434e-07 -8.75934e-05)
(-1.21673e-07 1.11574e-07 -8.76584e-05)
(-1.0152e-07 1.13119e-07 -8.77025e-05)
(-7.92708e-08 1.14878e-07 -8.77481e-05)
(-2.93119e-08 1.16118e-07 -8.77713e-05)
(-7.08288e-08 6.53025e-08 -8.75273e-05)
(-1.19718e-07 6.64288e-08 -8.75916e-05)
(-9.97444e-08 6.726e-08 -8.76351e-05)
(-7.77114e-08 6.82082e-08 -8.76802e-05)
(-2.82717e-08 6.88225e-08 -8.77033e-05)
(-1.20522e-07 2.82406e-08 -0.000120542)
(-2.0117e-07 3.06089e-08 -0.000120653)
(-1.64758e-07 3.2001e-08 -0.000120725)
(-1.28383e-07 3.41855e-08 -0.0001208)
(-4.72536e-08 3.58178e-08 -0.000120837)
(-1.19216e-07 1.08712e-07 -0.000120503)
(-1.98954e-07 1.11586e-07 -0.000120613)
(-1.63092e-07 1.13529e-07 -0.000120685)
(-1.26594e-07 1.15583e-07 -0.00012076)
(-4.59521e-08 1.17122e-07 -0.000120797)
(-1.17637e-07 1.46804e-07 -0.000120427)
(-1.96349e-07 1.49731e-07 -0.000120537)
(-1.60762e-07 1.51694e-07 -0.000120608)
(-1.2479e-07 1.53975e-07 -0.000120683)
(-4.43742e-08 1.55158e-07 -0.00012072)
(-1.1628e-07 1.82613e-07 -0.000120356)
(-1.94062e-07 1.85627e-07 -0.000120464)
(-1.58848e-07 1.87778e-07 -0.000120535)
(-1.2313e-07 1.90064e-07 -0.000120609)
(-4.36189e-08 1.91526e-07 -0.000120646)
(-1.14614e-07 1.09953e-07 -0.000120248)
(-1.91182e-07 1.11618e-07 -0.000120355)
(-1.56324e-07 1.12838e-07 -0.000120424)
(-1.2104e-07 1.14148e-07 -0.000120497)
(-4.24593e-08 1.14932e-07 -0.000120534)
(-1.8624e-07 5.34658e-08 -0.000106432)
(-3.10406e-07 5.57421e-08 -0.000106605)
(-2.53884e-07 5.7034e-08 -0.000106719)
(-1.96804e-07 5.91169e-08 -0.000106838)
(-6.94216e-08 6.03304e-08 -0.000106898)
(-1.8473e-07 1.77346e-07 -0.000106372)
(-3.07804e-07 1.81118e-07 -0.000106545)
(-2.52086e-07 1.83674e-07 -0.000106658)
(-1.94974e-07 1.86121e-07 -0.000106777)
(-6.84671e-08 1.87769e-07 -0.000106836)
(-1.82456e-07 2.34427e-07 -0.000106257)
(-3.04076e-07 2.3877e-07 -0.000106427)
(-2.48881e-07 2.41672e-07 -0.000106539)
(-1.92709e-07 2.44837e-07 -0.000106656)
(-6.6796e-08 2.46276e-07 -0.000106715)
(-1.80375e-07 2.8889e-07 -0.000106147)
(-3.00558e-07 2.93712e-07 -0.000106315)
(-2.46019e-07 2.97145e-07 -0.000106426)
(-1.90369e-07 3.00641e-07 -0.000106541)
(-6.59525e-08 3.0272e-07 -0.0001066)
(-1.77623e-07 1.73845e-07 -0.000105981)
(-2.95819e-07 1.76596e-07 -0.000106146)
(-2.41952e-07 1.78592e-07 -0.000106254)
(-1.87133e-07 1.80673e-07 -0.000106367)
(-6.44642e-08 1.81835e-07 -0.000106424)
(-2.94099e-07 9.08654e-08 -0.000111826)
(-4.88184e-07 9.36128e-08 -0.000112104)
(-3.97576e-07 9.51527e-08 -0.000112285)
(-3.07433e-07 9.75157e-08 -0.000112475)
(-1.05663e-07 9.84595e-08 -0.000112571)
(-2.91918e-07 2.84051e-07 -0.000111735)
(-4.84416e-07 2.89979e-07 -0.00011201)
(-3.94962e-07 2.9401e-07 -0.00011219)
(-3.04941e-07 2.97807e-07 -0.000112379)
(-1.04975e-07 3.00158e-07 -0.000112474)
(-2.88155e-07 3.71794e-07 -0.000111555)
(-4.78224e-07 3.7914e-07 -0.000111826)
(-3.89748e-07 3.8403e-07 -0.000112002)
(-3.01285e-07 3.89226e-07 -0.000112188)
(-1.02808e-07 3.91583e-07 -0.000112282)
(-2.84554e-07 4.58202e-07 -0.000111385)
(-4.72178e-07 4.66685e-07 -0.000111652)
(-3.84876e-07 4.72672e-07 -0.000111825)
(-2.97388e-07 4.78735e-07 -0.000112008)
(-1.01547e-07 4.82182e-07 -0.0001121)
(-2.79652e-07 2.76647e-07 -0.000111123)
(-4.63753e-07 2.81548e-07 -0.000111384)
(-3.77698e-07 2.85089e-07 -0.000111552)
(-2.91774e-07 2.88743e-07 -0.00011173)
(-9.9266e-08 2.90715e-07 -0.00011182)
(-4.6466e-07 1.4726e-07 -0.000110118)
(-7.68759e-07 1.51375e-07 -0.000110559)
(-6.24785e-07 1.53764e-07 -0.000110844)
(-4.83274e-07 1.57113e-07 -0.000111146)
(-1.63834e-07 1.58215e-07 -0.000111299)
(-4.60988e-07 4.49018e-07 -0.000109977)
(-7.62446e-07 4.59426e-07 -0.000110413)
(-6.20209e-07 4.66486e-07 -0.000110695)
(-4.79031e-07 4.73327e-07 -0.000110994)
(-1.62999e-07 4.77497e-07 -0.000111145)
(-4.54225e-07 5.8434e-07 -0.000109697)
(-7.51289e-07 5.97598e-07 -0.000110125)
(-6.10884e-07 6.06398e-07 -0.000110401)
(-4.72262e-07 6.15727e-07 -0.000110694)
(-1.59717e-07 6.20176e-07 -0.000110841)
(-4.47699e-07 7.20595e-07 -0.000109434)
(-7.40387e-07 7.36106e-07 -0.000109854)
(-6.0208e-07 7.4697e-07 -0.000110124)
(-4.65253e-07 7.58071e-07 -0.000110411)
(-1.57475e-07 7.6422e-07 -0.000110555)
(-4.3868e-07 4.36374e-07 -0.000109025)
(-7.24913e-07 4.45392e-07 -0.000109433)
(-5.88919e-07 4.51881e-07 -0.000109695)
(-4.55012e-07 4.58583e-07 -0.000109973)
(-1.53618e-07 4.62145e-07 -0.000110113)
(-7.36187e-07 2.33701e-07 -0.000110715)
(-1.21378e-06 2.40682e-07 -0.000111416)
(-9.8453e-07 2.44921e-07 -0.000111864)
(-7.62447e-07 2.50351e-07 -0.000112344)
(-2.56507e-07 2.52258e-07 -0.000112585)
(-7.29562e-07 7.05294e-07 -0.000110497)
(-1.20251e-06 7.24387e-07 -0.000111189)
(-9.75908e-07 7.37232e-07 -0.000111631)
(-7.54619e-07 7.50192e-07 -0.000112105)
(-2.54913e-07 7.5799e-07 -0.000112342)
(-7.17049e-07 9.14576e-07 -0.000110061)
(-1.18184e-06 9.39068e-07 -0.000110737)
(-9.58725e-07 9.55238e-07 -0.000111168)
(-7.41689e-07 9.72445e-07 -0.000111631)
(-2.49447e-07 9.81028e-07 -0.000111862)
(-7.05012e-07 1.12981e-06 -0.000109654)
(-1.16185e-06 1.15861e-06 -0.000110314)
(-9.42532e-07 1.17858e-06 -0.000110736)
(-7.28828e-07 1.19926e-06 -0.000111187)
(-2.45246e-07 1.21046e-06 -0.000111412)
(-6.88179e-07 6.86463e-07 -0.000109015)
(-1.13306e-06 7.03295e-07 -0.000109653)
(-9.18079e-07 7.15313e-07 -0.000110059)
(-7.09809e-07 7.27806e-07 -0.000110494)
(-2.38381e-07 7.34378e-07 -0.00011071)
(-1.16725e-06 3.6679e-07 -0.000110733)
(-1.91781e-06 3.79313e-07 -0.000111846)
(-1.55276e-06 3.87124e-07 -0.000112552)
(-1.20416e-06 3.9647e-07 -0.000113313)
(-4.03268e-07 4.002e-07 -0.000113694)
(-1.15503e-06 1.10322e-06 -0.000110395)
(-1.8973e-06 1.13869e-06 -0.000111492)
(-1.53653e-06 1.16224e-06 -0.000112187)
(-1.18994e-06 1.18676e-06 -0.000112937)
(-3.99895e-07 1.20097e-06 -0.000113311)
(-1.1317e-06 1.42675e-06 -0.000109718)
(-1.8588e-06 1.47224e-06 -0.000110784)
(-1.50469e-06 1.50201e-06 -0.000111459)
(-1.16543e-06 1.53387e-06 -0.000112187)
(-3.90506e-07 1.55008e-06 -0.000112549)
(-1.10942e-06 1.76609e-06 -0.00010909)
(-1.82204e-06 1.81973e-06 -0.000110126)
(-1.47491e-06 1.85647e-06 -0.000110783)
(-1.14186e-06 1.89501e-06 -0.000111491)
(-3.82671e-07 1.91548e-06 -0.000111843)
(-1.07795e-06 1.07674e-06 -0.000108095)
(-1.76841e-06 1.10821e-06 -0.000109089)
(-1.42941e-06 1.13049e-06 -0.000109716)
(-1.10642e-06 1.15382e-06 -0.000110393)
(-3.70208e-07 1.16601e-06 -0.000110729)
(-1.8518e-06 5.72216e-07 -0.000110973)
(-3.03225e-06 5.95196e-07 -0.000112739)
(-2.45142e-06 6.09711e-07 -0.000113851)
(-1.90431e-06 6.26389e-07 -0.000115059)
(-6.359e-07 6.33614e-07 -0.00011566)
(-1.82907e-06 1.72046e-06 -0.00011045)
(-2.99452e-06 1.78666e-06 -0.000112187)
(-2.42089e-06 1.83007e-06 -0.000113279)
(-1.87855e-06 1.87647e-06 -0.000114466)
(-6.28935e-07 1.90219e-06 -0.000115057)
(-1.78545e-06 2.21982e-06 -0.000109399)
(-2.92264e-06 2.30455e-06 -0.000111078)
(-2.36161e-06 2.35943e-06 -0.000112133)
(-1.83219e-06 2.41873e-06 -0.000113279)
(-6.12267e-07 2.44919e-06 -0.000113849)
(-1.74413e-06 2.75328e-06 -0.00010843)
(-2.85491e-06 2.85336e-06 -0.000110056)
(-2.30671e-06 2.9211e-06 -0.000111077)
(-1.78879e-06 2.993e-06 -0.000112186)
(-5.9768e-07 3.03071e-06 -0.000112737)
(-1.68513e-06 1.68434e-06 -0.000106882)
(-2.75482e-06 1.74334e-06 -0.000108429)
(-2.22197e-06 1.78466e-06 -0.000109397)
(-1.72258e-06 1.8283e-06 -0.000110448)
(-5.74729e-07 1.85103e-06 -0.000110969)
(-2.93867e-06 8.89413e-07 -0.000111291)
(-4.79597e-06 9.31744e-07 -0.000114098)
(-3.87192e-06 9.58547e-07 -0.000115852)
(-3.01343e-06 9.88422e-07 -0.000117776)
(-1.00432e-06 1.00233e-06 -0.000118734)
(-2.89648e-06 2.67701e-06 -0.000110484)
(-4.72662e-06 2.80011e-06 -0.000113235)
(-3.81561e-06 2.87976e-06 -0.000114953)
(-2.96733e-06 2.96614e-06 -0.000116837)
(-9.90463e-07 3.0122e-06 -0.000117774)
(-2.81527e-06 3.44639e-06 -0.000108856)
(-4.59322e-06 3.60332e-06 -0.000111499)
(-3.70589e-06 3.70389e-06 -0.000113148)
(-2.88099e-06 3.81359e-06 -0.000114954)
(-9.60671e-07 3.86987e-06 -0.000115851)
(-2.73915e-06 4.28321e-06 -0.000107366)
(-4.46913e-06 4.46831e-06 -0.00010991)
(-3.60534e-06 4.59242e-06 -0.000111498)
(-2.80135e-06 4.72582e-06 -0.000113235)
(-9.33753e-07 4.79524e-06 -0.000114096)
(-2.62973e-06 2.62933e-06 -0.000104968)
(-4.284e-06 2.73875e-06 -0.000107366)
(-3.44838e-06 2.81489e-06 -0.000108854)
(-2.67817e-06 2.8961e-06 -0.000110483)
(-8.91396e-07 2.93837e-06 -0.000111288)
(-4.66652e-06 1.37883e-06 -0.000111772)
(-7.59332e-06 1.45793e-06 -0.000116233)
(-6.12914e-06 1.50801e-06 -0.000119007)
(-4.78593e-06 1.56442e-06 -0.000122076)
(-1.59453e-06 1.59227e-06 -0.000123606)
(-4.58744e-06 4.1559e-06 -0.000110525)
(-7.46407e-06 4.38658e-06 -0.000114882)
(-6.02277e-06 4.53449e-06 -0.000117589)
(-4.69933e-06 4.69864e-06 -0.000120583)
(-1.5666e-06 4.78538e-06 -0.000122072)
(-4.43525e-06 5.33715e-06 -0.000108006)
(-7.21472e-06 5.62941e-06 -0.000112163)
(-5.81707e-06 5.81478e-06 -0.000114742)
(-4.53505e-06 6.02044e-06 -0.000117591)
(-1.5102e-06 6.12706e-06 -0.000119006)
(-4.29443e-06 6.64065e-06 -0.00010572)
(-6.98644e-06 6.98632e-06 -0.000109695)
(-5.63173e-06 7.21464e-06 -0.000112162)
(-4.38705e-06 7.46396e-06 -0.000114883)
(-1.45994e-06 7.59358e-06 -0.00011623)
(-4.08875e-06 4.08865e-06 -0.000102008)
(-6.64073e-06 4.29433e-06 -0.000105719)
(-5.33944e-06 4.43519e-06 -0.000108004)
(-4.15611e-06 4.58738e-06 -0.000110525)
(-1.3807e-06 4.66671e-06 -0.000111768)
(-7.41176e-06 2.13455e-06 -0.000112476)
(-1.20315e-05 2.28091e-06 -0.000119571)
(-9.71493e-06 2.37506e-06 -0.000123968)
(-7.61212e-06 2.47869e-06 -0.000128886)
(-2.53724e-06 2.53459e-06 -0.000131353)
(-7.26529e-06 6.44307e-06 -0.00011055)
(-1.17912e-05 6.87013e-06 -0.000117448)
(-9.51723e-06 7.14527e-06 -0.000121721)
(-7.45063e-06 7.45112e-06 -0.000126492)
(-2.48095e-06 7.61278e-06 -0.000128881)
(-6.98359e-06 8.25082e-06 -0.000106672)
(-1.13293e-05 8.78954e-06 -0.000113193)
(-9.13395e-06 9.13103e-06 -0.000117227)
(-7.14461e-06 9.51424e-06 -0.000121724)
(-2.37745e-06 9.71232e-06 -0.000123966)
(-6.72514e-06 1.02811e-05 -0.000103169)
(-1.0911e-05 1.09119e-05 -0.00010936)
(-8.79253e-06 1.13302e-05 -0.000113192)
(-6.86934e-06 1.1792e-05 -0.00011745)
(-2.28316e-06 1.2033e-05 -0.000119567)
(-6.35121e-06 6.35151e-06 -9.74745e-05)
(-1.02802e-05 6.72544e-06 -0.000103168)
(-8.25382e-06 6.9839e-06 -0.00010667)
(-6.44185e-06 7.26558e-06 -0.000110552)
(-2.13665e-06 7.4125e-06 -0.00011247)
(-1.17809e-05 3.29982e-06 -0.000113494)
(-1.90855e-05 3.57657e-06 -0.000124778)
(-1.54446e-05 3.75161e-06 -0.000131809)
(-1.21711e-05 3.95477e-06 -0.000139725)
(-4.06599e-06 4.06213e-06 -0.000143765)
(-1.15038e-05 9.95974e-06 -0.000110522)
(-1.86344e-05 1.07637e-05 -0.000121443)
(-1.50668e-05 1.12749e-05 -0.000128221)
(-1.18598e-05 1.18605e-05 -0.000135859)
(-3.95878e-06 1.21727e-05 -0.000139716)
(-1.09747e-05 1.27186e-05 -0.000104553)
(-1.77703e-05 1.37172e-05 -0.000114785)
(-1.43478e-05 1.43435e-05 -0.00012111)
(-1.12732e-05 1.50624e-05 -0.000128226)
(-3.75516e-06 1.54417e-05 -0.000131805)
(-1.05025e-05 1.58379e-05 -9.92164e-05)
(-1.70096e-05 1.70115e-05 -0.000108837)
(-1.37216e-05 1.77723e-05 -0.000114783)
(-1.07616e-05 1.86362e-05 -0.000121446)
(-3.57996e-06 1.90889e-05 -0.000124773)
(-9.79817e-06 9.79882e-06 -9.0466e-05)
(-1.58359e-05 1.05031e-05 -9.92154e-05)
(-1.27231e-05 1.09754e-05 -0.00010455)
(-9.95662e-06 1.15044e-05 -0.000110525)
(-3.30285e-06 1.17825e-05 -0.000113486)
(-1.87273e-05 5.09944e-06 -0.000114875)
(-3.03461e-05 5.61019e-06 -0.000132846)
(-2.46611e-05 5.95723e-06 -0.000144159)
(-1.95684e-05 6.33931e-06 -0.000157028)
(-6.58461e-06 6.58004e-06 -0.000163713)
(-1.82161e-05 1.53848e-05 -0.00011028)
(-2.94899e-05 1.6864e-05 -0.000127543)
(-2.39332e-05 1.78436e-05 -0.000138368)
(-1.89457e-05 1.895e-05 -0.000150668)
(-6.3433e-06 1.95732e-05 -0.000157022)
(-1.7244e-05 1.95568e-05 -0.000101181)
(-2.78873e-05 2.13949e-05 -0.000117146)
(-2.25752e-05 2.2569e-05 -0.000127101)
(-1.78388e-05 2.39266e-05 -0.000138375)
(-5.96167e-06 2.46558e-05 -0.000144157)
(-1.63729e-05 2.43676e-05 -9.30523e-05)
(-2.64777e-05 2.6481e-05 -0.000107906)
(-2.14015e-05 2.78906e-05 -0.000117144)
(-1.68589e-05 2.94927e-05 -0.000127549)
(-5.61471e-06 3.03514e-05 -0.00013284)
(-1.51252e-05 1.51264e-05 -7.98458e-05)
(-2.43643e-05 1.63741e-05 -9.30514e-05)
(-1.95635e-05 1.72452e-05 -0.000101178)
(-1.53781e-05 1.82171e-05 -0.000110285)
(-5.10383e-06 1.87301e-05 -0.000114865)
(-2.98028e-05 7.88356e-06 -0.000116702)
(-4.83699e-05 8.87034e-06 -0.000145184)
(-3.96269e-05 9.53473e-06 -0.000163614)
(-3.17255e-05 1.03085e-05 -0.000184779)
(-1.07575e-05 1.07496e-05 -0.000196521)
(-2.88153e-05 2.36535e-05 -0.00010959)
(-4.67226e-05 2.64638e-05 -0.000136791)
(-3.81921e-05 2.83324e-05 -0.000154172)
(-3.05138e-05 3.05138e-05 -0.000174019)
(-1.03191e-05 3.17295e-05 -0.000184771)
(-2.69848e-05 2.99461e-05 -9.57416e-05)
(-4.36909e-05 3.33542e-05 -0.000120618)
(-3.55769e-05 3.55674e-05 -0.00013632)
(-2.83284e-05 3.81815e-05 -0.000154181)
(-9.5435e-06 3.96236e-05 -0.000163609)
(-2.53977e-05 3.71729e-05 -8.34852e-05)
(-4.11013e-05 4.1106e-05 -0.000106327)
(-3.33648e-05 4.36958e-05 -0.000120617)
(-2.64575e-05 4.67259e-05 -0.0001368)
(-8.87895e-06 4.83809e-05 -0.000145178)
(-2.30414e-05 2.3043e-05 -6.33465e-05)
(-3.71681e-05 2.53993e-05 -8.34832e-05)
(-2.9957e-05 2.69866e-05 -9.57384e-05)
(-2.36432e-05 2.88166e-05 -0.000109598)
(-7.89145e-06 2.98086e-05 -0.000116686)
(-4.72912e-05 1.21946e-05 -0.000118833)
(-7.72582e-05 1.39904e-05 -0.000164017)
(-6.42563e-05 1.53882e-05 -0.000194465)
(-5.24759e-05 1.70911e-05 -0.000228042)
(-1.8334e-05 1.83235e-05 -0.000247396)
(-4.54944e-05 3.63449e-05 -0.000107784)
(-7.40716e-05 4.14304e-05 -0.00015048)
(-6.11611e-05 4.51374e-05 -0.000178612)
(-4.95448e-05 4.95487e-05 -0.000210304)
(-1.71038e-05 5.24851e-05 -0.000228043)
(-4.21916e-05 4.5662e-05 -8.69799e-05)
(-6.84657e-05 5.1859e-05 -0.000125366)
(-5.6138e-05 5.61242e-05 -0.00015034)
(-4.51282e-05 6.11451e-05 -0.000178622)
(-1.53992e-05 6.42487e-05 -0.000194469)
(-3.92799e-05 5.67628e-05 -6.84481e-05)
(-6.36094e-05 6.36155e-05 -0.00010312)
(-5.1875e-05 6.84723e-05 -0.000125366)
(-4.14202e-05 7.40755e-05 -0.000150494)
(-1.4003e-05 7.72745e-05 -0.000164015)
(-3.53208e-05 3.53239e-05 -3.91879e-05)
(-5.67562e-05 3.92831e-05 -6.84462e-05)
(-4.5678e-05 4.21953e-05 -8.6977e-05)
(-3.6326e-05 4.54976e-05 -0.000107797)
(-1.22056e-05 4.73036e-05 -0.00011882)
(-7.51182e-05 1.891e-05 -0.000120988)
(-0.000124002 2.23918e-05 -0.000191957)
(-0.000103651 2.53755e-05 -0.000240612)
(-8.46564e-05 2.80397e-05 -0.00029637)
(-3.01131e-05 3.00999e-05 -0.000331693)
(-7.16359e-05 5.55069e-05 -0.000103777)
(-0.000117551 6.51153e-05 -0.000169977)
(-9.80164e-05 7.24575e-05 -0.000214768)
(-7.9945e-05 7.99333e-05 -0.000265522)
(-2.80631e-05 8.46564e-05 -0.000296399)
(-6.54832e-05 6.92817e-05 -7.23006e-05)
(-0.000107051 8.07143e-05 -0.000131337)
(-8.88334e-05 8.88139e-05 -0.00017073)
(-7.24575e-05 9.7992e-05 -0.000214771)
(-2.53994e-05 0.000103652 -0.000240624)
(-6.0172e-05 8.49651e-05 -4.51433e-05)
(-9.80189e-05 9.80255e-05 -9.72813e-05)
(-8.07387e-05 0.000107059 -0.000131345)
(-6.5107e-05 0.000117551 -0.000169999)
(-2.24125e-05 0.00012403 -0.000191976)
(-5.23889e-05 5.23924e-05 -9.52471e-07)
(-8.49573e-05 6.01755e-05 -4.51379e-05)
(-6.93081e-05 6.54879e-05 -7.22974e-05)
(-5.54862e-05 7.16375e-05 -0.000103791)
(-1.89323e-05 7.51354e-05 -0.000120969)
(-0.000118471 2.93764e-05 -0.000123206)
(-0.000196882 3.59525e-05 -0.000233759)
(-0.00016867 4.12223e-05 -0.000319832)
(-0.000143557 4.79386e-05 -0.000414455)
(-5.36495e-05 5.36215e-05 -0.000483234)
(-0.000111893 8.50323e-05 -9.57025e-05)
(-0.000185062 0.00010205 -0.000198628)
(-0.000156706 0.000115019 -0.000273742)
(-0.000131176 0.000131148 -0.00035773)
(-4.79806e-05 0.000143555 -0.000414512)
(-0.000101406 0.000104296 -4.95405e-05)
(-0.000166895 0.000124555 -0.000138774)
(-0.000139572 0.000139547 -0.000202803)
(-0.000115022 0.000156668 -0.000273733)
(-4.12558e-05 0.000168672 -0.000319837)
(-9.1576e-05 0.000128111 -6.53158e-06)
(-0.000149811 0.000149815 -8.4851e-05)
(-0.000124593 0.000166905 -0.000138787)
(-0.000102051 0.000185055 -0.000198648)
(-3.59913e-05 0.00019693 -0.000233793)
(-7.96437e-05 7.96523e-05 5.28013e-05)
(-0.000128101 9.15845e-05 -6.52746e-06)
(-0.000104332 0.00010142 -4.95375e-05)
(-8.49975e-05 0.000111904 -9.57186e-05)
(-2.94038e-05 0.000118522 -0.000123192)
(-0.000186013 4.63808e-05 -0.000120791)
(-0.000320628 5.7512e-05 -0.000292755)
(-0.000284347 7.14648e-05 -0.000441851)
(-0.000248059 8.47775e-05 -0.000598133)
(-9.88715e-05 9.88405e-05 -0.000728653)
(-0.000174876 0.000129172 -7.98835e-05)
(-0.000295591 0.000160101 -0.000233318)
(-0.000257119 0.000189486 -0.000360103)
(-0.000220715 0.000220655 -0.000494744)
(-8.48339e-05 0.000248054 -0.00059834)
(-0.000154993 0.000158453 -9.74266e-06)
(-0.000260314 0.000194491 -0.00014426)
(-0.000223793 0.000223768 -0.000246732)
(-0.000189491 0.000257075 -0.000360058)
(-7.14976e-05 0.000284371 -0.0004419)
(-0.000138732 0.000187307 4.74427e-05)
(-0.000230275 0.000230272 -6.22022e-05)
(-0.000194535 0.000260325 -0.000144304)
(-0.000160113 0.000295566 -0.00023337)
(-5.75624e-05 0.000320676 -0.000292867)
(-0.000111906 0.000111914 0.000129544)
(-0.000187296 0.00013874 4.74495e-05)
(-0.000158499 0.000155015 -9.75053e-06)
(-0.000129141 0.000174881 -7.99095e-05)
(-4.64258e-05 0.000186077 -0.000120811)
(-0.000290986 7.02556e-05 -0.000118006)
(-0.000517943 9.53872e-05 -0.000389915)
(-0.000474048 0.000122994 -0.000652034)
(-0.00043036 0.000151383 -0.000919249)
(-0.000184078 0.000184007 -0.00119276)
(-0.000265823 0.00019608 -4.8655e-05)
(-0.000465282 0.000250546 -0.000287393)
(-0.000418132 0.000310137 -0.000501238)
(-0.000369413 0.000369223 -0.000722)
(-0.000151533 0.000430309 -0.000919548)
(-0.000236351 0.000231622 4.786e-05)
(-0.000403886 0.000295671 -0.000150817)
(-0.00035537 0.000355346 -0.000322189)
(-0.000310189 0.000418042 -0.000501118)
(-0.000123055 0.000474145 -0.000652118)
(-0.000201562 0.000267398 0.000133643)
(-0.000341558 0.000341525 -2.03384e-05)
(-0.000295761 0.000403888 -0.0001509)
(-0.000250614 0.000465205 -0.00028745)
(-9.54787e-05 0.000518019 -0.000390098)
(-0.000161991 0.000162007 0.000252607)
(-0.000267396 0.000201577 0.000133663)
(-0.00023169 0.000236401 4.78459e-05)
(-0.000196058 0.00026586 -4.86632e-05)
(-7.03105e-05 0.000291128 -0.000118049)
(-0.000458817 0.000115731 -7.75768e-05)
(-0.000854657 0.000160069 -0.000488479)
(-0.000813682 0.000222344 -0.000939306)
(-0.000788785 0.000282146 -0.00140705)
(-0.000372225 0.000372242 -0.00197223)
(-0.000414397 0.000295038 2.32684e-05)
(-0.000748175 0.000399199 -0.000321004)
(-0.000691726 0.00051933 -0.000669798)
(-0.000639026 0.000638787 -0.00102527)
(-0.000282276 0.000788695 -0.00140813)
(-0.000354305 0.000340751 0.000152166)
(-0.000630364 0.000461545 -0.000121944)
(-0.000574093 0.000574106 -0.000393591)
(-0.00051942 0.000691625 -0.000669487)
(-0.000222404 0.000813822 -0.000939549)
(-0.000293201 0.000392054 0.000276313)
(-0.000514819 0.000514753 6.57183e-05)
(-0.000461646 0.000630361 -0.000122138)
(-0.000399311 0.000748021 -0.000321097)
(-0.000160165 0.000854746 -0.000488965)
(-0.000231219 0.000231247 0.0004308)
(-0.000392058 0.000293229 0.000276338)
(-0.000340826 0.000354395 0.00015211)
(-0.000295035 0.000414451 2.32664e-05)
(-0.000115785 0.000459023 -7.7777e-05)
(-0.000703298 0.000171162 -3.15829e-05)
(-0.00137967 0.000262999 -0.000657673)
(-0.00139261 0.000392709 -0.00147679)
(-0.00146328 0.000533593 -0.00230287)
(-0.000748708 0.000748524 -0.0035769)
(-0.000611261 0.000425823 0.000125156)
(-0.00115835 0.000617081 -0.000377831)
(-0.0011224 0.000855852 -0.000963195)
(-0.00110774 0.00110678 -0.0015576)
(-0.000534141 0.00146299 -0.00230336)
(-0.000511367 0.000484667 0.000312267)
(-0.000949644 0.000682393 -7.49513e-05)
(-0.000902913 0.000903005 -0.000519662)
(-0.000856147 0.00112222 -0.000962888)
(-0.000392836 0.00139331 -0.00147735)
(-0.000412829 0.000546033 0.000494531)
(-0.00074001 0.000739807 0.000200364)
(-0.000682576 0.00094959 -7.52201e-05)
(-0.000617441 0.00115796 -0.000377923)
(-0.000263212 0.00137979 -0.000658269)
(-0.000316944 0.000316984 0.000702403)
(-0.000546087 0.000412869 0.000494559)
(-0.000484762 0.000511557 0.000312109)
(-0.000425945 0.000611389 0.000125064)
(-0.000171236 0.000703726 -3.19753e-05)
(-0.0010871 0.000272586 0.000157802)
(-0.00229987 0.000440077 -0.00072281)
(-0.00245888 0.000736331 -0.00209836)
(-0.00288889 0.00102749 -0.00365825)
(-0.00164618 0.00164645 -0.00657025)
(-0.000919113 0.000638889 0.000390194)
(-0.00183653 0.000981921 -0.00025391)
(-0.0018715 0.00147646 -0.00117383)
(-0.00197919 0.00197876 -0.00211273)
(-0.00102772 0.00288824 -0.00366335)
(-0.000742822 0.000710126 0.000633375)
(-0.0014623 0.00103974 0.000125684)
(-0.00146203 0.00146208 -0.000509247)
(-0.0014771 0.0018713 -0.00117254)
(-0.000736571 0.00245892 -0.00209885)
(-0.000588317 0.00078219 0.000866368)
(-0.00108457 0.00108426 0.000509587)
(-0.00103993 0.00146213 0.000125204)
(-0.00098236 0.00183598 -0.000254023)
(-0.000440291 0.00230012 -0.000724262)
(-0.00043973 0.000439786 0.00110266)
(-0.000782352 0.000588372 0.000866375)
(-0.000710321 0.000743023 0.000633136)
(-0.000639119 0.000919167 0.000390152)
(-0.000272662 0.00108751 0.000157117)
(-0.00158707 0.000403724 0.000428063)
(-0.00363583 0.00073258 -0.000816604)
(-0.00432806 0.00131805 -0.00319346)
(-0.00593511 0.00208177 -0.00610671)
(-0.00365815 0.00365775 -0.0128521)
(-0.00125767 0.000901396 0.000776785)
(-0.00272238 0.00146557 -0.000102746)
(-0.00298123 0.00244496 -0.00153936)
(-0.00359725 0.00359248 -0.00318417)
(-0.0020842 0.00593432 -0.00610352)
(-0.00102078 0.00096084 0.00107771)
(-0.00209227 0.00144589 0.000424521)
(-0.00220113 0.00220204 -0.000501377)
(-0.00244575 0.00298093 -0.00153978)
(-0.00131785 0.0043324 -0.00319749)
(-0.000770812 0.00101531 0.00135487)
(-0.00148118 0.0014805 0.000947995)
(-0.00144618 0.00209197 0.000424182)
(-0.00146691 0.00272065 -0.000102831)
(-0.000733041 0.00363576 -0.000816994)
(-0.000554038 0.000554085 0.00160047)
(-0.00101561 0.00077086 0.00135466)
(-0.000960985 0.00102121 0.00107706)
(-0.000901963 0.00125787 0.000775976)
(-0.000403934 0.00158827 0.000425903)
(-0.00233636 0.000621671 0.00129261)
(-0.00592139 0.0011539 -0.000173531)
(-0.00774858 0.00239158 -0.00373783)
(-0.0125543 0.00394768 -0.00970082)
(-0.0084049 0.00840597 -0.0272102)
(-0.00180183 0.00128853 0.00166818)
(-0.00415268 0.00222304 0.000771871)
(-0.00495292 0.00416853 -0.00100054)
(-0.00654424 0.00654659 -0.00331474)
(-0.00394691 0.0125496 -0.00971812)
(-0.00139833 0.00128821 0.00191202)
(-0.00304138 0.00209048 0.00132438)
(-0.00342633 0.00342563 0.000278248)
(-0.0041732 0.00495264 -0.000999062)
(-0.00239484 0.00774504 -0.00373775)
(-0.000996646 0.00130496 0.00214112)
(-0.00201526 0.00201441 0.00181635)
(-0.00209076 0.00304057 0.00132406)
(-0.00222353 0.00415173 0.000772611)
(-0.00115377 0.00592351 -0.000176058)
(-0.000686425 0.000686273 0.00230912)
(-0.00130577 0.000996495 0.00214065)
(-0.00128901 0.00139822 0.00191107)
(-0.00129027 0.00180116 0.00166674)
(-0.000622649 0.002335 0.00129076)
(-0.00305897 0.000779521 0.00247931)
(-0.00866572 0.00167985 0.000905389)
(-0.0136537 0.00405723 -0.00330512)
(-0.0320475 0.00856878 -0.015493)
(-0.0244227 0.0244273 -0.055307)
(-0.00215748 0.0015208 0.00277811)
(-0.00539109 0.00296346 0.00198659)
(-0.00706658 0.00646188 -0.000143001)
(-0.0126735 0.0126528 -0.00472383)
(-0.00857901 0.0320408 -0.0154778)
(-0.00161068 0.00143379 0.00295424)
(-0.00372603 0.00249037 0.00252785)
(-0.00452457 0.00452665 0.00157939)
(-0.00646259 0.00706703 -0.000142537)
(-0.0040518 0.0136727 -0.00332509)
(-0.00109683 0.00141242 0.00307819)
(-0.00229824 0.00229677 0.0029104)