/*--------------------------------*- C++ -*----------------------------------*\
| =========                 |                                                 |
| \\      /  F ield         | OpenFOAM: The Open Source CFD Toolbox           |
|  \\    /   O peration     | Version:  5.x                                   |
|   \\  /    A nd           | Web:      www.OpenFOAM.org                      |
|    \\/     M anipulation  |                                                 |
\*---------------------------------------------------------------------------*/
FoamFile
{
    version     2.0;
    format      ascii;
    class       volScalarField;
    location    "0.13";
    object      Ksl;
}
// * * * * * * * * * * * * * * * * * * * * * * * * * * * * * * * * * * * * * //

dimensions      [1 -3 -1 0 0 0 0];

internalField   nonuniform List<scalar> 
160
(
0.00137731
0.0138088
0.010268
0.00075074
0.0398535
0.19548
0.149669
0.0119427
0.885997
2.50387
1.40495
0.222258
2.91224
3.16332
1.53057
1.24493
1.12925
1.28797
0.988921
0.114164
0.0743173
0.074615
0.0664127
0.00567728
0.000836705
0.000972911
0.00108559
0.00029691
2.08499e-05
1.42365e-05
1.50636e-05
4.34062e-06
0
0
0
0
0
0
0
0
0.0138088
0.0515968
0.0412022
0.00362959
0.19548
4.35234
2.84692
0.144638
2.50387
3.33853
1.57392
1.91915
3.16332
3.19703
1.51194
1.50964
1.28797
5.11228
1.88107
1.08171
0.074615
0.139671
0.141313
0.109079
0.000972911
0.00172593
0.00166755
0.00569142
1.42365e-05
2.53811e-05
2.36626e-05
4.11661e-05
0
4.19046e-07
3.80659e-07
0
0
0
0
0
0.010268
0.0412022
0.0376453
0.00333607
0.149669
2.84692
2.06862
0.173426
1.40495
1.57392
1.04476
1.1731
1.53057
1.51194
1.01069
1.01723
0.988921
1.88107
1.17168
0.788609
0.0664127
0.141313
0.146772
0.109495
0.00108559
0.00166755
0.00165455
0.0344565
1.50636e-05
2.36626e-05
2.24477e-05
5.66556e-05
0
3.80659e-07
3.55727e-07
0
0
0
0
0
0.00075074
0.00362959
0.00333607
0.000226039
0.0119427
0.144638
0.173426
0.013602
0.222258
1.91915
1.1731
1.06996
1.24493
1.50964
1.01723
0.974137
0.114164
1.08171
0.788609
0.165825
0.00567728
0.109079
0.109495
0.00354761
0.00029691
0.00569142
0.0344565
7.15428e-05
4.34062e-06
4.11661e-05
5.66556e-05
0
0
0
0
0
0
0
0
0
)
;

boundaryField
{
    inlet
    {
        type            zeroGradient;
    }
    outlet
    {
        type            zeroGradient;
    }
    walls
    {
        type            zeroGradient;
    }
    procBoundary0to1
    {
        type            processor;
        value           uniform 0;
    }
}


// ************************************************************************* //
