/*--------------------------------*- C++ -*----------------------------------*\
| =========                 |                                                 |
| \\      /  F ield         | OpenFOAM: The Open Source CFD Toolbox           |
|  \\    /   O peration     | Version:  5.x                                   |
|   \\  /    A nd           | Web:      www.OpenFOAM.org                      |
|    \\/     M anipulation  |                                                 |
\*---------------------------------------------------------------------------*/
FoamFile
{
    version     2.0;
    format      ascii;
    class       volScalarField;
    location    "0.13";
    object      p;
}
// * * * * * * * * * * * * * * * * * * * * * * * * * * * * * * * * * * * * * //

dimensions      [0 2 -2 0 0 0 0];

internalField   nonuniform List<scalar> 
160
(
1.20141e-07
1.66115e-07
1.63772e-07
1.0436e-07
4.64142e-07
1.30662e-06
8.9693e-07
2.81899e-07
3.14237e-07
1.75415e-06
1.07011e-06
5.55031e-09
-1.50922e-06
-2.48703e-06
-1.40672e-06
-1.03483e-06
-2.26748e-06
-4.76977e-06
-3.08258e-06
-1.46726e-06
-6.89637e-07
1.98834e-06
8.61264e-07
-8.53879e-08
-3.6118e-07
1.90305e-06
1.38347e-06
8.03036e-07
1.94502e-08
4.15166e-07
3.14438e-07
1.80715e-07
-4.31195e-08
-1.26374e-07
-8.58894e-08
-9.71354e-08
-5.89596e-07
-7.52395e-07
-7.02329e-07
-5.6065e-07
1.66115e-07
1.34935e-06
8.5327e-07
5.30743e-07
1.30662e-06
6.38275e-06
3.86587e-06
1.64684e-06
1.75415e-06
1.65336e-05
8.95732e-06
2.38035e-06
-2.48703e-06
1.19701e-05
3.99944e-06
1.4174e-06
-4.76977e-06
-1.59952e-05
-9.69715e-06
-2.03392e-06
1.98834e-06
-1.40155e-05
-6.10033e-06
-2.19361e-06
1.90305e-06
-1.13827e-06
-5.54535e-07
-7.06761e-07
4.15166e-07
-1.63137e-06
-8.09046e-07
-9.34598e-07
-1.26374e-07
-2.01716e-06
-1.11484e-06
-1.17776e-06
-7.52395e-07
-2.01155e-06
-1.45652e-06
-1.51423e-06
1.63772e-07
8.5327e-07
6.22109e-07
3.79021e-07
8.9693e-07
3.86587e-06
2.58883e-06
1.06065e-06
1.07011e-06
8.95732e-06
5.65735e-06
1.32746e-06
-1.40672e-06
3.99944e-06
1.87837e-06
3.63893e-08
-3.08258e-06
-9.69715e-06
-7.20171e-06
-1.90762e-06
8.61264e-07
-6.10033e-06
-4.10293e-06
-1.06927e-06
1.38347e-06
-5.54535e-07
-1.3822e-07
-8.93717e-08
3.14438e-07
-8.09046e-07
-4.352e-07
-6.8357e-07
-8.58894e-08
-1.11484e-06
-7.74585e-07
-8.27524e-07
-7.02329e-07
-1.45652e-06
-1.22005e-06
-1.29317e-06
1.0436e-07
5.30743e-07
3.79021e-07
3.42129e-07
2.81899e-07
1.64684e-06
1.06065e-06
7.39634e-07
5.55031e-09
2.38035e-06
1.32746e-06
7.83981e-07
-1.03483e-06
1.4174e-06
3.63893e-08
1.98194e-07
-1.46726e-06
-2.03392e-06
-1.90762e-06
-6.95174e-07
-8.53879e-08
-2.19361e-06
-1.06927e-06
-8.85063e-07
8.03036e-07
-7.06761e-07
-8.93717e-08
-1.0474e-06
1.80715e-07
-9.34598e-07
-6.8357e-07
-1.14429e-06
-9.71354e-08
-1.17776e-06
-8.27524e-07
-1.31387e-06
-5.6065e-07
-1.51423e-06
-1.29317e-06
-1.50844e-06
)
;

boundaryField
{
    inlet
    {
        type            zeroGradient;
    }
    outlet
    {
        type            totalPressure;
        rho             rho;
        psi             none;
        gamma           1;
        p0              uniform 0;
        value           nonuniform List<scalar> 
16
(
-3.54767e-12
0
-4.20494e-12
-3.16635e-12
0
0
0
0
-4.20494e-12
0
0
0
-3.16635e-12
0
0
0
)
;
    }
    walls
    {
        type            zeroGradient;
    }
    procBoundary0to1
    {
        type            processor;
        value           nonuniform List<scalar> 
16
(
-8.8193e-07
-1.04639e-06
-1.04945e-06
-8.75863e-07
-1.04639e-06
-1.80358e-06
-1.50853e-06
-1.56806e-06
-1.04945e-06
-1.50853e-06
-1.44108e-06
-1.4621e-06
-8.75863e-07
-1.56806e-06
-1.4621e-06
-1.57464e-06
)
;
    }
}


// ************************************************************************* //
