/*--------------------------------*- C++ -*----------------------------------*\
| =========                 |                                                 |
| \\      /  F ield         | OpenFOAM: The Open Source CFD Toolbox           |
|  \\    /   O peration     | Version:  5.x                                   |
|   \\  /    A nd           | Web:      www.OpenFOAM.org                      |
|    \\/     M anipulation  |                                                 |
\*---------------------------------------------------------------------------*/
FoamFile
{
    version     2.0;
    format      ascii;
    class       surfaceScalarField;
    location    "0.13";
    object      phi;
}
// * * * * * * * * * * * * * * * * * * * * * * * * * * * * * * * * * * * * * //

dimensions      [0 3 -1 0 0 0 0];

internalField   nonuniform List<scalar> 
384
(
-4.55762e-12
1.66737e-11
-4.55762e-12
-1.37974e-12
-3.45959e-13
-2.82721e-11
1.4127e-12
2.43457e-12
-2.00476e-11
1.06502e-11
-1.5496e-11
-1.57959e-11
2.33393e-11
-1.57959e-11
-7.63778e-13
-3.04051e-12
-1.08053e-10
7.64174e-12
4.95012e-12
-7.32496e-11
2.0833e-11
-4.61331e-11
-2.10391e-11
2.88483e-11
-2.10391e-11
-1.11895e-12
8.16976e-12
-2.65136e-10
1.15574e-11
1.58369e-11
-1.66078e-10
3.41982e-11
-8.6295e-11
-3.72099e-11
1.82574e-11
-3.72099e-11
1.00282e-13
-3.53971e-11
-6.76406e-10
3.27591e-11
-2.67001e-12
-3.95626e-10
4.97131e-11
-1.44622e-10
-1.19097e-11
-3.03885e-12
-1.19097e-11
1.63074e-12
-1.87502e-10
-5.56469e-10
2.56305e-11
-7.6665e-11
-3.2795e-10
3.71844e-11
-1.37671e-10
3.79448e-12
8.54503e-12
3.79448e-12
2.64012e-11
-2.59735e-10
-4.07552e-11
2.78432e-11
-1.20442e-10
-5.86022e-11
1.66895e-11
-5.39813e-11
-1.71172e-11
1.64228e-11
-1.71172e-11
2.81689e-11
-2.90491e-10
1.26802e-10
4.67197e-11
-1.38977e-10
3.53955e-11
2.58778e-11
-7.51212e-12
-7.46458e-12
1.34395e-11
-7.46458e-12
1.52734e-11
-2.8566e-10
2.08353e-10
2.46772e-11
-1.39478e-10
1.02117e-10
3.22527e-11
4.49165e-11
7.6395e-12
2.60485e-11
7.6395e-12
3.44539e-12
-2.11152e-10
3.22168e-10
1.59549e-11
-9.88153e-11
1.43756e-10
3.589e-11
8.9177e-11
4.8425e-11
4.8425e-11
-1.0468e-12
4.57012e-10
-3.46567e-11
3.02037e-10
1.37746e-10
-2.82721e-11
-3.45959e-13
-1.37974e-12
-1.28092e-12
-1.83074e-10
-1.28092e-12
8.68824e-12
-1.09448e-10
-2.74611e-12
-5.48135e-11
-4.06274e-12
-1.08053e-10
-3.04051e-12
-7.63778e-13
6.40331e-12
-4.11986e-10
6.40331e-12
5.06592e-11
-2.23278e-10
-3.67539e-12
-6.60698e-11
-8.13946e-12
-2.65136e-10
8.16976e-12
-1.11895e-12
3.73698e-11
-1.017e-09
3.73698e-11
1.37939e-10
-4.90848e-10
9.21688e-13
-7.04493e-11
-1.09468e-11
-6.76406e-10
-3.53971e-11
1.00282e-13
1.63324e-10
-2.69646e-09
1.63324e-10
4.63967e-10
-1.226e-09
3.8887e-11
6.88599e-13
-8.01723e-12
-5.56469e-10
-1.87502e-10
1.63074e-12
9.98387e-11
-4.00907e-09
9.98387e-11
4.14091e-10
-1.88699e-09
1.87798e-11
5.0926e-11
-1.12947e-11
-4.07552e-11
-2.59735e-10
2.64012e-11
-6.56676e-11
-3.95925e-09
-6.56676e-11
1.37434e-11
-2.00836e-09
-1.66399e-11
1.71726e-11
-2.65845e-11
1.26802e-10
-2.90491e-10
2.81689e-11
-3.75631e-11
-3.63052e-09
-3.75631e-11
-7.08745e-11
-1.93693e-09
-2.71889e-12
-2.36809e-11
-1.38211e-11
2.08353e-10
-2.8566e-10
1.52734e-11
-2.80578e-11
-3.1577e-09
-2.80578e-11
-1.10313e-10
-1.75184e-09
-7.22866e-13
-4.53315e-11
3.6239e-12
3.22168e-10
-2.11152e-10
3.44539e-12
-6.96993e-11
-2.37396e-09
-6.96993e-11
-1.80057e-10
-1.46104e-09
-3.66802e-11
-8.33884e-11
5.19955e-12
4.57012e-10
-1.0468e-12
-7.14896e-11
-7.14896e-11
-3.22135e-10
-1.39999e-11
1.20212e-11
-2.00476e-11
2.43457e-12
1.4127e-12
-2.74611e-12
-1.09448e-10
8.68824e-12
5.2589e-12
-7.83098e-11
5.2589e-12
-3.81934e-11
-3.41318e-14
-7.32496e-11
4.95012e-12
7.64174e-12
-3.67539e-12
-2.23278e-10
5.06592e-11
3.18971e-11
-1.49455e-10
3.18971e-11
-3.6851e-11
5.42277e-12
-1.66078e-10
1.58369e-11
1.15574e-11
9.21688e-13
-4.90848e-10
1.37939e-10
8.68756e-11
-3.21363e-10
8.68756e-11
-2.47448e-11
1.57964e-11
-3.95626e-10
-2.67001e-12
3.27591e-11
3.8887e-11
-1.226e-09
4.63967e-10
2.83242e-10
-8.10074e-10
2.83242e-10
2.50695e-11
4.28996e-11
-3.2795e-10
-7.6665e-11
2.56305e-11
1.87798e-11
-1.88699e-09
4.14091e-10
2.43571e-10
-1.25966e-09
2.43571e-10
4.20177e-11
3.83992e-11
-5.86022e-11
-1.20442e-10
2.78432e-11
-1.66399e-11
-2.00836e-09
1.37434e-11
3.40159e-11
-1.36097e-09
3.40159e-11
1.17443e-11
5.01754e-12
3.53955e-11
-1.38977e-10
4.67197e-11
-2.71889e-12
-1.93693e-09
-7.08745e-11
-6.78774e-12
-1.35283e-09
-6.78774e-12
-1.17035e-11
1.03315e-12
1.02117e-10
-1.39478e-10
2.46772e-11
-7.22866e-13
-1.75184e-09
-1.10313e-10
-4.25602e-11
-1.26916e-09
-4.25602e-11
-2.7389e-11
-4.43445e-12
1.43756e-10
-9.88153e-11
1.59549e-11
-3.66802e-11
-1.46104e-09
-1.80057e-10
-4.51843e-11
-1.25215e-09
-4.51843e-11
-7.61885e-11
-1.26098e-11
3.02037e-10
-3.46567e-11
-1.39999e-11
-3.22135e-10
-2.06422e-10
-2.06422e-10
-4.31422e-11
-1.5496e-11
1.06502e-11
-4.06274e-12
-5.48135e-11
-3.41318e-14
-3.81934e-11
-3.11829e-11
-4.61331e-11
2.0833e-11
-8.13946e-12
-6.60698e-11
5.42277e-12
-3.6851e-11
-2.20732e-11
-8.6295e-11
3.41982e-11
-1.09468e-11
-7.04493e-11
1.57964e-11
-2.47448e-11
-1.40856e-12
-1.44622e-10
4.97131e-11
-8.01723e-12
6.88599e-13
4.28996e-11
2.50695e-11
4.18521e-11
-1.37671e-10
3.71844e-11
-1.12947e-11
5.0926e-11
3.83992e-11
4.20177e-11
8.341e-11
-5.39813e-11
1.66895e-11
-2.65845e-11
1.71726e-11
5.01754e-12
1.17443e-11
1.1078e-10
-7.51212e-12
2.58778e-11
-1.38211e-11
-2.36809e-11
1.03315e-12
-1.17035e-11
1.14579e-10
4.49165e-11
3.22527e-11
3.6239e-12
-4.53315e-11
-4.43445e-12
-2.7389e-11
1.01368e-10
8.9177e-11
3.589e-11
5.19955e-12
-8.33884e-11
-1.26098e-11
-7.61885e-11
6.28017e-11
1.37746e-10
1.20212e-11
-4.31422e-11
)
;

boundaryField
{
    inlet
    {
        type            calculated;
        value           nonuniform 0();
    }
    outlet
    {
        type            calculated;
        value           nonuniform List<scalar> 
16
(
-1.57151e-11
5.76175e-13
-2.31523e-12
-7.74337e-12
5.76175e-13
1.29092e-10
8.21776e-11
4.79374e-11
-2.31523e-12
8.21776e-11
6.22998e-11
3.68411e-11
-7.74337e-12
4.79374e-11
3.68411e-11
3.32119e-11
)
;
    }
    walls
    {
        type            calculated;
        value           nonuniform List<scalar> 
160
(
4.07832e-12
1.24631e-11
1.82846e-11
4.25053e-11
2.25578e-11
-9.58642e-12
1.31783e-11
8.95623e-12
-1.3944e-11
-5.18293e-11
2.4864e-11
9.5715e-11
2.34005e-10
6.82663e-10
6.95034e-10
9.03813e-11
-1.41332e-10
-2.35921e-10
-3.92482e-10
-5.19415e-10
1.71358e-11
6.23285e-11
1.42515e-10
3.81474e-10
3.77946e-10
1.00938e-10
-3.54114e-11
-1.1102e-10
-1.96928e-10
-3.21817e-10
1.31064e-11
3.98212e-11
7.75144e-11
1.38741e-10
1.50366e-10
8.219e-11
1.10694e-11
-4.48767e-11
-9.77843e-11
-1.42309e-10
8.95509e-13
3.77085e-12
6.97282e-12
2.31253e-11
2.5465e-11
2.01294e-11
3.39742e-11
1.82623e-11
2.09249e-11
-2.33891e-11
4.13102e-12
2.39219e-11
6.69705e-11
2.56224e-10
2.37477e-10
2.01e-11
-2.3712e-11
-4.73696e-11
-5.80231e-11
-1.78953e-10
2.58264e-12
1.69924e-11
4.80263e-11
1.82511e-10
1.76929e-10
3.26873e-11
1.80582e-12
-1.88163e-11
2.14245e-11
-1.37719e-10
-1.04864e-12
8.67917e-13
5.46403e-12
2.12693e-11
1.76203e-11
-8.66741e-12
-8.66267e-13
2.17102e-12
6.67325e-12
-2.14999e-11
4.07832e-12
1.24631e-11
1.82846e-11
4.25053e-11
2.25578e-11
-9.58642e-12
1.31783e-11
8.95623e-12
-1.3944e-11
-5.18293e-11
2.4864e-11
9.5715e-11
2.34005e-10
6.82663e-10
6.95034e-10
9.03813e-11
-1.41332e-10
-2.35921e-10
-3.92482e-10
-5.19415e-10
1.71358e-11
6.23285e-11
1.42515e-10
3.81474e-10
3.77946e-10
1.00938e-10
-3.54114e-11
-1.1102e-10
-1.96928e-10
-3.21817e-10
1.31064e-11
3.98212e-11
7.75144e-11
1.38741e-10
1.50366e-10
8.219e-11
1.10694e-11
-4.48767e-11
-9.77843e-11
-1.42309e-10
8.95509e-13
3.77085e-12
6.97282e-12
2.31253e-11
2.5465e-11
2.01294e-11
3.39742e-11
1.82623e-11
2.09249e-11
-2.33891e-11
4.13102e-12
2.39219e-11
6.69705e-11
2.56224e-10
2.37477e-10
2.01e-11
-2.3712e-11
-4.73696e-11
-5.80231e-11
-1.78953e-10
2.58264e-12
1.69924e-11
4.80263e-11
1.82511e-10
1.76929e-10
3.26873e-11
1.80582e-12
-1.88163e-11
2.14245e-11
-1.37719e-10
-1.04864e-12
8.67917e-13
5.46403e-12
2.12693e-11
1.76203e-11
-8.66741e-12
-8.66267e-13
2.17102e-12
6.67325e-12
-2.14999e-11
)
;
    }
    procBoundary0to1
    {
        type            processor;
        value           nonuniform List<scalar> 
16
(
3.2857e-11
-9.92773e-11
-4.54256e-11
2.91856e-11
-9.92773e-11
-1.31696e-09
-8.94362e-10
-1.00846e-10
-4.54256e-11
-8.94362e-10
-8.67304e-10
-8.97281e-11
2.91856e-11
-1.00846e-10
-8.97281e-11
1.9517e-11
)
;
    }
}


// ************************************************************************* //
