/*--------------------------------*- C++ -*----------------------------------*\
| =========                 |                                                 |
| \\      /  F ield         | OpenFOAM: The Open Source CFD Toolbox           |
|  \\    /   O peration     | Version:  5.x                                   |
|   \\  /    A nd           | Web:      www.OpenFOAM.org                      |
|    \\/     M anipulation  |                                                 |
\*---------------------------------------------------------------------------*/
FoamFile
{
    version     2.0;
    format      ascii;
    class       volScalarField;
    location    "0.07";
    object      p;
}
// * * * * * * * * * * * * * * * * * * * * * * * * * * * * * * * * * * * * * //

dimensions      [0 2 -2 0 0 0 0];

internalField   nonuniform List<scalar> 
160
(
4.02831e-08
5.46714e-08
5.91994e-08
6.56483e-08
9.36213e-08
1.47096e-07
1.57821e-07
1.63893e-07
1.31341e-07
2.35441e-07
2.50173e-07
2.41363e-07
9.38121e-08
2.93004e-07
3.09831e-07
2.59929e-07
1.08309e-07
4.85307e-07
4.33807e-07
1.8254e-07
-7.30116e-07
-3.10188e-07
-2.50061e-07
-4.34457e-07
-1.58891e-06
-1.46656e-06
-1.02893e-06
-1.1475e-06
-1.77555e-06
-2.6713e-06
-1.80927e-06
-1.31868e-06
-2.01869e-07
1.00025e-07
1.15204e-06
-9.0668e-08
1.38154e-07
7.34747e-07
5.88272e-07
3.53433e-07
5.46714e-08
1.06052e-07
1.01255e-07
1.09937e-07
1.47096e-07
3.69205e-07
3.32771e-07
3.26289e-07
2.35441e-07
7.94719e-07
6.55743e-07
5.85343e-07
2.93004e-07
1.66578e-06
1.20337e-06
9.12432e-07
4.85307e-07
3.99901e-06
2.56057e-06
1.3167e-06
-3.10188e-07
6.32248e-06
3.53855e-06
1.26978e-06
-1.46656e-06
1.97442e-05
9.13736e-06
1.74251e-06
-2.6713e-06
-1.65366e-06
-2.70802e-06
-8.9693e-07
1.00025e-07
-2.26541e-05
-1.14008e-05
-3.30929e-06
7.34747e-07
-5.38188e-06
-3.01006e-06
-1.7663e-06
5.91994e-08
1.01255e-07
1.01896e-07
1.14541e-07
1.57821e-07
3.32771e-07
3.25266e-07
3.2714e-07
2.50173e-07
6.55743e-07
6.06749e-07
5.5523e-07
3.09831e-07
1.20337e-06
1.031e-06
8.03389e-07
4.33807e-07
2.56057e-06
2.00541e-06
1.0468e-06
-2.50061e-07
3.53855e-06
2.71069e-06
7.80217e-07
-1.02893e-06
9.13736e-06
5.44376e-06
3.62397e-07
-1.80927e-06
-2.70802e-06
-2.82028e-06
-1.27288e-06
1.15204e-06
-1.14008e-05
-6.51378e-06
-1.86336e-06
5.88272e-07
-3.01006e-06
-1.92889e-06
-9.15077e-07
6.56483e-08
1.09937e-07
1.14541e-07
1.33649e-07
1.63893e-07
3.26289e-07
3.2714e-07
3.64256e-07
2.41363e-07
5.85343e-07
5.5523e-07
6.04194e-07
2.59929e-07
9.12432e-07
8.03389e-07
7.99904e-07
1.8254e-07
1.3167e-06
1.0468e-06
8.69244e-07
-4.34457e-07
1.26978e-06
7.80217e-07
5.58548e-07
-1.1475e-06
1.74251e-06
3.62397e-07
4.08708e-08
-1.31868e-06
-8.9693e-07
-1.27288e-06
-8.40925e-07
-9.0668e-08
-3.30929e-06
-1.86336e-06
-1.12363e-06
3.53433e-07
-1.7663e-06
-9.15077e-07
-1.01971e-06
)
;

boundaryField
{
    inlet
    {
        type            zeroGradient;
    }
    outlet
    {
        type            totalPressure;
        rho             rho;
        psi             none;
        gamma           1;
        p0              uniform 0;
        value           uniform 0;
    }
    walls
    {
        type            zeroGradient;
    }
    procBoundary0to1
    {
        type            processor;
        value           nonuniform List<scalar> 
16
(
-1.81757e-08
7.65464e-09
-4.67543e-08
1.64353e-07
7.65464e-09
-2.75237e-06
-1.57167e-06
-1.20081e-06
-4.67543e-08
-1.57167e-06
-1.47241e-06
-8.73774e-07
1.64353e-07
-1.20081e-06
-8.73774e-07
-9.13868e-07
)
;
    }
}


// ************************************************************************* //
