/*--------------------------------*- C++ -*----------------------------------*\
| =========                 |                                                 |
| \\      /  F ield         | OpenFOAM: The Open Source CFD Toolbox           |
|  \\    /   O peration     | Version:  5.x                                   |
|   \\  /    A nd           | Web:      www.OpenFOAM.org                      |
|    \\/     M anipulation  |                                                 |
\*---------------------------------------------------------------------------*/
FoamFile
{
    version     2.0;
    format      ascii;
    class       surfaceScalarField;
    location    "0.07";
    object      phi;
}
// * * * * * * * * * * * * * * * * * * * * * * * * * * * * * * * * * * * * * //

dimensions      [0 3 -1 0 0 0 0];

internalField   nonuniform List<scalar> 
384
(
-7.35456e-13
-4.92539e-12
-7.35456e-13
-3.30761e-13
-7.69515e-12
-1.6711e-12
1.68947e-14
-8.04832e-12
-1.51797e-12
-7.27809e-12
-1.45155e-12
-2.27485e-12
-3.77011e-12
-2.27485e-12
-9.02063e-13
-7.79196e-12
-6.18141e-12
1.77594e-13
-7.82728e-12
-5.39929e-12
-6.15396e-12
-4.79097e-12
-4.58708e-12
-1.738e-12
-4.58708e-12
-1.44568e-12
-8.32635e-12
-1.52031e-11
1.09763e-12
-7.78967e-12
-1.23708e-11
-3.83172e-12
-1.01589e-11
-7.94683e-12
1.31147e-12
-7.94683e-12
-1.87951e-12
-9.51945e-12
-3.5684e-11
2.72738e-12
-7.72275e-12
-2.66214e-11
1.92221e-13
-1.89651e-11
-1.44452e-11
5.97101e-12
-1.44452e-11
-1.39957e-12
-1.29423e-11
-8.49287e-11
9.31497e-12
-9.57922e-12
-5.87362e-11
7.28532e-12
-3.40684e-11
-1.70812e-11
7.50458e-12
-1.70812e-11
-2.90039e-12
-1.77756e-11
-1.85368e-10
1.02653e-11
-1.11273e-11
-1.19943e-10
1.37919e-11
-5.60195e-11
-4.51391e-11
1.19511e-11
-4.51391e-11
3.87376e-12
-3.44347e-11
-5.93302e-10
4.64402e-11
-1.12907e-11
-3.56238e-10
3.13301e-11
-9.73953e-11
-1.82803e-11
-7.31081e-13
-1.82803e-11
8.32247e-13
-1.21141e-10
-4.95508e-10
2.51125e-11
-4.97922e-11
-2.89769e-10
2.61306e-11
-7.86882e-11
-2.58627e-13
1.65909e-11
-2.58627e-13
1.61366e-12
-1.31217e-10
1.93162e-10
3.18221e-11
-3.91341e-11
-1.55092e-11
1.94864e-11
1.86642e-11
3.07275e-11
3.07275e-11
8.5953e-12
5.60513e-10
-1.4555e-11
3.33684e-10
1.02439e-10
-1.6711e-12
-7.69515e-12
-3.30761e-13
-4.56304e-13
-1.67156e-11
-4.56304e-13
1.27376e-13
-1.5269e-11
-5.48152e-13
-1.33508e-11
-6.66683e-13
-6.18141e-12
-7.79196e-12
-9.02063e-13
-1.21886e-12
-2.66407e-11
-1.21886e-12
1.0349e-12
-2.13515e-11
-1.57057e-12
-1.60442e-11
-1.8566e-12
-1.52031e-11
-8.32635e-12
-1.44568e-12
-1.69136e-12
-5.36642e-11
-1.69136e-12
4.44363e-12
-3.7376e-11
-2.48126e-12
-2.15434e-11
-3.12437e-12
-3.5684e-11
-9.51945e-12
-1.87951e-12
-1.14773e-12
-1.22737e-10
-1.14773e-12
1.43603e-11
-7.65423e-11
-2.96307e-12
-3.06111e-11
-4.11336e-12
-8.49287e-11
-1.29423e-11
-1.39957e-12
7.37035e-12
-3.07335e-10
7.37035e-12
4.68657e-11
-1.73559e-10
-1.21461e-12
-4.06404e-11
-4.36327e-12
-1.85368e-10
-1.77756e-11
-2.90039e-12
2.74243e-11
-7.3292e-10
2.74243e-11
1.10966e-10
-3.80905e-10
3.86068e-12
-4.68934e-11
-3.17406e-12
-5.93302e-10
-3.44347e-11
3.87376e-12
1.72829e-10
-2.26518e-09
1.72829e-10
4.48483e-10
-1.06739e-09
5.45951e-11
3.98979e-11
7.28861e-12
-4.95508e-10
-1.21141e-10
8.32247e-13
1.33576e-10
-3.52335e-09
1.33576e-10
3.96372e-10
-1.65645e-09
3.64936e-11
1.11444e-10
8.96007e-12
1.93162e-10
-1.31217e-10
1.61366e-12
-1.32452e-10
-2.87212e-09
-1.32452e-10
-9.68503e-11
-1.62331e-09
-8.42562e-11
2.41442e-11
-1.01076e-11
5.60513e-10
8.5953e-12
-1.37162e-10
-1.37162e-10
-4.26084e-10
-4.08429e-11
-8.80581e-12
-1.51797e-12
-8.04832e-12
1.68947e-14
-5.48152e-13
-1.5269e-11
1.27376e-13
1.92723e-14
-1.50696e-11
1.92723e-14
-1.33705e-11
-3.11058e-13
-5.39929e-12
-7.82728e-12
1.77594e-13
-1.57057e-12
-2.13515e-11
1.0349e-12
5.98752e-13
-1.94083e-11
5.98752e-13
-1.46865e-11
-5.68549e-13
-1.23708e-11
-7.78967e-12
1.09763e-12
-2.48126e-12
-3.7376e-11
4.44363e-12
3.1444e-12
-3.06596e-11
3.1444e-12
-1.70678e-11
-5.65583e-14
-2.66214e-11
-7.72275e-12
2.72738e-12
-2.96307e-12
-7.65423e-11
1.43603e-11
1.04204e-11
-5.74265e-11
1.04204e-11
-1.97695e-11
1.71808e-12
-5.87362e-11
-9.57922e-12
9.31497e-12
-1.21461e-12
-1.73559e-10
4.68657e-11
3.41627e-11
-1.28181e-10
3.41627e-11
-2.04511e-11
7.53004e-12
-1.19943e-10
-1.11273e-11
1.02653e-11
3.86068e-12
-3.80905e-10
1.10966e-10
7.77834e-11
-2.76027e-10
7.77834e-11
-1.47111e-11
1.64299e-11
-3.56238e-10
-1.12907e-11
4.64402e-11
5.45951e-11
-1.06739e-09
4.48483e-10
2.99809e-10
-7.66455e-10
2.99809e-10
3.75989e-11
4.84581e-11
-2.89769e-10
-4.97922e-11
2.51125e-11
3.64936e-11
-1.65645e-09
3.96372e-10
2.51854e-10
-1.19718e-09
2.51854e-10
6.70666e-11
3.99041e-11
-1.55092e-11
-3.91341e-11
3.18221e-11
-8.42562e-11
-1.62331e-09
-9.68503e-11
5.79658e-11
-1.48162e-09
5.79658e-11
-2.29284e-11
-9.27284e-12
3.33684e-10
-1.4555e-11
-4.08429e-11
-4.26084e-10
-2.57844e-10
-2.57844e-10
-5.35424e-11
-1.45155e-12
-7.27809e-12
-6.66683e-13
-1.33508e-11
-3.11058e-13
-1.33705e-11
-1.34825e-11
-4.79097e-12
-6.15396e-12
-1.8566e-12
-1.60442e-11
-5.68549e-13
-1.46865e-11
-1.40976e-11
-1.01589e-11
-3.83172e-12
-3.12437e-12
-2.15434e-11
-5.65583e-14
-1.70678e-11
-1.41269e-11
-1.89651e-11
1.92221e-13
-4.11336e-12
-3.06111e-11
1.71808e-12
-1.97695e-11
-1.26015e-11
-3.40684e-11
7.28532e-12
-4.36327e-12
-4.06404e-11
7.53004e-12
-2.04511e-11
-6.13365e-12
-5.60195e-11
1.37919e-11
-3.17406e-12
-4.68934e-11
1.64299e-11
-1.47111e-11
8.82312e-12
-9.73953e-11
3.13301e-11
7.28861e-12
3.98979e-11
4.84581e-11
3.75989e-11
4.92383e-11
-7.86882e-11
2.61306e-11
8.96007e-12
1.11444e-10
3.99041e-11
6.70666e-11
7.98454e-11
1.86642e-11
1.94864e-11
-1.01076e-11
2.41442e-11
-9.27284e-12
-2.29284e-11
6.53361e-11
1.02439e-10
-8.80581e-12
-5.35424e-11
)
;

boundaryField
{
    inlet
    {
        type            calculated;
        value           nonuniform 0();
    }
    outlet
    {
        type            calculated;
        value           nonuniform List<scalar> 
16
(
5.30237e-12
7.64616e-12
8.06592e-12
7.58965e-12
7.64616e-12
1.4286e-11
1.37155e-11
1.25284e-11
8.06592e-12
1.37155e-11
1.39348e-11
1.29251e-11
7.58965e-12
1.25284e-11
1.29251e-11
1.31392e-11
)
;
    }
    walls
    {
        type            calculated;
        value           nonuniform List<scalar> 
160
(
5.46968e-13
1.69721e-12
3.57102e-12
6.4221e-12
1.21155e-11
1.63145e-11
4.29158e-11
2.46214e-11
-8.40236e-12
-3.85657e-11
1.31539e-12
4.90544e-12
1.25961e-11
3.08098e-11
7.53058e-11
1.76021e-10
5.60948e-10
5.63102e-10
-1.84958e-10
-6.11698e-10
1.15271e-12
4.09859e-12
9.78989e-12
2.19476e-11
4.98781e-11
1.08326e-10
3.13835e-10
3.0399e-10
-2.53573e-11
-3.34718e-10
1.06103e-12
3.53561e-12
7.82262e-12
1.53489e-11
2.90985e-11
5.10678e-11
9.01954e-11
8.54395e-11
-1.22122e-11
-1.00534e-10
9.58632e-14
3.08837e-13
1.11173e-12
2.31963e-12
7.19185e-12
8.71037e-12
3.6102e-11
2.35607e-11
3.20143e-11
-1.28819e-11
1.64877e-13
7.93974e-13
2.90822e-12
8.5764e-12
2.71897e-11
6.43737e-11
2.57008e-10
2.37178e-10
1.9221e-11
-2.41225e-10
1.09025e-13
6.26792e-13
2.45785e-12
7.2906e-12
2.2951e-11
5.24395e-11
2.0633e-10
1.91443e-10
1.47126e-10
-1.75989e-10
-1.39414e-13
-2.60979e-13
-4.19308e-14
9.55405e-13
4.2961e-12
8.9515e-12
2.82505e-11
2.46005e-11
-2.01814e-12
-3.23274e-11
5.46968e-13
1.69721e-12
3.57102e-12
6.4221e-12
1.21155e-11
1.63145e-11
4.29158e-11
2.46214e-11
-8.40236e-12
-3.85657e-11
1.31539e-12
4.90544e-12
1.25961e-11
3.08098e-11
7.53058e-11
1.76021e-10
5.60948e-10
5.63102e-10
-1.84958e-10
-6.11698e-10
1.15271e-12
4.09859e-12
9.78989e-12
2.19476e-11
4.98781e-11
1.08326e-10
3.13835e-10
3.0399e-10
-2.53573e-11
-3.34718e-10
1.06103e-12
3.53561e-12
7.82262e-12
1.53489e-11
2.90985e-11
5.10678e-11
9.01954e-11
8.54395e-11
-1.22122e-11
-1.00534e-10
9.58632e-14
3.08837e-13
1.11173e-12
2.31963e-12
7.19185e-12
8.71037e-12
3.6102e-11
2.35607e-11
3.20143e-11
-1.28819e-11
1.64877e-13
7.93974e-13
2.90822e-12
8.5764e-12
2.71897e-11
6.43737e-11
2.57008e-10
2.37178e-10
1.9221e-11
-2.41225e-10
1.09025e-13
6.26792e-13
2.45785e-12
7.2906e-12
2.2951e-11
5.24395e-11
2.0633e-10
1.91443e-10
1.47126e-10
-1.75989e-10
-1.39414e-13
-2.60979e-13
-4.19308e-14
9.55405e-13
4.2961e-12
8.9515e-12
2.82505e-11
2.46005e-11
-2.01814e-12
-3.23274e-11
)
;
    }
    procBoundary0to1
    {
        type            processor;
        value           nonuniform List<scalar> 
16
(
3.22673e-11
-5.78993e-11
-1.49489e-11
1.59089e-11
-5.78993e-11
-1.47677e-09
-9.59856e-10
-4.9471e-11
-1.49489e-11
-9.59856e-10
-1.04762e-09
-6.00462e-11
1.59089e-11
-4.9471e-11
-6.00462e-11
2.29063e-11
)
;
    }
}


// ************************************************************************* //
