/*--------------------------------*- C++ -*----------------------------------*\
| =========                 |                                                 |
| \\      /  F ield         | OpenFOAM: The Open Source CFD Toolbox           |
|  \\    /   O peration     | Version:  5.x                                   |
|   \\  /    A nd           | Web:      www.OpenFOAM.org                      |
|    \\/     M anipulation  |                                                 |
\*---------------------------------------------------------------------------*/
FoamFile
{
    version     2.0;
    format      ascii;
    class       volVectorField;
    location    "0.07";
    object      U;
}
// * * * * * * * * * * * * * * * * * * * * * * * * * * * * * * * * * * * * * //

dimensions      [0 1 -1 0 0 0 0];

internalField   nonuniform List<vector> 
160
(
(-9.03606e-08 -8.42993e-07 -9.03606e-08)
(-1.13459e-07 -1.22003e-06 -2.20641e-07)
(-5.72182e-09 -1.28663e-06 -1.92765e-07)
(1.40626e-08 -1.20781e-06 -1.78524e-07)
(-2.82113e-07 -7.4131e-07 -2.82113e-07)
(-3.36156e-07 -1.25519e-06 -8.28799e-07)
(7.53705e-09 -1.29173e-06 -6.90377e-07)
(4.82149e-08 -1.1052e-06 -5.97766e-07)
(-5.91921e-07 -4.22374e-07 -5.91921e-07)
(-6.62415e-07 -1.21314e-06 -2.126e-06)
(1.35132e-07 -1.17179e-06 -1.6466e-06)
(1.79616e-07 -8.19679e-07 -1.31954e-06)
(-1.06687e-06 -2.47354e-07 -1.06687e-06)
(-1.10253e-06 -1.67735e-06 -5.20108e-06)
(4.05857e-07 -1.49841e-06 -3.68834e-06)
(3.80995e-07 -4.45962e-07 -2.58467e-06)
(-2.01292e-06 9.2011e-07 -2.01292e-06)
(-1.93581e-06 -7.00573e-07 -1.27439e-05)
(1.38046e-06 -4.71161e-07 -8.40114e-06)
(1.20031e-06 5.95082e-07 -4.87972e-06)
(-2.69323e-06 4.57432e-07 -2.69323e-06)
(-2.56517e-06 -4.51762e-06 -2.94751e-05)
(1.76971e-06 -3.4498e-06 -1.80814e-05)
(1.43007e-06 1.25684e-06 -8.50739e-06)
(-6.89069e-06 2.15815e-06 -6.89069e-06)
(-5.86343e-06 1.50905e-07 -9.39465e-05)
(7.20294e-06 8.6736e-07 -5.22242e-05)
(5.79973e-06 3.52326e-06 -1.50019e-05)
(-3.76257e-06 6.5168e-07 -3.76257e-06)
(-3.5476e-06 -1.42941e-05 -9.02976e-05)
(4.3456e-06 -5.82552e-06 -4.84607e-05)
(3.67285e-06 4.96144e-06 -1.37536e-05)
(1.28477e-06 -2.88123e-07 1.28477e-06)
(-1.51611e-06 -2.72125e-05 3.40924e-05)
(2.83385e-06 -9.60815e-06 6.53962e-06)
(5.36767e-06 3.61422e-06 2.58952e-06)
(6.0527e-06 4.54555e-06 6.0527e-06)
(5.25704e-06 -1.97089e-05 9.90815e-05)
(-3.17215e-06 -6.02626e-06 5.42666e-05)
(-2.01474e-06 2.1537e-06 1.65041e-05)
(-2.20641e-07 -1.22003e-06 -1.13459e-07)
(-2.17223e-07 -2.29589e-06 -2.17223e-07)
(2.9068e-08 -2.20023e-06 -2.12727e-07)
(2.46603e-08 -2.00384e-06 -2.056e-07)
(-8.28799e-07 -1.25519e-06 -3.36156e-07)
(-7.49139e-07 -3.22939e-06 -7.49139e-07)
(2.17165e-07 -2.80996e-06 -7.18222e-07)
(1.28318e-07 -2.28648e-06 -6.45404e-07)
(-2.126e-06 -1.21314e-06 -6.62415e-07)
(-1.72326e-06 -5.70978e-06 -1.72326e-06)
(9.02569e-07 -4.27132e-06 -1.56313e-06)
(4.7924e-07 -2.84738e-06 -1.30053e-06)
(-5.20108e-06 -1.67735e-06 -1.10253e-06)
(-3.73874e-06 -1.25862e-05 -3.73874e-06)
(2.97395e-06 -8.46718e-06 -3.18108e-06)
(1.42977e-06 -4.07089e-06 -2.27691e-06)
(-1.27439e-05 -7.00573e-07 -1.93581e-06)
(-8.33485e-06 -2.56699e-05 -8.33485e-06)
(9.1978e-06 -1.53163e-05 -6.64232e-06)
(4.59638e-06 -5.40332e-06 -3.85967e-06)
(-2.94751e-05 -4.51762e-06 -2.56517e-06)
(-1.79404e-05 -8.83325e-05 -1.79404e-05)
(2.28119e-05 -4.88883e-05 -1.35089e-05)
(1.07485e-05 -9.02516e-06 -5.94116e-06)
(-9.39465e-05 1.50905e-07 -5.86343e-06)
(-5.1153e-05 -9.91734e-05 -5.1153e-05)
(8.69943e-05 -4.87976e-05 -3.82284e-05)
(4.25838e-05 -2.21861e-06 -9.57829e-06)
(-9.02976e-05 -1.42941e-05 -3.5476e-06)
(-4.80914e-05 -0.000641982 -4.80914e-05)
(8.24717e-05 -0.000316865 -3.54964e-05)
(3.75903e-05 1.18141e-05 -8.07022e-06)
(3.40924e-05 -2.72125e-05 -1.51611e-06)
(3.25599e-06 -0.00046947 3.25599e-06)
(-2.82401e-05 -0.000238323 -1.74393e-05)
(1.4751e-06 1.61984e-05 6.69404e-07)
(9.90815e-05 -1.97089e-05 5.25704e-06)
(5.33621e-05 -0.000341965 5.33621e-05)
(-8.72556e-05 -0.000231428 3.74716e-05)
(-3.88419e-05 -7.59135e-06 1.03634e-05)
(-1.92765e-07 -1.28663e-06 -5.72182e-09)
(-2.12727e-07 -2.20023e-06 2.9068e-08)
(-1.96509e-09 -2.23345e-06 -1.96509e-09)
(1.49391e-08 -2.06475e-06 -5.0821e-08)
(-6.90377e-07 -1.29173e-06 7.53705e-09)
(-7.18222e-07 -2.80996e-06 2.17165e-07)
(8.7755e-08 -2.68871e-06 8.7755e-08)
(9.9916e-08 -2.22414e-06 -8.61765e-08)
(-1.6466e-06 -1.17179e-06 1.35132e-07)
(-1.56313e-06 -4.27132e-06 9.02569e-07)
(5.17442e-07 -3.68902e-06 5.17442e-07)
(4.03446e-07 -2.45979e-06 2.35879e-08)
(-3.68834e-06 -1.49841e-06 4.05857e-07)
(-3.18108e-06 -8.46718e-06 2.97395e-06)
(1.81112e-06 -6.7105e-06 1.81112e-06)
(1.21151e-06 -3.01453e-06 5.11118e-07)
(-8.40114e-06 -4.71161e-07 1.38046e-06)
(-6.64232e-06 -1.53163e-05 9.1978e-06)
(5.80233e-06 -1.10458e-05 5.80233e-06)
(3.86175e-06 -3.04744e-06 1.83943e-06)
(-1.80814e-05 -3.4498e-06 1.76971e-06)
(-1.35089e-05 -4.88883e-05 2.28119e-05)
(1.38051e-05 -3.60468e-05 1.38051e-05)
(8.77212e-06 -4.45942e-06 4.23393e-06)
(-5.22242e-05 8.6736e-07 7.20294e-06)
(-3.82284e-05 -4.87976e-05 8.69943e-05)
(4.92553e-05 -3.55938e-05 4.92553e-05)
(3.40177e-05 1.1912e-06 1.03607e-05)
(-4.84607e-05 -5.82552e-06 4.3456e-06)
(-3.54964e-05 -0.000316865 8.24717e-05)
(4.51877e-05 -0.000228176 4.51877e-05)
(3.03248e-05 8.16897e-06 9.95178e-06)
(6.53962e-06 -9.60815e-06 2.83385e-06)
(-1.74393e-05 -0.000238323 -2.82401e-05)
(1.2004e-07 -0.000170002 1.2004e-07)
(2.26204e-05 8.94257e-06 -2.08963e-06)
(5.42666e-05 -6.02626e-06 -3.17215e-06)
(3.74716e-05 -0.000231428 -8.72556e-05)
(-4.69043e-05 -0.000264608 -4.69043e-05)
(-2.83588e-05 -1.58064e-05 -1.16655e-05)
(-1.78524e-07 -1.20781e-06 1.40626e-08)
(-2.056e-07 -2.00384e-06 2.46603e-08)
(-5.0821e-08 -2.06475e-06 1.49391e-08)
(-2.60855e-08 -2.09501e-06 -2.60855e-08)
(-5.97766e-07 -1.1052e-06 4.82149e-08)
(-6.45404e-07 -2.28648e-06 1.28318e-07)
(-8.61765e-08 -2.22414e-06 9.9916e-08)
(-4.90861e-08 -2.16433e-06 -4.90861e-08)
(-1.31954e-06 -8.19679e-07 1.79616e-07)
(-1.30053e-06 -2.84738e-06 4.7924e-07)
(2.35879e-08 -2.45979e-06 4.03446e-07)
(-1.63778e-08 -2.20018e-06 -1.63778e-08)
(-2.58467e-06 -4.45962e-07 3.80995e-07)
(-2.27691e-06 -4.07089e-06 1.42977e-06)
(5.11118e-07 -3.01453e-06 1.21151e-06)
(1.53553e-07 -2.19334e-06 1.53553e-07)
(-4.87972e-06 5.95082e-07 1.20031e-06)
(-3.85967e-06 -5.40332e-06 4.59638e-06)
(1.83943e-06 -3.04744e-06 3.86175e-06)
(7.22438e-07 -1.64712e-06 7.22438e-07)
(-8.50739e-06 1.25684e-06 1.43007e-06)
(-5.94116e-06 -9.02516e-06 1.07485e-05)
(4.23393e-06 -4.45942e-06 8.77212e-06)
(1.47601e-06 -4.8231e-07 1.47601e-06)
(-1.50019e-05 3.52326e-06 5.79973e-06)
(-9.57829e-06 -2.21861e-06 4.25838e-05)
(1.03607e-05 1.1912e-06 3.40177e-05)
(4.58356e-06 3.81796e-06 4.58356e-06)
(-1.37536e-05 4.96144e-06 3.67285e-06)
(-8.07022e-06 1.18141e-05 3.75903e-05)
(9.95178e-06 8.16897e-06 3.03248e-05)
(3.85078e-06 1.02229e-05 3.85078e-06)
(2.58952e-06 3.61422e-06 5.36767e-06)
(6.69404e-07 1.61984e-05 1.4751e-06)
(-2.08963e-06 8.94257e-06 2.26204e-05)
(-4.68979e-07 1.29585e-05 -4.68979e-07)
(1.65041e-05 2.1537e-06 -2.01474e-06)
(1.03634e-05 -7.59135e-06 -3.88419e-05)
(-1.16655e-05 -1.58064e-05 -2.83588e-05)
(-5.15173e-06 6.23273e-06 -5.15173e-06)
)
;

boundaryField
{
    inlet
    {
        type            fixedValue;
        value           nonuniform 0();
    }
    outlet
    {
        type            zeroGradient;
    }
    walls
    {
        type            fixedValue;
        value           uniform (0 0 0);
    }
    procBoundary0to1
    {
        type            processor;
        value           nonuniform List<vector> 
16
(
(6.41939e-06 4.21261e-06 6.41939e-06)
(8.77361e-06 -2.31784e-06 6.89278e-05)
(-5.87702e-06 2.00868e-08 4.74985e-05)
(-7.68388e-06 2.07015e-06 1.38714e-05)
(6.89278e-05 -2.31784e-06 8.77361e-06)
(5.06267e-05 -0.000114827 5.06267e-05)
(-6.22798e-05 -6.61481e-05 5.46856e-05)
(-4.09011e-05 -9.98204e-06 1.05373e-05)
(4.74985e-05 2.00868e-08 -5.87702e-06)
(5.46856e-05 -6.61481e-05 -6.22798e-05)
(-4.60657e-05 -5.52231e-05 -4.60657e-05)
(-5.03349e-05 -5.81399e-06 -9.07812e-06)
(1.38714e-05 2.07015e-06 -7.68388e-06)
(1.05373e-05 -9.98204e-06 -4.09011e-05)
(-9.07812e-06 -5.81399e-06 -5.03349e-05)
(-5.16427e-06 1.16012e-06 -5.16427e-06)
)
;
    }
}


// ************************************************************************* //
