/*--------------------------------*- C++ -*----------------------------------*\
| =========                 |                                                 |
| \\      /  F ield         | OpenFOAM: The Open Source CFD Toolbox           |
|  \\    /   O peration     | Version:  5.x                                   |
|   \\  /    A nd           | Web:      www.OpenFOAM.org                      |
|    \\/     M anipulation  |                                                 |
\*---------------------------------------------------------------------------*/
FoamFile
{
    version     2.0;
    format      ascii;
    class       surfaceScalarField;
    location    "0.033";
    object      phi;
}
// * * * * * * * * * * * * * * * * * * * * * * * * * * * * * * * * * * * * * //

dimensions      [0 3 -1 0 0 0 0];

internalField   nonuniform List<scalar> 
4381
(
-2.6471e-08
-2.65353e-08
6.25652e-09
-2.17543e-08
-3.5161e-08
-2.12095e-09
-2.05381e-08
-3.68984e-08
2.15172e-09
-9.7355e-09
-3.83813e-08
-7.10558e-09
-3.88525e-08
-6.31868e-09
-3.51063e-08
-2.18174e-08
-2.13317e-09
-2.65531e-08
-2.66142e-08
-1.70839e-08
-2.27313e-08
-2.80344e-08
-1.26684e-08
-1.0757e-08
-2.94869e-08
-2.08491e-08
-2.995e-08
-1.97743e-08
-3.68413e-08
-2.06086e-08
2.14605e-09
-2.79724e-08
-2.28011e-08
-1.26645e-08
-2.33626e-08
-2.34316e-08
-9.19518e-09
-1.11739e-08
-2.4223e-08
-1.74339e-08
-2.45043e-08
-1.64349e-08
-3.8325e-08
-9.80497e-09
-7.11934e-09
-2.9425e-08
-1.08294e-08
-2.08523e-08
-2.41545e-08
-1.12436e-08
-1.74397e-08
-1.16265e-08
-1.16989e-08
-2.50318e-08
-1.19345e-08
-2.38723e-08
-3.87974e-08
-6.32997e-09
-2.98853e-08
-1.97752e-08
-2.44409e-08
-1.64387e-08
-1.1862e-08
-2.38686e-08
-2.2724e-08
-3.71405e-08
-3.71755e-08
1.4441e-08
-3.43687e-08
-2.79419e-08
-6.87328e-10
-2.48144e-08
-2.65524e-08
-3.20951e-09
-1.50585e-08
-2.38946e-08
-1.27162e-08
-2.33089e-08
-1.36139e-08
-2.7907e-08
-3.44187e-08
-6.95605e-10
-2.7976e-08
-2.80252e-08
-1.69132e-08
-2.16601e-08
-2.65374e-08
-1.89797e-08
-1.31062e-08
-2.43895e-08
-2.8887e-08
-2.37552e-08
-2.98008e-08
-2.65164e-08
-2.48713e-08
-3.21965e-09
-2.64878e-08
-2.17169e-08
-1.8982e-08
-2.06664e-08
-2.07237e-08
-2.08106e-08
-1.24277e-08
-1.93818e-08
-3.06591e-08
-1.88918e-08
-3.15676e-08
-2.3859e-08
-1.51223e-08
-1.27342e-08
-2.43403e-08
-1.31698e-08
-2.88969e-08
-1.93246e-08
-1.2491e-08
-3.06668e-08
-1.15002e-08
-1.15636e-08
-4.06517e-08
-1.11514e-08
-4.15627e-08
-2.32732e-08
-1.36343e-08
-2.37062e-08
-2.98133e-08
-1.88352e-08
-3.15785e-08
-1.10883e-08
-4.15654e-08
-4.2492e-08
-4.02065e-08
-4.02622e-08
2.05698e-08
-3.35792e-08
-4.23633e-08
-3.65135e-09
-2.71571e-08
-4.29998e-08
-5.58958e-09
-1.36333e-08
-4.3951e-08
-2.19493e-08
-4.4214e-08
-2.31642e-08
-4.23077e-08
-3.36434e-08
-3.66419e-09
-3.5288e-08
-3.53523e-08
-3.0936e-08
-2.8253e-08
-3.59386e-08
-3.3068e-08
-1.42747e-08
-3.67944e-08
-5.00143e-08
-3.7068e-08
-5.12713e-08
-4.29441e-08
-2.72287e-08
-5.60529e-09
-3.58742e-08
-2.83251e-08
-3.30712e-08
-2.86364e-08
-2.87084e-08
-3.52711e-08
-1.45116e-08
-2.93156e-08
-5.22555e-08
-2.95371e-08
-5.35394e-08
-4.38958e-08
-1.37074e-08
-2.19775e-08
-3.67302e-08
-1.43504e-08
-5.00296e-08
-2.92436e-08
-1.4587e-08
-5.22675e-08
-1.48755e-08
-1.49518e-08
-6.93769e-08
-1.5111e-08
-7.06504e-08
-4.41603e-08
-2.31964e-08
-3.70033e-08
-5.12906e-08
-2.94667e-08
-5.35555e-08
-1.50339e-08
-7.0654e-08
-7.19441e-08
-5.44651e-08
-5.45173e-08
3.18107e-08
-4.73994e-08
-5.17143e-08
-5.29704e-09
-3.7473e-08
-5.12445e-08
-1.01231e-08
-2.08656e-08
-4.99853e-08
-3.32498e-08
-4.96488e-08
-3.57611e-08
-5.16622e-08
-4.7463e-08
-5.31129e-09
-4.52772e-08
-4.53406e-08
-4.3698e-08
-3.60323e-08
-4.4917e-08
-4.86441e-08
-1.97731e-08
-4.38811e-08
-7.23825e-08
-4.35616e-08
-7.49739e-08
-5.11923e-08
-3.75449e-08
-1.01433e-08
-4.48534e-08
-3.61042e-08
-4.86502e-08
-3.56945e-08
-3.57666e-08
-5.35845e-08
-1.9495e-08
-3.49691e-08
-7.73724e-08
-3.4693e-08
-7.9972e-08
-4.99331e-08
-2.09437e-08
-3.32846e-08
-4.38176e-08
-1.98511e-08
-7.24031e-08
-3.4897e-08
-1.95729e-08
-7.73872e-08
-1.88375e-08
-1.89151e-08
-1.01497e-07
-1.86691e-08
-1.04129e-07
-4.95965e-08
-3.5803e-08
-4.34981e-08
-7.50014e-08
-3.46208e-08
-7.99941e-08
-1.85915e-08
-1.04135e-07
-1.06779e-07
-7.19672e-08
-7.20341e-08
4.59471e-08
-6.12358e-08
-7.32019e-08
-8.83503e-09
-4.85571e-08
-7.34483e-08
-1.55317e-08
-2.49143e-08
-7.41412e-08
-4.95236e-08
-7.42965e-08
-5.31202e-08
-7.31349e-08
-6.1314e-08
-8.85396e-09
-6.22451e-08
-6.23233e-08
-6.54786e-08
-4.93392e-08
-6.25638e-08
-7.24467e-08
-2.53574e-08
-6.31734e-08
-1.07345e-07
-6.33294e-08
-1.11075e-07
-7.33815e-08
-4.86442e-08
-1.55586e-08
-6.24853e-08
-4.9427e-08
-7.24549e-08
-4.95379e-08
-4.96258e-08
-7.9482e-08
-2.54817e-08
-5.01071e-08
-1.14508e-07
-5.02432e-08
-1.18266e-07
-7.40752e-08
-2.50038e-08
-4.95709e-08
-6.30957e-08
-2.54489e-08
-1.07374e-07
-5.00198e-08
-2.55738e-08
-1.14528e-07
-2.57547e-08
-2.58464e-08
-1.50037e-07
-2.59339e-08
-1.53854e-07
-7.42323e-08
-5.31774e-08
-6.32511e-08
-1.11114e-07
-5.01545e-08
-1.18296e-07
-2.58413e-08
-1.53864e-07
-1.577e-07
-9.93215e-08
-9.93948e-08
6.53984e-08
-8.52748e-08
-9.95323e-08
-1.3194e-08
-6.77836e-08
-9.94918e-08
-2.33403e-08
-3.59293e-08
-9.95695e-08
-7.17123e-08
-9.94623e-08
-7.70977e-08
-9.94591e-08
-8.53618e-08
-1.32164e-08
-8.53979e-08
-8.54849e-08
-9.36031e-08
-6.78348e-08
-8.54391e-08
-1.04078e-07
-3.57333e-08
-8.54775e-08
-1.53553e-07
-8.53672e-08
-1.59121e-07
-9.94185e-08
-6.78818e-08
-2.33732e-08
-8.53522e-08
-6.7933e-08
-1.04088e-07
-6.77804e-08
-6.78786e-08
-1.14628e-07
-3.5643e-08
-6.78496e-08
-1.64286e-07
-6.77373e-08
-1.69886e-07
-9.94963e-08
-3.60351e-08
-7.17692e-08
-8.53906e-08
-3.58389e-08
-1.53588e-07
-6.77514e-08
-3.57485e-08
-1.6431e-07
-3.54546e-08
-3.55597e-08
-2.14635e-07
-3.54295e-08
-2.20333e-07
-9.93889e-08
-7.71683e-08
-8.52802e-08
-1.59169e-07
-6.76388e-08
-1.69924e-07
-3.53241e-08
-2.20346e-07
-2.26063e-07
-1.39136e-07
-1.39224e-07
9.24195e-08
-1.18904e-07
-1.4118e-07
-1.97129e-08
-9.41554e-08
-1.41573e-07
-3.42929e-08
-4.86042e-08
-1.42782e-07
-1.03339e-07
-1.42994e-07
-1.11123e-07
-1.41092e-07
-1.19008e-07
-1.97404e-08
-1.20593e-07
-1.20697e-07
-1.34598e-07
-9.54837e-08
-1.2104e-07
-1.49732e-07
-4.93042e-08
-1.22077e-07
-2.20448e-07
-1.22259e-07
-2.28532e-07
-1.41484e-07
-9.42709e-08
-3.43347e-08
-1.20936e-07
-9.55994e-08
-1.49746e-07
-9.57593e-08
-9.58752e-08
-1.64979e-07
-4.94483e-08
-9.66855e-08
-2.35996e-07
-9.68269e-08
-2.44125e-07
-1.42693e-07
-4.87254e-08
-1.0341e-07
-1.21973e-07
-4.94262e-08
-2.20492e-07
-9.65698e-08
-4.95707e-08
-2.36026e-07
-4.98678e-08
-4.99904e-08
-3.08036e-07
-5.00595e-08
-3.1631e-07
-1.42906e-07
-1.11212e-07
-1.22155e-07
-2.28594e-07
-9.67112e-08
-2.44172e-07
-4.99366e-08
-3.16329e-07
-3.24622e-07
-1.93237e-07
-1.9334e-07
1.29429e-07
-1.65424e-07
-1.96348e-07
-2.87795e-08
-1.31121e-07
-1.96871e-07
-4.97423e-08
-6.82328e-08
-1.98693e-07
-1.4722e-07
-1.98907e-07
-1.58431e-07
-1.96246e-07
-1.65545e-07
-2.88121e-08
-1.68012e-07
-1.68133e-07
-1.91053e-07
-1.33085e-07
-1.68593e-07
-2.12942e-07
-6.91412e-08
-1.70123e-07
-3.12964e-07
-1.70299e-07
-3.24679e-07
-1.96769e-07
-1.31257e-07
-4.97928e-08
-1.68472e-07
-1.33221e-07
-2.1296e-07
-1.33442e-07
-1.33577e-07
-2.35026e-07
-6.92828e-08
-1.34718e-07
-3.3556e-07
-1.3484e-07
-3.47353e-07
-1.9859e-07
-6.83784e-08
-1.47305e-07
-1.70002e-07
-6.92864e-08
-3.13017e-07
-1.34582e-07
-6.94279e-08
-3.35595e-07
-6.97653e-08
-6.99102e-08
-4.37658e-07
-6.9913e-08
-4.49712e-07
-1.98804e-07
-1.58542e-07
-1.70178e-07
-3.24758e-07
-1.34704e-07
-3.47413e-07
-6.97677e-08
-4.4974e-07
-4.61818e-07
-2.75478e-07
-2.756e-07
1.82545e-07
-2.36148e-07
-2.80445e-07
-4.09734e-08
-1.86992e-07
-2.81576e-07
-7.15117e-08
-9.67279e-08
-2.84623e-07
-2.09704e-07
-2.85207e-07
-2.26156e-07
-2.80322e-07
-2.36292e-07
-4.10126e-08
-2.404e-07
-2.40544e-07
-2.70872e-07
-1.90356e-07
-2.41564e-07
-3.02992e-07
-9.84933e-08
-2.44234e-07
-4.45209e-07
-2.44743e-07
-4.62532e-07
-2.81453e-07
-1.8715e-07
-7.15754e-08
-2.4142e-07
-1.90515e-07
-3.03017e-07
-1.91195e-07
-1.91353e-07
-3.35456e-07
-9.89294e-08
-1.93459e-07
-4.78595e-07
-1.93855e-07
-4.96083e-07
-2.845e-07
-9.68962e-08
-2.09807e-07
-2.4409e-07
-9.86624e-08
-4.45274e-07
-1.933e-07
-9.90982e-08
-4.78635e-07
-1.0003e-07
-1.002e-07
-6.24183e-07
-1.00398e-07
-6.42133e-07
-2.85086e-07
-2.26295e-07
-2.44599e-07
-4.62633e-07
-1.93697e-07
-4.96159e-07
-1.0023e-07
-6.4217e-07
-6.60236e-07
-3.82023e-07
-3.82167e-07
2.55197e-07
-3.27506e-07
-3.90906e-07
-5.81353e-08
-2.59321e-07
-3.92956e-07
-1.01835e-07
-1.34357e-07
-3.98506e-07
-2.96092e-07
-3.99568e-07
-3.19837e-07
-3.90762e-07
-3.27675e-07
-5.81826e-08
-3.3528e-07
-3.35449e-07
-3.81797e-07
-2.65418e-07
-3.37367e-07
-4.28429e-07
-1.37566e-07
-3.42327e-07
-6.29226e-07
-3.43364e-07
-6.54599e-07
-3.92812e-07
-2.59507e-07
-1.01914e-07
-3.37199e-07
-2.65604e-07
-4.28461e-07
-2.67027e-07
-2.67212e-07
-4.75772e-07
-1.38414e-07
-2.71172e-07
-6.78354e-07
-2.72089e-07
-7.04155e-07
-3.98361e-07
-1.34555e-07
-2.96217e-07
-3.42157e-07
-1.37764e-07
-6.29304e-07
-2.70985e-07
-1.38611e-07
-6.78399e-07
-1.40504e-07
-1.40703e-07
-8.8513e-07
-1.41143e-07
-9.12134e-07
-3.99423e-07
-3.20009e-07
-3.43195e-07
-6.54724e-07
-2.71905e-07
-7.04248e-07
-1.40946e-07
-9.12182e-07
-9.39488e-07
-5.45488e-07
-5.45661e-07
3.57621e-07
-4.68556e-07
-5.58405e-07
-8.21522e-08
-3.70607e-07
-5.61579e-07
-1.46375e-07
-1.9206e-07
-5.69844e-07
-4.19843e-07
-5.71617e-07
-4.54996e-07
-5.58231e-07
-4.6876e-07
-8.22094e-08
-4.79928e-07
-4.80133e-07
-5.38353e-07
-3.79843e-07
-4.83075e-07
-6.06999e-07
-1.96954e-07
-4.9067e-07
-8.91273e-07
-4.92161e-07
-9.29214e-07
-5.61406e-07
-3.70832e-07
-1.46473e-07
-4.8287e-07
-3.80071e-07
-6.07041e-07
-3.82184e-07
-3.82411e-07
-6.77108e-07
-1.98186e-07
-3.88439e-07
-9.64573e-07
-3.89403e-07
-1.00335e-06
-5.69671e-07
-1.923e-07
-4.19995e-07
-4.90465e-07
-1.97196e-07
-8.91368e-07
-3.88211e-07
-1.98427e-07
-9.64626e-07
-2.01263e-07
-2.01506e-07
-1.25901e-06
-2.01971e-07
-1.29911e-06
-5.71445e-07
-4.5521e-07
-4.91958e-07
-9.29373e-07
-3.89176e-07
-1.00347e-06
-2.01728e-07
-1.29917e-06
-1.33964e-06
-7.49717e-07
-7.49921e-07
4.8817e-07
-6.39885e-07
-7.72569e-07
-1.2375e-07
-5.03063e-07
-7.78004e-07
-2.14675e-07
-2.59637e-07
-7.91805e-07
-5.935e-07
-7.94378e-07
-6.4274e-07
-7.72364e-07
-6.40124e-07
-1.23821e-07
-6.60307e-07
-6.60546e-07
-7.62412e-07
-5.19094e-07
-6.63958e-07
-8.62241e-07
-2.68178e-07
-6.74996e-07
-1.25898e-06
-6.76328e-07
-1.31321e-06
-7.778e-07
-5.03326e-07
-2.14797e-07
-6.63719e-07
-5.19358e-07
-8.62293e-07
-5.20232e-07
-5.20496e-07
-9.64044e-07
-2.68668e-07
-5.27177e-07
-1.36395e-06
-5.27137e-07
-1.41906e-06
-7.91599e-07
-2.59916e-07
-5.93684e-07
-6.74755e-07
-2.68457e-07
-1.2591e-06
-5.2691e-07
-2.68948e-07
-1.36401e-06
-2.72687e-07
-2.72969e-07
-1.76743e-06
-2.72741e-07
-1.82417e-06
-7.94175e-07
-6.43e-07
-6.76089e-07
-1.3134e-06
-5.26872e-07
-1.41921e-06
-2.72461e-07
-1.82425e-06
-1.88076e-06
-1.0636e-06
-1.06384e-06
6.60719e-07
-9.05437e-07
-1.09574e-06
-1.9243e-07
-7.06979e-07
-1.10012e-06
-3.27003e-07
-3.65067e-07
-1.11612e-06
-8.52044e-07
-1.11761e-06
-9.24622e-07
-1.09549e-06
-9.05725e-07
-1.92519e-07
-9.32976e-07
-9.33266e-07
-1.08739e-06
-7.27603e-07
-9.33919e-07
-1.2338e-06
-3.76636e-07
-9.45068e-07
-1.781e-06
-9.43785e-07
-1.86066e-06
-1.09987e-06
-7.07295e-07
-3.27157e-07
-9.33629e-07
-7.27923e-07
-1.23387e-06
-7.23867e-07
-7.24188e-07
-1.38353e-06
-3.7525e-07
-7.25568e-07
-1.93206e-06
-7.20974e-07
-2.01415e-06
-1.11587e-06
-3.65403e-07
-8.52271e-07
-9.44776e-07
-3.76976e-07
-1.78114e-06
-7.25246e-07
-3.7559e-07
-1.93213e-06
-3.76676e-07
-3.77017e-07
-2.46455e-06
-3.74631e-07
-2.5442e-06
-1.11736e-06
-9.24947e-07
-9.43494e-07
-1.8609e-06
-7.20649e-07
-2.01433e-06
-3.74291e-07
-2.54429e-06
-2.62352e-06
-1.44468e-06
-1.44497e-06
8.53841e-07
-1.21287e-06
-1.50119e-06
-3.22097e-07
-9.32244e-07
-1.5095e-06
-5.15087e-07
-4.77491e-07
-1.52993e-06
-1.22684e-06
-1.53176e-06
-1.32649e-06
-1.50089e-06
-1.2132e-06
-3.22211e-07
-1.26372e-06
-1.26406e-06
-1.56169e-06
-9.6868e-07
-1.26307e-06
-1.77527e-06
-4.99235e-07
-1.27185e-06
-2.50853e-06
-1.27359e-06
-2.61463e-06
-1.50921e-06
-9.32603e-07
-5.15284e-07
-1.26274e-06
-9.6904e-07
-1.77536e-06
-9.57303e-07
-9.57667e-07
-1.99437e-06
-4.97798e-07
-9.33625e-07
-2.72979e-06
-9.28518e-07
-2.8537e-06
-1.52963e-06
-4.77876e-07
-1.22711e-06
-1.27151e-06
-4.99622e-07
-2.50868e-06
-9.33257e-07
-4.98189e-07
-2.72986e-06
-4.98155e-07
-4.98538e-07
-3.33473e-06
-4.97358e-07
-3.47035e-06
-1.53146e-06
-1.32689e-06
-1.27326e-06
-2.61489e-06
-9.28144e-07
-2.85391e-06
-4.96977e-07
-3.47045e-06
-3.6115e-06
-2.04376e-06
-2.04413e-06
1.1011e-06
-1.72309e-06
-2.10455e-06
-5.3307e-07
-1.31417e-06
-2.10281e-06
-8.33465e-07
-6.79663e-07
-2.10445e-06
-1.81304e-06
-2.09827e-06
-1.96968e-06
-2.10418e-06
-1.72351e-06
-5.33225e-07
-1.78134e-06
-1.78176e-06
-2.20733e-06
-1.33075e-06
-1.77717e-06
-2.5515e-06
-6.9448e-07
-1.77971e-06
-3.46955e-06
-1.78845e-06
-3.6137e-06
-2.10244e-06
-1.31461e-06
-8.33732e-07
-1.77675e-06
-1.33118e-06
-2.55163e-06
-1.30756e-06
-1.30801e-06
-2.93273e-06
-7.03434e-07
-1.37492e-06
-3.7387e-06
-1.38927e-06
-3.95125e-06
-2.10407e-06
-6.80141e-07
-1.81339e-06
-1.7793e-06
-6.94948e-07
-3.46969e-06
-1.37448e-06
-7.03917e-07
-3.73878e-06
-7.26201e-07
-7.26691e-07
-4.63125e-06
-7.28474e-07
-4.85234e-06
-2.09786e-06
-1.9702e-06
-1.78806e-06
-3.61392e-06
-1.38883e-06
-3.95147e-06
-7.27984e-07
-4.85243e-06
-5.05776e-06
-2.76708e-06
-2.76752e-06
1.37278e-06
-2.32051e-06
-2.81963e-06
-9.2972e-07
-1.7417e-06
-2.83206e-06
-1.403e-06
-8.96073e-07
-2.96256e-06
-2.63364e-06
-3.02955e-06
-2.8057e-06
-2.81919e-06
-2.32101e-06
-9.29928e-07
-2.44642e-06
-2.44693e-06
-2.9528e-06
-1.89106e-06
-2.49189e-06
-3.44704e-06
-9.97042e-07
-2.63082e-06
-4.69531e-06
-2.67321e-06
-4.96176e-06
-2.83163e-06
-1.74218e-06
-1.40339e-06
-2.49138e-06
-1.89162e-06
-3.44718e-06
-1.95896e-06
-1.95953e-06
-3.99752e-06
-1.02793e-06
-2.07498e-06
-5.22558e-06
-2.12017e-06
-5.52694e-06
-2.96221e-06
-8.96635e-07
-2.63392e-06
-2.63032e-06
-9.97634e-07
-4.69557e-06
-2.07441e-06
-1.02851e-06
-5.22571e-06
-1.09832e-06
-1.0989e-06
-6.58343e-06
-1.12977e-06
-6.93593e-06
-3.02925e-06
-2.8062e-06
-2.67271e-06
-4.96219e-06
-2.11961e-06
-5.52726e-06
-1.12919e-06
-6.93611e-06
-7.3063e-06
-4.04317e-06
-4.04375e-06
1.96432e-06
-3.44791e-06
-4.17827e-06
-1.281e-06
-2.59162e-06
-4.24886e-06
-2.01612e-06
-1.40743e-06
-4.48006e-06
-3.49561e-06
-4.55052e-06
-3.86042e-06
-4.17768e-06
-3.44861e-06
-1.28125e-06
-3.6603e-06
-3.66099e-06
-3.98746e-06
-2.84578e-06
-3.7628e-06
-4.74762e-06
-1.52777e-06
-3.9608e-06
-6.53259e-06
-4.03979e-06
-6.99196e-06
-4.24825e-06
-2.59239e-06
-2.01661e-06
-3.76211e-06
-2.84655e-06
-4.74778e-06
-2.95816e-06
-2.95893e-06
-5.60535e-06
-1.58982e-06
-3.11198e-06
-7.44275e-06
-3.17944e-06
-7.96889e-06
-4.47946e-06
-1.40821e-06
-3.49605e-06
-3.96011e-06
-1.52855e-06
-6.53293e-06
-3.11122e-06
-1.59059e-06
-7.44295e-06
-1.68084e-06
-1.68161e-06
-9.4442e-06
-1.72569e-06
-1.00623e-05
-4.54992e-06
-3.86111e-06
-4.03909e-06
-6.99255e-06
-3.17867e-06
-7.96938e-06
-1.72492e-06
-1.00625e-05
-1.07401e-05
-5.76997e-06
-5.77062e-06
3.27667e-06
-4.81732e-06
-6.06317e-06
-1.70429e-06
-3.83899e-06
-6.35344e-06
-2.37608e-06
-2.04704e-06
-6.72169e-06
-4.60131e-06
-6.88522e-06
-5.17094e-06
-6.0625e-06
-4.8182e-06
-1.70444e-06
-5.40406e-06
-5.40491e-06
-5.30416e-06
-4.28387e-06
-5.68368e-06
-6.53757e-06
-2.32049e-06
-6.08619e-06
-9.13148e-06
-6.25984e-06
-9.92925e-06
-6.35274e-06
-3.83997e-06
-2.37664e-06
-5.68284e-06
-4.28483e-06
-6.53777e-06
-4.52041e-06
-4.52137e-06
-7.9301e-06
-2.45587e-06
-4.83926e-06
-1.07542e-05
-4.98335e-06
-1.16932e-05
-6.72097e-06
-2.04793e-06
-4.60204e-06
-6.08534e-06
-2.32147e-06
-9.13192e-06
-4.83831e-06
-2.45687e-06
-1.07545e-05
-2.64497e-06
-2.64597e-06
-1.38309e-05
-2.73307e-06
-1.49504e-05
-6.88459e-06
-5.17198e-06
-6.25901e-06
-9.92992e-06
-4.9824e-06
-1.16938e-05
-2.73207e-06
-1.49507e-05
-1.6191e-05
-8.25622e-06
-8.2573e-06
5.30878e-06
-7.22636e-06
-8.67139e-06
-1.81294e-06
-5.61393e-06
-8.97053e-06
-3.01631e-06
-3.05045e-06
-9.4722e-06
-6.10945e-06
-9.72623e-06
-7.07443e-06
-8.67029e-06
-7.22748e-06
-1.8134e-06
-7.87673e-06
-7.87791e-06
-6.89122e-06
-6.21631e-06
-8.27157e-06
-8.89696e-06
-3.43106e-06
-8.82236e-06
-1.25666e-05
-9.12315e-06
-1.39503e-05
-8.96947e-06
-5.61518e-06
-3.01705e-06
-8.27038e-06
-6.21758e-06
-8.89721e-06
-6.5864e-06
-6.5877e-06
-1.1298e-05
-3.67543e-06
-7.05835e-06
-1.54292e-05
-7.32597e-06
-1.71531e-05
-9.47119e-06
-3.05162e-06
-6.11052e-06
-8.82121e-06
-3.43228e-06
-1.25672e-05
-7.05706e-06
-3.67675e-06
-1.54296e-05
-3.96469e-06
-3.96601e-06
-2.00156e-05
-4.14747e-06
-2.2081e-05
-9.72525e-06
-7.07607e-06
-9.12209e-06
-1.39514e-05
-7.32467e-06
-1.71539e-05
-4.14615e-06
-2.20814e-05
-2.44588e-05
-1.11158e-05
-1.11171e-05
8.1512e-06
-1.01061e-05
-1.25023e-05
-1.18524e-06
-8.05565e-06
-1.32489e-05
-3.31576e-06
-4.40707e-06
-1.42055e-05
-7.76683e-06
-1.47591e-05
-9.3528e-06
-1.25011e-05
-1.01076e-05
-1.18577e-06
-1.1589e-05
-1.15904e-05
-8.71531e-06
-9.28308e-06
-1.24287e-05
-1.20231e-05
-5.18565e-06
-1.34636e-05
-1.74059e-05
-1.4081e-05
-1.98027e-05
-1.32477e-05
-8.0572e-06
-3.31676e-06
-1.24273e-05
-9.28462e-06
-1.20234e-05
-1.00142e-05
-1.00157e-05
-1.61241e-05
-5.65345e-06
-1.08669e-05
-2.23866e-05
-1.14211e-05
-2.54555e-05
-1.42043e-05
-4.40862e-06
-7.76825e-06
-1.34622e-05
-5.1872e-06
-1.74067e-05
-1.08654e-05
-5.65503e-06
-2.23872e-05
-6.22936e-06
-6.23093e-06
-2.92876e-05
-6.59709e-06
-3.31253e-05
-1.47578e-05
-9.35483e-06
-1.40795e-05
-1.9804e-05
-1.14195e-05
-2.54566e-05
-6.5955e-06
-3.31257e-05
-3.76325e-05
-1.60968e-05
-1.60987e-05
1.30842e-05
-1.47467e-05
-1.74781e-05
-1.24388e-07
-1.15771e-05
-1.85818e-05
-3.7829e-06
-6.53231e-06
-2.00813e-05
-9.74028e-06
-2.10385e-05
-1.2456e-05
-1.74762e-05
-1.47487e-05
-1.2536e-07
-1.66932e-05
-1.66952e-05
-1.02812e-05
-1.34094e-05
-1.81576e-05
-1.57311e-05
-7.71847e-06
-1.98069e-05
-2.33712e-05
-2.10035e-05
-2.75371e-05
-1.85799e-05
-1.15792e-05
-3.78422e-06
-1.81555e-05
-1.34115e-05
-1.57315e-05
-1.47957e-05
-1.47979e-05
-2.28436e-05
-8.69424e-06
-1.62307e-05
-3.20642e-05
-1.73626e-05
-3.77718e-05
-2.00795e-05
-6.53442e-06
-9.74217e-06
-1.98049e-05
-7.72055e-06
-2.33723e-05
-1.62286e-05
-8.69636e-06
-3.2065e-05
-9.64634e-06
-9.64841e-06
-4.24522e-05
-1.04984e-05
-4.96167e-05
-2.10365e-05
-1.24587e-05
-2.10014e-05
-2.75387e-05
-1.73603e-05
-3.77732e-05
-1.04962e-05
-4.96172e-05
-5.85867e-05
-2.10584e-05
-2.10606e-05
1.87803e-05
-2.0566e-05
-2.51659e-05
3.63467e-06
-1.67202e-05
-2.76541e-05
-2.9243e-06
-9.43171e-06
-3.00625e-05
-1.15647e-05
-3.21541e-05
-1.58902e-05
-2.51638e-05
-2.05683e-05
3.63322e-06
-2.45175e-05
-2.45198e-05
-1.15735e-05
-1.99853e-05
-2.74878e-05
-2.04296e-05
-1.17793e-05
-3.04942e-05
-3.11456e-05
-3.30618e-05
-3.8392e-05
-2.76519e-05
-1.67226e-05
-2.92604e-06
-2.74854e-05
-1.99877e-05
-2.04301e-05
-2.27614e-05
-2.2764e-05
-3.22914e-05
-1.36897e-05
-2.5426e-05
-4.62041e-05
-2.79472e-05
-5.6559e-05
-3.00604e-05
-9.43412e-06
-1.15672e-05
-3.04919e-05
-1.17817e-05
-3.11469e-05
-2.54235e-05
-1.36922e-05
-4.62051e-05
-1.57457e-05
-1.57481e-05
-6.18079e-05
-1.7555e-05
-7.5741e-05
-3.21519e-05
-1.58938e-05
-3.30594e-05
-3.83941e-05
-2.79447e-05
-5.65608e-05
-1.75525e-05
-7.57415e-05
-9.36645e-05
-3.00239e-05
-3.00273e-05
2.93957e-05
-3.00155e-05
-3.51131e-05
1.01485e-05
-2.39513e-05
-3.87467e-05
-1.40257e-06
-1.41567e-05
-4.29496e-05
-1.25132e-05
-4.65851e-05
-1.97253e-05
-3.51099e-05
-3.0019e-05
1.01465e-05
-3.53737e-05
-3.53771e-05
-1.10457e-05
-2.91759e-05
-4.06665e-05
-2.47076e-05
-1.78101e-05
-4.57385e-05
-3.97225e-05
-5.07579e-05
-5.20008e-05
-3.87431e-05
-2.39549e-05
-1.4049e-06
-4.06628e-05
-2.91794e-05
-2.47081e-05
-3.44899e-05
-3.44937e-05
-4.46372e-05
-2.18831e-05
-3.92293e-05
-6.53202e-05
-4.45228e-05
-8.46466e-05
-4.29463e-05
-1.41601e-05
-1.25165e-05
-4.57351e-05
-1.78133e-05
-3.97241e-05
-3.92259e-05
-2.18865e-05
-6.53216e-05
-2.5387e-05
-2.53901e-05
-8.9486e-05
-2.98802e-05
-0.000115739
-4.65813e-05
-1.97303e-05
-5.07542e-05
-5.20031e-05
-4.4519e-05
-8.4649e-05
-2.98768e-05
-0.000115739
-0.000153349
-3.95335e-05
-3.95371e-05
4.10187e-05
-3.99467e-05
-4.86091e-05
2.0441e-05
-3.43241e-05
-5.81231e-05
5.71609e-06
-2.04191e-05
-6.44254e-05
-1.08444e-05
-7.2713e-05
-2.21207e-05
-4.86057e-05
-3.99509e-05
2.0439e-05
-5.0939e-05
-5.09427e-05
-6.37878e-06
-4.34363e-05
-6.24468e-05
-2.78865e-05
-2.78831e-05
-7.18704e-05
-4.78308e-05
-8.32587e-05
-6.93118e-05
-5.81192e-05
-3.43279e-05
5.71228e-06
-6.24428e-05
-4.34401e-05
-2.78872e-05
-5.4664e-05
-5.46681e-05
-6.01948e-05
-3.61545e-05
-6.4091e-05
-9.1609e-05
-7.66993e-05
-0.000127333
-6.44219e-05
-2.04229e-05
-1.08484e-05
-7.18666e-05
-2.78868e-05
-4.78326e-05
-6.40872e-05
-3.61585e-05
-9.16106e-05
-4.46778e-05
-4.46816e-05
-0.000128305
-5.46471e-05
-0.000182446
-7.27091e-05
-2.21271e-05
-8.32548e-05
-6.93147e-05
-7.66951e-05
-0.000127336
-5.4643e-05
-0.000182447
-0.000262589
-5.37212e-05
-5.37272e-05
6.30837e-05
-5.67882e-05
-6.69158e-05
3.88913e-05
-4.89608e-05
-8.06785e-05
1.88496e-05
-3.07723e-05
-9.21122e-05
-3.86835e-06
-0.000106183
-2.13239e-05
-6.69103e-05
-5.67947e-05
3.88888e-05
-7.28154e-05
-7.28209e-05
5.43146e-06
-6.33563e-05
-9.22064e-05
-2.58177e-05
-4.20608e-05
-0.000108559
-5.26795e-05
-0.000130482
-8.70267e-05
-8.06717e-05
-4.89668e-05
1.88445e-05
-9.21999e-05
-6.33617e-05
-2.58181e-05
-8.40619e-05
-8.40684e-05
-7.64709e-05
-5.9562e-05
-0.00010162
-0.000123048
-0.000128971
-0.000188351
-9.21063e-05
-3.0778e-05
-3.87327e-06
-0.000108554
-4.20655e-05
-5.26816e-05
-0.000101615
-5.95675e-05
-0.00012305
-7.44854e-05
-7.44899e-05
-0.000182565
-0.00010141
-0.000284429
-0.000106175
-2.13331e-05
-0.000130476
-8.70293e-05
-0.000128964
-0.000188355
-0.000101405
-0.000284428
-0.000465245
-7.11604e-05
-7.11661e-05
8.91727e-05
-7.53266e-05
-8.89272e-05
6.53742e-05
-6.66653e-05
-0.000118517
4.27981e-05
-4.40305e-05
-0.000137913
1.83196e-05
-0.000170127
-9.28844e-06
-8.8922e-05
-7.53328e-05
6.53713e-05
-0.000103177
-0.000103183
3.39422e-05
-9.40468e-05
-0.000142696
-1.07693e-05
-6.82568e-05
-0.000173638
-4.27448e-05
-0.00022537
-9.99964e-05
-0.000118511
-6.66722e-05
4.27929e-05
-0.00014269
-9.40526e-05
-1.07699e-05
-0.000138146
-0.000138153
-8.55579e-05
-0.000103941
-0.000175781
-0.000155109
-0.000243915
-0.0002737
-0.000137907
-4.40366e-05
1.83128e-05
-0.000173632
-6.82625e-05
-4.27471e-05
-0.000175776
-0.000103948
-0.000155111
-0.000145193
-0.000145199
-0.000243729
-0.0002065
-0.000467001
-0.00017012
-9.29978e-06
-0.000225364
-9.99992e-05
-0.000243909
-0.000273706
-0.000206493
-0.000467002
-0.000878156
-8.81815e-05
-8.81922e-05
0.000132155
-0.000100165
-0.00011689
0.000109741
-9.09271e-05
-0.000157422
8.42863e-05
-6.33775e-05
-0.000191712
5.78374e-05
-0.00024502
2.2412e-05
-0.000116881
-0.000100176
0.000109738
-0.000140022
-0.00014003
8.0223e-05
-0.000132797
-0.000203026
2.76101e-05
-9.83964e-05
-0.000257213
-1.16444e-05
-0.000353196
-9.01351e-05
-0.00015741
-9.09383e-05
8.42804e-05
-0.000203015
-0.000132805
2.76103e-05
-0.000209591
-0.000209602
-7.24058e-05
-0.000171887
-0.000281905
-0.000168122
-0.000437451
-0.000361216
-0.000191702
-6.33886e-05
5.78309e-05
-0.000257205
-9.84027e-05
-1.16467e-05
-0.000281899
-0.000171895
-0.000168125
-0.000246048
-0.000246051
-0.000315434
-0.000432976
-0.00071737
-0.000245003
2.23948e-05
-0.000353182
-9.01346e-05
-0.000437438
-0.000361226
-0.000432972
-0.000717359
-0.00174367
-0.000110061
-0.00011007
0.000182222
-0.000126466
-0.000146461
0.000173841
-0.000120763
-0.000221731
0.000154584
-8.59664e-05
-0.000272966
0.000137142
-0.000392104
0.000101087
-0.000146453
-0.000126476
0.000173837
-0.000185759
-0.000185767
0.000158836
-0.000190026
-0.000304538
0.000114684
-0.00016143
-0.000399293
8.60868e-05
-0.000633545
-1.00441e-05
-0.00022172
-0.000120772
0.000154576
-0.000304529
-0.000190033
0.000114684
-0.000345921
-0.000345931
1.03788e-05
-0.000304766
-0.000509239
-9.93314e-05
-0.000902976
-0.000396463
-0.000272957
-8.59767e-05
0.000137134
-0.000399284
-0.000161437
8.60852e-05
-0.000509229
-0.000304778
-9.9333e-05
-0.000532127
-0.000532137
-0.000269637
-0.00098456
-0.00116786
-0.000392093
0.000101068
-0.000633538
-1.00399e-05
-0.000902966
-0.000396477
-0.000984543
-0.00116786
-0.000982563
-0.000923084
-0.000923078
-0.000883861
-0.000121008
-0.000121026
0.000250289
-0.000148091
-0.000170123
0.000257117
-0.000147524
-0.000261854
0.000254323
-0.000113606
-0.000342351
0.00024836
-0.000511293
0.000232153
-0.000170109
-0.00014811
0.000257114
-0.000224542
-0.000224554
0.000267699
-0.00023778
-0.000382684
0.000248752
-0.000199178
-0.000544083
0.000249217
-0.000925748
0.000205386
-0.00026183
-0.000147544
0.000254316
-0.000382665
-0.000237787
0.000248753
-0.000475567
-0.000475589
0.000196185
-0.000456712
-0.000773149
0.00011088
-0.00169142
-8.72743e-05
-0.000342335
-0.000113625
0.000248353
-0.00054407
-0.000199182
0.000249215
-0.000773151
-0.000456722
0.000110881
-0.000830423
-0.000830387
-0.000155128
-0.000535867
-0.000223178
-0.000239636
-0.000452883
-0.000650638
-0.000494846
-0.00054314
-0.000548877
-0.000511257
0.00023213
-0.000925715
0.000205399
-0.00169137
-8.73146e-05
-0.000535879
-0.000223198
-0.000452887
-0.000239549
-0.000650605
-0.000494845
-0.000543145
-0.000548851
-0.000405255
-0.000405227
-0.00124383
-0.000115332
-0.000115346
0.00031135
-0.000144806
-0.000169988
0.00035268
-0.000156367
-0.000303895
0.000390572
-0.000127581
-0.000415916
0.000434097
-0.00073354
0.000489605
-0.000169976
-0.000144821
0.000352675
-0.000236506
-0.000236516
0.000400757
-0.000282764
-0.000482473
0.000473588
-0.000279345
-0.000699786
0.000529669
-0.00146482
0.000657472
-0.000303878
-0.000156383
0.000390564
-0.000482462
-0.000282769
0.000473591
-0.000698076
-0.000698093
0.000627419
-0.000727171
-0.00135095
0.000791141
-0.000746382
0.00118892
-0.000852156
-0.000821
-0.00104849
-0.000415898
-0.000127601
0.000434088
-0.000699769
-0.00027935
0.000529667
-0.00135091
-0.000727198
0.000791132
-0.000440384
-0.000440403
0.000261388
0.000362555
0.00036255
0.000459499
-0.000588056
-0.000347568
-0.000775576
-0.000588073
-0.000347461
-0.000775468
-0.000343879
-0.00103363
-3.24359e-05
-0.000733518
0.000489583
-0.00146478
0.000657486
-0.000746379
0.00118888
-0.000852154
-0.000820987
-0.0010485
-0.00103363
-0.000343897
-3.24517e-05
-0.00123783
-0.00123776
0.00129759
0.00129761
-0.00051799
-0.000214505
-0.000296546
-0.000296389
0.00120583
-0.000102882
-0.000102908
0.000367595
-0.00013189
-0.000141843
0.000433255
-0.000141854
-0.000244521
0.000499367
-0.000110094
-0.000340601
0.000574867
-0.000515285
0.00067258
-0.000141828
-0.000131916
0.000433252
-0.000197439
-0.000197452
0.000511978
-0.000203671
-0.000397075
0.000632373
-0.000166353
-0.000573062
0.000724812
-0.000900811
0.000876769
-0.000244486
-0.000141886
0.000499367
-0.000397053
-0.000203665
0.000632371
-0.000531549
-0.000531598
0.000896438
-0.000489182
-0.000277908
0.00118158
-0.000454988
-0.000120936
-0.000152033
-0.000658832
0.00177828
-0.000910818
-0.000159093
-0.000250397
-0.00034058
-0.000110129
0.00057486
-0.000573051
-0.000166338
0.00072481
-0.000277899
-0.000489243
0.00118156
-0.000454986
-0.000120926
-0.000152025
-0.000366507
-0.000366353
0.00043844
-0.000342009
0.000822816
0.000435665
-0.000330394
-0.00029322
-0.000313363
-0.000351243
-0.000287083
-0.000515244
0.000672585
-0.000900708
0.000876756
-0.000658818
0.00177829
-0.000910888
-0.00015904
-0.000250389
-0.000342131
0.000822668
0.000435482
-0.000330397
-0.000293097
-0.000313241
-0.000351165
-0.000286935
0.00049696
0.00049685
-7.10499e-05
-0.000612721
-0.000612865
0.000302827
-1.20815e-05
-1.20992e-05
0.000365833
-2.1374e-06
-3.35722e-05
0.000418996
1.50185e-05
-1.12524e-05
0.000457046
2.3161e-05
5.74433e-06
0.000494093
8.84482e-05
0.000522685
-3.35584e-05
-2.15684e-06
0.000418996
-2.70085e-05
-2.70223e-05
0.000498878
-2.11377e-05
5.83163e-05
0.000556933
-1.85194e-05
9.92126e-05
0.000628725
0.000274318
0.000672738
-1.12216e-05
1.49954e-05
0.000457045
5.83389e-05
-2.11435e-05
0.000556932
0.000188707
0.000188676
0.000635711
0.000253952
0.00051853
0.000697015
0.000277074
0.000679737
0.000397695
0.000395145
0.000557153
5.75831e-06
2.31388e-05
0.000494092
9.92218e-05
-1.8523e-05
0.000628726
0.000518519
0.000253923
0.000697019
0.000133456
0.00013345
0.000573441
0.000520725
0.000137113
0.000596149
0.000520704
0.000137111
0.000596147
-0.000427271
-0.000509714
-0.000509717
-0.000864546
-0.000750598
9.4658e-05
0.00080997
0.0002565
8.84794e-05
0.00052269
0.00027436
0.000672725
0.000277062
0.000679748
0.000397709
0.00039515
0.000557163
-0.000750477
0.000809926
9.4609e-05
0.000256454
-0.00029491
-0.00032524
-0.000325232
0.000434904
0.000434907
7.55717e-05
-7.6259e-06
-7.64741e-06
0.000357114
-2.06672e-06
8.82551e-06
0.000415603
7.0377e-08
6.61576e-06
0.000440219
1.4304e-05
2.91712e-05
0.000481442
2.08898e-05
0.00049228
8.84534e-06
-2.09046e-06
0.000415603
1.01676e-05
1.01506e-05
0.00049623
3.8665e-06
1.73125e-05
0.000552538
-2.56548e-05
5.75984e-05
0.00062982
-4.41931e-05
0.000712653
6.65393e-06
3.94704e-08
0.000440223
1.73431e-05
3.85399e-06
0.000552539
3.30448e-05
3.30064e-05
0.000604315
4.9707e-05
5.94148e-05
0.000678536
9.2407e-05
0.00063225
0.000117595
-3.79491e-05
-0.000118925
2.91975e-05
1.42736e-05
0.000481438
5.76217e-05
-2.56664e-05
0.000629822
5.94431e-05
4.96675e-05
0.000678537
-4.99857e-05
-4.99908e-05
0.000182099
0.000211602
0.000211604
0.000167523
5.25233e-05
7.57079e-05
-0.00011851
5.25214e-05
7.57043e-05
-0.0001185
0.000323796
-4.13722e-05
0.000218109
-0.000458112
2.09372e-05
0.000492282
-4.41646e-05
0.000712659
9.24145e-05
0.000632234
0.000117603
-3.79521e-05
-0.000118914
0.000323818
0.000218104
-4.13838e-05
-0.000458115
0.00230848
0.000527737
0.000527741
-0.00223038
-0.000566794
-0.000566789
4.43344e-05
4.43164e-05
0.000349337
4.00974e-05
4.73422e-05
0.000411164
1.83396e-05
3.37045e-05
0.000472837
-3.54021e-06
8.71079e-06
0.000544121
-7.5912e-05
0.000629558
4.7357e-05
4.0077e-05
0.000411165
4.2867e-05
4.2855e-05
0.000505208
3.51869e-05
-2.3514e-05