/*--------------------------------*- C++ -*----------------------------------*\
| =========                 |                                                 |
| \\      /  F ield         | OpenFOAM: The Open Source CFD Toolbox           |
|  \\    /   O peration     | Version:  5.x                                   |
|   \\  /    A nd           | Web:      www.OpenFOAM.org                      |
|    \\/     M anipulation  |                                                 |
\*---------------------------------------------------------------------------*/
FoamFile
{
    version     2.0;
    format      ascii;
    class       volVectorField;
    location    "0.033";
    object      U;
}
// * * * * * * * * * * * * * * * * * * * * * * * * * * * * * * * * * * * * * //

dimensions      [0 1 -1 0 0 0 0];

internalField   nonuniform List<vector> 
1581
(
(-2.66191e-06 -2.66704e-06 -0.000782047)
(-2.31153e-06 -3.52792e-06 -0.000781657)
(-1.72746e-06 -3.75455e-06 -0.000779922)
(-1.99321e-06 -3.91367e-06 -0.000781331)
(4.97833e-08 -3.95824e-06 -0.000780902)
(-3.52278e-06 -2.31837e-06 -0.00078166)
(-3.38271e-06 -3.38955e-06 -0.000783823)
(-2.10724e-06 -3.72246e-06 -0.000782363)
(-2.19345e-06 -3.94708e-06 -0.000783655)
(-1.13196e-08 -4.02188e-06 -0.000783203)
(-3.74942e-06 -1.73397e-06 -0.000779923)
(-3.71562e-06 -2.11378e-06 -0.000782361)
(-2.28532e-06 -2.29186e-06 -0.000781211)
(-2.2928e-06 -2.41543e-06 -0.000782569)
(-6.21842e-08 -2.47121e-06 -0.000782159)
(-3.90856e-06 -2.00071e-06 -0.000781334)
(-3.94026e-06 -2.20109e-06 -0.000783656)
(-2.40888e-06 -2.30025e-06 -0.00078257)
(-2.3728e-06 -2.38027e-06 -0.000783815)
(-8.98711e-08 -2.41933e-06 -0.000783385)
(-3.95326e-06 4.28241e-08 -0.000780904)
(-4.01498e-06 -1.81651e-08 -0.000783202)
(-2.46449e-06 -6.93849e-08 -0.000782159)
(-2.41188e-06 -9.71197e-08 -0.000783384)
(-1.15004e-07 -1.22542e-07 -0.000782965)
(-3.56703e-06 -3.56975e-06 0.000227664)
(-4.52261e-06 -2.59393e-06 0.00022628)
(-2.86747e-06 -2.47272e-06 0.000225608)
(-2.38771e-06 -2.19815e-06 0.000225134)
(-8.03919e-07 -2.15013e-06 0.000224891)
(-2.59122e-06 -4.52755e-06 0.00022628)
(-3.45487e-06 -3.45971e-06 0.000225536)
(-2.48296e-06 -3.27709e-06 0.000225035)
(-2.07344e-06 -2.95585e-06 0.000224633)
(-6.73711e-07 -2.8834e-06 0.000224413)
(-2.4699e-06 -2.873e-06 0.000225608)
(-3.27215e-06 -2.4884e-06 0.000225035)
(-2.36395e-06 -2.36942e-06 0.000224617)
(-1.99426e-06 -2.20649e-06 0.000224258)
(-6.20489e-07 -2.15263e-06 0.000224059)
(-2.19535e-06 -2.39404e-06 0.000225133)
(-2.95096e-06 -2.07973e-06 0.000224633)
(-2.20105e-06 -2.00065e-06 0.000224258)
(-1.85664e-06 -1.86306e-06 0.000223911)
(-5.47457e-07 -1.81681e-06 0.000223722)
(-2.14729e-06 -8.10841e-07 0.000224891)
(-2.87852e-06 -6.80555e-07 0.000224412)
(-2.14727e-06 -6.27162e-07 0.000224058)
(-1.81042e-06 -5.54026e-07 0.000223722)
(-5.07823e-07 -5.14314e-07 0.00022354)
(-4.14478e-06 -4.14976e-06 -0.000468918)
(-4.46015e-06 -4.33829e-06 -0.000470775)
(-2.92684e-06 -4.38887e-06 -0.000470595)
(-2.75053e-06 -4.47299e-06 -0.000472035)
(-2.06984e-07 -4.49491e-06 -0.000471996)
(-4.33332e-06 -4.46721e-06 -0.000470777)
(-4.69478e-06 -4.70184e-06 -0.000473306)
(-3.05925e-06 -4.77602e-06 -0.000473202)
(-2.85477e-06 -4.88377e-06 -0.000474785)
(-2.42576e-07 -4.91492e-06 -0.000474761)
(-4.38389e-06 -2.93388e-06 -0.000470597)
(-4.76896e-06 -3.06629e-06 -0.000473203)
(-3.10889e-06 -3.11595e-06 -0.000473152)
(-2.88953e-06 -3.18302e-06 -0.000474764)
(-2.61133e-07 -3.20744e-06 -0.000474755)
(-4.46801e-06 -2.7585e-06 -0.000472039)
(-4.87674e-06 -2.86282e-06 -0.000474786)
(-3.17598e-06 -2.89754e-06 -0.000474765)
(-2.94626e-06 -2.9543e-06 -0.000476416)
(-2.8172e-07 -2.97514e-06 -0.000476414)
(-4.49001e-06 -2.1505e-07 -0.000472)
(-4.90791e-06 -2.50551e-07 -0.000474763)
(-3.20036e-06 -2.69227e-07 -0.000474757)
(-2.96712e-06 -2.89722e-07 -0.000476415)
(-2.91731e-07 -2.99933e-07 -0.00047642)
(-5.45325e-06 -5.45776e-06 -1.87329e-05)
(-6.19962e-06 -5.1722e-06 -2.18152e-05)
(-4.12814e-06 -5.13138e-06 -2.23246e-05)
(-3.7893e-06 -5.00237e-06 -2.41948e-05)
(-7.37274e-07 -4.9711e-06 -2.44645e-05)
(-5.16768e-06 -6.20637e-06 -2.18162e-05)
(-5.88105e-06 -5.88778e-06 -2.48257e-05)
(-3.96249e-06 -5.83511e-06 -2.53071e-05)
(-3.63276e-06 -5.68527e-06 -2.71603e-05)
(-6.4029e-07 -5.64346e-06 -2.74216e-05)
(-5.12684e-06 -4.13522e-06 -2.2326e-05)
(-5.82836e-06 -3.96953e-06 -2.53076e-05)
(-3.92574e-06 -3.93278e-06 -2.5772e-05)
(-3.59776e-06 -3.83856e-06 -2.76139e-05)
(-6.13738e-07 -3.80605e-06 -2.78687e-05)
(-4.99781e-06 -3.79738e-06 -2.41973e-05)
(-5.6785e-06 -3.6408e-06 -2.71618e-05)
(-3.83152e-06 -3.60582e-06 -2.7615e-05)
(-3.50603e-06 -3.51408e-06 -2.9453e-05)
(-5.49152e-07 -3.48223e-06 -2.97017e-05)
(-4.96652e-06 -7.45512e-07 -2.44675e-05)
(-5.63669e-06 -6.48523e-07 -2.74237e-05)
(-3.79901e-06 -6.21964e-07 -2.78704e-05)
(-3.47417e-06 -5.57344e-07 -2.97022e-05)
(-5.21086e-07 -5.29288e-07 -2.99471e-05)
(-7.29217e-06 -7.29809e-06 -0.000305656)
(-8.05214e-06 -7.41277e-06 -0.000310144)
(-5.30637e-06 -7.43494e-06 -0.000310598)
(-4.89041e-06 -7.50208e-06 -0.00031341)
(-4.99271e-07 -7.51545e-06 -0.000313647)
(-7.40685e-06 -8.06064e-06 -0.000310146)
(-8.18607e-06 -8.19456e-06 -0.000314925)
(-5.39379e-06 -8.22377e-06 -0.000315417)
(-4.96926e-06 -8.30338e-06 -0.000318363)
(-5.17331e-07 -8.31959e-06 -0.000318621)
(-7.42901e-06 -5.315e-06 -0.000310601)
(-8.21527e-06 -5.4024e-06 -0.000315418)
(-5.41521e-06 -5.42388e-06 -0.000315921)
(-4.98627e-06 -5.47574e-06 -0.000318888)
(-5.24092e-07 -5.4875e-06 -0.000319152)
(-7.49615e-06 -4.89998e-06 -0.000313415)
(-8.29492e-06 -4.97889e-06 -0.000318366)
(-5.46712e-06 -4.99594e-06 -0.000318889)
(-5.03287e-06 -5.04253e-06 -0.000321926)
(-5.34672e-07 -5.05348e-06 -0.000322204)
(-7.50959e-06 -5.09429e-07 -0.000313653)
(-8.3112e-06 -5.27401e-07 -0.000318624)
(-5.47885e-06 -5.34189e-07 -0.000319155)
(-5.0438e-06 -5.44667e-07 -0.000322204)
(-5.36924e-07 -5.47017e-07 -0.000322488)
(-1.00327e-05 -1.00391e-05 -0.000126707)
(-1.11427e-05 -1.00529e-05 -0.00013334)
(-7.39499e-06 -1.00508e-05 -0.000134211)
(-6.8381e-06 -1.00591e-05 -0.000138298)
(-9.1809e-07 -1.00495e-05 -0.000138778)
(-1.00464e-05 -1.1152e-05 -0.000133342)
(-1.11531e-05 -1.11625e-05 -0.000140053)
(-7.40049e-06 -1.11582e-05 -0.000140937)
(-6.83644e-06 -1.11631e-05 -0.000145077)
(-8.68038e-07 -1.11494e-05 -0.000145563)
(-1.00443e-05 -7.40466e-06 -0.000134213)
(-1.11488e-05 -7.41014e-06 -0.000140938)
(-7.39569e-06 -7.40533e-06 -0.000141822)
(-6.82938e-06 -7.40177e-06 -0.000145969)
(-8.54355e-07 -7.38908e-06 -0.000146456)
(-1.00526e-05 -6.84899e-06 -0.000138303)
(-1.11538e-05 -6.84729e-06 -0.00014508)
(-7.39212e-06 -6.84024e-06 -0.000145971)
(-6.82018e-06 -6.83101e-06 -0.000150151)
(-8.16484e-07 -6.81769e-06 -0.000150641)
(-1.0043e-05 -9.29052e-07 -0.000138784)
(-1.11401e-05 -8.79023e-07 -0.000145567)
(-7.3794e-06 -8.65376e-07 -0.000146459)
(-6.80683e-06 -8.27485e-07 -0.000150642)
(-7.98954e-07 -8.10037e-07 -0.000151133)
(-1.40665e-05 -1.40744e-05 -0.000227919)
(-1.55568e-05 -1.42697e-05 -0.000237212)
(-1.02649e-05 -1.43056e-05 -0.000238346)
(-9.45791e-06 -1.44265e-05 -0.000244067)
(-9.97619e-07 -1.44466e-05 -0.00024467)
(-1.42618e-05 -1.55681e-05 -0.000237215)
(-1.57823e-05 -1.57936e-05 -0.000246788)
(-1.04176e-05 -1.58362e-05 -0.000247971)
(-9.59528e-06 -1.59749e-05 -0.000253862)
(-1.01726e-06 -1.59984e-05 -0.000254494)
(-1.42977e-05 -1.02765e-05 -0.000238349)
(-1.58249e-05 -1.04292e-05 -0.000247972)
(-1.04462e-05 -1.04578e-05 -0.000249167)
(-9.6201e-06 -1.05506e-05 -0.000255089)
(-1.02216e-06 -1.05659e-05 -0.00025573)
(-1.44186e-05 -9.47071e-06 -0.000244074)
(-1.59636e-05 -9.60812e-06 -0.000253866)
(-1.0539e-05 -9.63295e-06 -0.000255092)
(-9.70334e-06 -9.71618e-06 -0.000261119)
(-1.03367e-06 -9.73053e-06 -0.000261779)
(-1.44388e-05 -1.01118e-06 -0.000244678)
(-1.59871e-05 -1.03081e-06 -0.0002545)
(-1.05542e-05 -1.03572e-06 -0.000255734)
(-9.71768e-06 -1.0472e-06 -0.00026178)
(-1.03648e-06 -1.05002e-06 -0.000262445)
(-1.95264e-05 -1.95355e-05 -0.000172853)
(-2.15708e-05 -1.98364e-05 -0.000186268)
(-1.42496e-05 -1.98858e-05 -0.000188003)
(-1.31622e-05 -2.00684e-05 -0.000196276)
(-1.4749e-06 -2.00899e-05 -0.000197227)
(-1.98273e-05 -2.15839e-05 -0.000186271)
(-2.19105e-05 -2.19236e-05 -0.000199964)
(-1.44746e-05 -2.19812e-05 -0.000201761)
(-1.33602e-05 -2.2187e-05 -0.000210209)
(-1.47325e-06 -2.2211e-05 -0.000211193)
(-1.98767e-05 -1.42632e-05 -0.000188007)
(-2.1968e-05 -1.44882e-05 -0.000201762)
(-1.4513e-05 -1.45266e-05 -0.000203572)
(-1.3392e-05 -1.46587e-05 -0.000212057)
(-1.47033e-06 -1.46734e-05 -0.000213048)
(-2.00593e-05 -1.31773e-05 -0.000196284)
(-2.21739e-05 -1.33753e-05 -0.000210214)
(-1.46451e-05 -1.34071e-05 -0.00021206)
(-1.3507e-05 -1.35221e-05 -0.000220654)
(-1.46468e-06 -1.35332e-05 -0.000221662)
(-2.00807e-05 -1.49036e-06 -0.000197237)
(-2.21979e-05 -1.48875e-06 -0.0002112)
(-1.46597e-05 -1.48586e-06 -0.000213053)
(-1.35181e-05 -1.48022e-06 -0.000221665)
(-1.45738e-06 -1.47304e-06 -0.000222676)
(-2.77748e-05 -2.77857e-05 -0.000186565)
(-3.07089e-05 -2.82667e-05 -0.000205155)
(-2.02731e-05 -2.8367e-05 -0.000207517)
(-1.86826e-05 -2.86672e-05 -0.000218964)
(-1.96363e-06 -2.87215e-05 -0.000220238)
(-2.82557e-05 -3.07247e-05 -0.000205159)
(-3.12746e-05 -3.12905e-05 -0.000224293)
(-2.06628e-05 -3.14074e-05 -0.000226783)
(-1.90276e-05 -3.1758e-05 -0.000238574)
(-2.01579e-06 -3.18215e-05 -0.00023992)
(-2.83561e-05 -2.02895e-05 -0.000207523)
(-3.13916e-05 -2.06793e-05 -0.000226785)
(-2.07405e-05 -2.07569e-05 -0.000229304)
(-1.90966e-05 -2.09953e-05 -0.000241169)
(-2.02639e-06 -2.10348e-05 -0.000242531)
(-2.86563e-05 -1.87007e-05 -0.000218973)
(-3.17421e-05 -1.90458e-05 -0.00023858)
(-2.09788e-05 -1.91148e-05 -0.000241173)
(-1.93055e-05 -1.93239e-05 -0.000253248)
(-2.05563e-06 -1.93588e-05 -0.000254656)
(-2.87107e-05 -1.98256e-06 -0.000220251)
(-3.18057e-05 -2.03481e-06 -0.000239929)
(-2.10185e-05 -2.04533e-06 -0.000242538)
(-1.93406e-05 -2.07469e-06 -0.000254659)
(-2.0621e-06 -2.08104e-06 -0.000256075)
(-3.85304e-05 -3.85432e-05 -0.000190698)
(-4.25261e-05 -3.94042e-05 -0.000217308)
(-2.8058e-05 -3.95854e-05 -0.000220898)
(-2.58839e-05 -4.01221e-05 -0.000237367)
(-2.7233e-06 -4.02174e-05 -0.000239341)
(-3.93913e-05 -4.2545e-05 -0.000217312)
(-4.35382e-05 -4.35571e-05 -0.000244674)
(-2.87554e-05 -4.37722e-05 -0.000248456)
(-2.64976e-05 -4.4396e-05 -0.000265412)
(-2.8043e-06 -4.45077e-05 -0.000267499)
(-3.95726e-05 -2.80775e-05 -0.000220906)
(-4.37533e-05 -2.87749e-05 -0.000248459)
(-2.88966e-05 -2.89161e-05 -0.000252296)
(-2.66193e-05 -2.9333e-05 -0.000269392)
(-2.81877e-06 -2.94094e-05 -0.000271516)
(-4.01093e-05 -2.59056e-05 -0.000237378)
(-4.4377e-05 -2.65194e-05 -0.000265419)
(-2.93135e-05 -2.6641e-05 -0.000269396)
(-2.69909e-05 -2.70128e-05 -0.000286802)
(-2.86647e-06 -2.70774e-05 -0.000288992)
(-4.02046e-05 -2.74576e-06 -0.000239357)
(-4.44889e-05 -2.82677e-06 -0.000267511)
(-2.93901e-05 -2.84121e-06 -0.000271525)
(-2.70557e-05 -2.88902e-06 -0.000288997)
(-2.8678e-06 -2.89031e-06 -0.00029121)
(-5.49846e-05 -5.50001e-05 -0.000151933)
(-6.09148e-05 -5.6253e-05 -0.000188626)
(-4.0332e-05 -5.65504e-05 -0.000193534)
(-3.71251e-05 -5.73503e-05 -0.00021621)
(-3.9582e-06 -5.75203e-05 -0.000218883)
(-5.62376e-05 -6.0938e-05 -0.000188631)
(-6.24242e-05 -6.24475e-05 -0.00022667)
(-4.14007e-05 -6.2811e-05 -0.000231998)
(-3.80703e-05 -6.37883e-05 -0.000255543)
(-4.12636e-06 -6.40022e-05 -0.00025845)
(-5.65351e-05 -4.03556e-05 -0.000193543)
(-6.27878e-05 -4.14245e-05 -0.000232002)
(-4.16725e-05 -4.16962e-05 -0.000237441)
(-3.8316e-05 -4.23853e-05 -0.000261216)
(-4.17354e-06 -4.25279e-05 -0.000264202)
(-5.7335e-05 -3.71519e-05 -0.000216225)
(-6.37651e-05 -3.80973e-05 -0.000255552)
(-4.23615e-05 -3.8343e-05 -0.000261221)
(-3.8902e-05 -3.89291e-05 -0.000285478)
(-4.2709e-06 -3.90533e-05 -0.000288647)
(-5.75052e-05 -3.98546e-06 -0.000218903)
(-6.39791e-05 -4.15384e-06 -0.000258464)
(-4.25042e-05 -4.20095e-06 -0.000264212)
(-3.90263e-05 -4.29849e-06 -0.000288653)
(-4.29707e-06 -4.32461e-06 -0.000291872)
(-7.60624e-05 -7.60806e-05 -0.000196399)
(-8.4135e-05 -7.83267e-05 -0.000248663)
(-5.56422e-05 -7.89386e-05 -0.000256485)
(-5.12328e-05 -8.03688e-05 -0.000289066)
(-5.39714e-06 -8.07041e-05 -0.000293438)
(-7.83085e-05 -8.41629e-05 -0.000248669)
(-8.69129e-05 -8.69409e-05 -0.000302887)
(-5.76286e-05 -8.76871e-05 -0.000311203)
(-5.29491e-05 -8.94103e-05 -0.000345033)
(-5.7185e-06 -8.98346e-05 -0.000349711)
(-7.89205e-05 -5.56705e-05 -0.000256497)
(-8.76592e-05 -5.76569e-05 -0.000311208)
(-5.8111e-05 -5.81393e-05 -0.00031978)
(-5.33798e-05 -5.92684e-05 -0.000354043)
(-5.8125e-06 -5.96068e-05 -0.000358898)
(-8.03506e-05 -5.1265e-05 -0.000289084)
(-8.93822e-05 -5.29814e-05 -0.000345045)
(-5.924e-05 -5.34121e-05 -0.000354049)
(-5.44166e-05 -5.44492e-05 -0.000389379)
(-6.04758e-06 -5.47481e-05 -0.000394473)
(-8.0686e-05 -5.42997e-06 -0.000293463)
(-8.98068e-05 -5.75137e-06 -0.00034973)
(-5.95788e-05 -5.84543e-06 -0.000358912)
(-5.47158e-05 -6.08064e-06 -0.00039448)
(-6.09751e-06 -6.13053e-06 -0.000399691)
(-0.000108463 -0.000108485 -0.000100785)
(-0.000121012 -0.000111744 -0.000172431)
(-8.07349e-05 -0.00011255 -0.00018313)
(-7.40772e-05 -0.000114631 -0.00022757)
(-8.37152e-06 -0.000115115 -0.000233474)
(-0.000111722 -0.000121047 -0.000172439)
(-0.000124969 -0.000125004 -0.000247515)
(-8.35466e-05 -0.000126117 -0.000259637)
(-7.65781e-05 -0.000128777 -0.00030673)
(-8.85236e-06 -0.000129475 -0.000313601)
(-0.000112528 -8.077e-05 -0.000183145)
(-0.000126082 -8.35819e-05 -0.000259644)
(-8.45072e-05 -8.45424e-05 -0.000272389)
(-7.74342e-05 -8.67308e-05 -0.000320464)
(-9.07821e-06 -8.729e-05 -0.000327747)
(-0.000114609 -7.41179e-05 -0.000227591)
(-0.000128743 -7.66192e-05 -0.000306744)
(-8.66954e-05 -7.74752e-05 -0.000320471)
(-7.93256e-05 -7.93668e-05 -0.000369012)
(-9.42213e-06 -7.98462e-05 -0.000376829)
(-0.000115094 -8.41192e-06 -0.000233505)
(-0.00012944 -8.89328e-06 -0.000313624)
(-8.72548e-05 -9.11906e-06 -0.000327765)
(-7.98052e-05 -9.46332e-06 -0.000376838)
(-9.56461e-06 -9.60574e-06 -0.000384821)
(-0.000149396 -0.000149422 -0.00019425)
(-0.000166496 -0.000155195 -0.000296048)
(-0.00011078 -0.00015726 -0.000313866)
(-0.000101577 -0.000161408 -0.000377229)
(-1.13382e-05 -0.000162727 -0.000387351)
(-0.000155169 -0.000166538 -0.000296059)
(-0.000174128 -0.00017417 -0.000402682)
(-0.000116844 -0.000176963 -0.000422228)
(-0.000106912 -0.000182322 -0.000488142)
(-1.26261e-05 -0.000184125 -0.000498846)
(-0.000157234 -0.000110822 -0.000313885)
(-0.000176921 -0.000116886 -0.000422237)
(-0.000118931 -0.000118973 -0.000442753)
(-0.000108738 -0.00012155 -0.00050872)
(-1.31315e-05 -0.000122834 -0.000520157)
(-0.000161382 -0.000101625 -0.000377259)
(-0.00018228 -0.000106962 -0.000488159)
(-0.000121508 -0.000108787 -0.00050873)
(-0.000110774 -0.000110823 -0.000578126)
(-1.38989e-05 -0.000111821 -0.000590209)
(-0.000162702 -1.1387e-05 -0.000387393)
(-0.000184084 -1.2675e-05 -0.000498876)
(-0.000122792 -1.31806e-05 -0.000520179)
(-0.000111772 -1.39475e-05 -0.00059022)
(-1.41174e-05 -1.41658e-05 -0.000602533)
(-0.000212696 -0.00021273 -4.61095e-06)
(-0.000240651 -0.000220956 -0.000143241)
(-0.000161916 -0.000223532 -0.000167629)
(-0.000147563 -0.000228265 -0.000253437)
(-1.85548e-05 -0.000229361 -0.000266712)
(-0.000220923 -0.000240705 -0.000143254)
(-0.000251164 -0.000251218 -0.000289558)
(-0.000169006 -0.00025503 -0.000317574)
(-0.000153196 -0.000260295 -0.000411002)
(-1.96333e-05 -0.000262308 -0.000427535)
(-0.000223499 -0.00016197 -0.000167652)
(-0.000254975 -0.000169059 -0.000317584)
(-0.000170991 -0.000171044 -0.000347207)
(-0.000154839 -0.000176715 -0.000444001)
(-2.0584e-05 -0.000178652 -0.000461234)
(-0.000228231 -0.000147626 -0.000253469)
(-0.00026024 -0.000153258 -0.000411025)
(-0.000176662 -0.000154901 -0.000444012)
(-0.000160805 -0.000160867 -0.000547226)
(-2.15723e-05 -0.000162223 -0.000566389)
(-0.000229326 -1.86162e-05 -0.000266759)
(-0.000262253 -1.96953e-05 -0.000427573)
(-0.0001786 -2.06465e-05 -0.000461261)
(-0.00016216 -2.16352e-05 -0.000566405)
(-2.19403e-05 -2.20034e-05 -0.000586425)
(-0.000291409 -0.000291449 -0.000174563)
(-0.000329546 -0.000305166 -0.000369878)
(-0.000220974 -0.000310979 -0.000409965)
(-0.000200658 -0.000322997 -0.000528581)
(-2.46765e-05 -0.000327652 -0.000552401)
(-0.000305126 -0.000329611 -0.000369898)
(-0.000348481 -0.000348546 -0.000578118)
(-0.000238287 -0.000356575 -0.000623704)
(-0.000216873 -0.000372923 -0.000754943)
(-2.9188e-05 -0.000378685 -0.000782573)
(-0.00031094 -0.000221035 -0.00041)
(-0.00035651 -0.000238351 -0.000623718)
(-0.000245346 -0.00024541 -0.00067286)
(-0.000222764 -0.000257772 -0.00080925)
(-3.03836e-05 -0.000261688 -0.000839055)
(-0.000322961 -0.000200731 -0.000528633)
(-0.00037286 -0.00021695 -0.000754975)
(-0.000257708 -0.000222841 -0.000809267)
(-0.000233151 -0.000233227 -0.000951363)
(-3.30569e-05 -0.000237012 -0.000983825)
(-0.000327617 -2.47497e-05 -0.000552474)
(-0.000378624 -2.92615e-05 -0.000782626)
(-0.000261623 -3.04567e-05 -0.000839093)
(-0.000236935 -3.31314e-05 -0.000983846)
(-3.41185e-05 -3.41943e-05 -0.00101827)
(-0.000412892 -0.000412945 0.000181021)
(-0.0004761 -0.000434474 -9.00216e-05)
(-0.00032062 -0.000442722 -0.000143668)
(-0.00029 -0.000460404 -0.000315836)
(-4.24169e-05 -0.000465421 -0.000350825)
(-0.000434421 -0.000476189 -9.00434e-05)
(-0.000505024 -0.000505112 -0.000389466)
(-0.000345831 -0.000517981 -0.000460821)
(-0.000312067 -0.000541023 -0.000650163)
(-4.7323e-05 -0.000549023 -0.000693761)
(-0.000442668 -0.000320705 -0.00014371)
(-0.000517892 -0.000345916 -0.000460839)
(-0.000356522 -0.000356607 -0.000539262)
(-0.000321036 -0.000373136 -0.000738565)
(-5.04365e-05 -0.000379905 -0.000787046)
(-0.000460351 -0.000290101 -0.000315901)
(-0.000540934 -0.000312168 -0.000650201)
(-0.000373051 -0.000321136 -0.000738585)
(-0.000335365 -0.000335465 -0.000950383)
(-5.40994e-05 -0.000341438 -0.00100581)
(-0.000465367 -4.25114e-05 -0.000350914)
(-0.000548933 -4.74187e-05 -0.000693825)
(-0.000379819 -5.0532e-05 -0.000787094)
(-0.000341338 -5.41962e-05 -0.00100584)
(-5.64012e-05 -5.64987e-05 -0.00106455)
(-0.000569064 -0.000569126 -0.000100926)
(-0.0006543 -0.000612116 -0.000474671)
(-0.000446782 -0.000636027 -0.00057057)
(-0.000407813 -0.000665747 -0.000803574)
(-5.96913e-05 -0.000679222 -0.00086216)
(-0.000612055 -0.000654407 -0.000474711)
(-0.000719327 -0.000719432 -0.000883234)
(-0.000498977 -0.000752241 -0.000998402)
(-0.000449809 -0.00079573 -0.00125672)
(-7.27999e-05 -0.000814985 -0.00132925)
(-0.000635963 -0.000446886 -0.000570631)
(-0.000752134 -0.000499079 -0.000998423)
(-0.000523066 -0.000523168 -0.00112892)
(-0.000470545 -0.000557984 -0.00140218)
(-7.88867e-05 -0.000573729 -0.00148652)
(-0.000665682 -0.000407933 -0.000803663)
(-0.000795622 -0.000449933 -0.00125678)
(-0.000557882 -0.00047067 -0.00140221)
(-0.000500375 -0.0005005 -0.00169569)
(-8.84731e-05 -0.000514521 -0.00179112)
(-0.000679162 -5.98043e-05 -0.000862279)
(-0.000814882 -7.2911e-05 -0.00132933)
(-0.000573628 -7.8998e-05 -0.00148659)
(-0.000514396 -8.85857e-05 -0.00179115)
(-9.28246e-05 -9.29375e-05 -0.00189629)
(-0.000796219 -0.000796313 0.000510805)
(-0.000945842 -0.000853717 1.44918e-05)
(-0.000649523 -0.000881768 -0.000124919)
(-0.000581597 -0.000925608 -0.000451112)
(-0.000101038 -0.000944934 -0.000535553)
(-0.000853622 -0.000945992 1.44494e-05)
(-0.00102883 -0.00102898 -0.000560608)
(-0.000719317 -0.00107646 -0.000743483)
(-0.000642925 -0.00113976 -0.00111635)
(-0.000119956 -0.00117353 -0.00123491)
(-0.000881675 -0.000649657 -0.000124992)
(-0.00107631 -0.000719454 -0.00074351)
(-0.000760276 -0.000760414 -0.000952068)
(-0.000678645 -0.000812105 -0.00136058)
(-0.000134881 -0.000841773 -0.0014997)
(-0.000925517 -0.000581757 -0.000451214)
(-0.00113962 -0.000643086 -0.00111641)
(-0.000811969 -0.000678813 -0.00136061)
(-0.000724283 -0.000724449 -0.0017981)
(-0.000149688 -0.000751213 -0.00196562)
(-0.000944842 -0.000101187 -0.000535706)
(-0.00117338 -0.000120106 -0.00123501)
(-0.000841639 -0.000135027 -0.00149977)
(-0.000751046 -0.000149835 -0.00196566)
(-0.000161691 -0.000161838 -0.00215102)
(-0.00107811 -0.00107821 0.000101161)
(-0.00129016 -0.00120214 -0.000578793)
(-0.000912358 -0.00127067 -0.00081429)
(-0.000818436 -0.0013484 -0.0012458)
(-0.000144369 -0.00139677 -0.00139959)
(-0.00120204 -0.00129034 -0.000578863)
(-0.0014774 -0.00147757 -0.0013541)
(-0.00105469 -0.00157953 -0.00165281)
(-0.000941231 -0.00170536 -0.00216059)
(-0.000191538 -0.0017793 -0.0023632)
(-0.00127056 -0.000912522 -0.000814403)
(-0.00157935 -0.00105485 -0.00165284)
(-0.0011401 -0.00114026 -0.00201391)
(-0.00101817 -0.00123971 -0.00257532)
(-0.000218231 -0.00130441 -0.0028309)
(-0.00134829 -0.000818636 -0.00124596)
(-0.00170519 -0.00094143 -0.00216068)
(-0.00123955 -0.00101837 -0.00257539)
(-0.00110539 -0.00110559 -0.00319323)
(-0.000256121 -0.00116586 -0.0034929)
(-0.00139666 -0.000144535 -0.00139982)
(-0.00177913 -0.000191707 -0.00236334)
(-0.00130425 -0.000218403 -0.00283102)
(-0.00116566 -0.000256293 -0.00349295)
(-0.000278385 -0.00027856 -0.00384516)
(-0.0014944 -0.00149456 0.00121304)
(-0.00186148 -0.00165051 0.000291321)
(-0.00131653 -0.00174342 -2.75128e-05)
(-0.00116693 -0.00186588 -0.000660002)
(-0.000255043 -0.00193536 -0.000878224)
(-0.00165035 -0.00186174 0.000291248)
(-0.00210303 -0.00210328 -0.000785389)
(-0.0015258 -0.00227637 -0.00125812)
(-0.00135334 -0.0024696 -0.00198612)
(-0.000322983 -0.00260516 -0.00232986)
(-0.00174325 -0.00131676 -2.76345e-05)
(-0.00227611 -0.00152602 -0.00125817)
(-0.00168277 -0.001683 -0.00183779)
(-0.00149566 -0.00184473 -0.00269924)
(-0.000390904 -0.00197146 -0.00313934)
(-0.00186571 -0.00116721 -0.000660169)
(-0.00246935 -0.00135361 -0.00198622)
(-0.00184451 -0.00149594 -0.0026993)
(-0.00164181 -0.00164208 -0.00363113)
(-0.000449961 -0.0017655 -0.00419704)
(-0.00193518 -0.000255264 -0.000878472)
(-0.0026049 -0.000323207 -0.00233002)
(-0.00197122 -0.000391132 -0.00313947)
(-0.00176521 -0.000450189 -0.00419711)
(-0.000514538 -0.00051477 -0.0048639)
(-0.00202393 -0.00202411 0.000685192)
(-0.00253103 -0.00230812 -0.000483607)
(-0.00186358 -0.00253433 -0.00105479)
(-0.00166909 -0.00271108 -0.00184927)
(-0.000363339 -0.00288796 -0.00225459)
(-0.00230794 -0.00253133 -0.000483738)
(-0.00302706 -0.00302735 -0.00191001)
(-0.00225533 -0.00339014 -0.00267373)
(-0.00201296 -0.00374503 -0.00366078)
(-0.000535855 -0.00404091 -0.00423772)
(-0.00253414 -0.00186384 -0.001055)
(-0.00338984 -0.00225558 -0.00267377)
(-0.00258108 -0.00258135 -0.00367308)
(-0.00231974 -0.00288466 -0.00484967)
(-0.000659074 -0.00317153 -0.00566803)
(-0.00271089 -0.00166942 -0.00184956)
(-0.00374474 -0.00201328 -0.00366092)
(-0.0028844 -0.00232007 -0.00484979)
(-0.00260316 -0.00260348 -0.00619122)
(-0.000822452 -0.00289045 -0.00720142)
(-0.00288776 -0.000363595 -0.00225501)
(-0.00404061 -0.000536114 -0.00423794)
(-0.00317127 -0.000659343 -0.00566823)
(-0.00289012 -0.000822719 -0.00720147)
(-0.000945869 -0.000946147 -0.0085234)
(-0.00269645 -0.00269675 0.00271886)
(-0.00360174 -0.00311893 0.00105976)
(-0.00268221 -0.00340998 0.000333319)
(-0.00236686 -0.0037312 -0.000868568)
(-0.000661032 -0.00397717 -0.00144323)
(-0.00311863 -0.00360221 0.00105966)
(-0.00429351 -0.00429395 -0.000838637)
(-0.00327651 -0.00489529 -0.00205902)
(-0.00291736 -0.00547067 -0.00344599)
(-0.00090117 -0.00601933 -0.00448531)
(-0.00340964 -0.0026826 0.000333115)
(-0.00489481 -0.00327688 -0.00205909)
(-0.00385865 -0.00385905 -0.00369099)
(-0.00349069 -0.00437518 -0.005572)
(-0.00121077 -0.00493524 -0.00706168)
(-0.00373088 -0.00236734 -0.000868832)
(-0.00547025 -0.0029178 -0.00344613)
(-0.0043748 -0.00349117 -0.00557209)
(-0.00399356 -0.003994 -0.00762095)
(-0.00146226 -0.00462106 -0.00971062)
(-0.00397678 -0.000661376 -0.00144364)
(-0.00601885 -0.00090151 -0.00448556)
(-0.00493483 -0.00121112 -0.00706189)
(-0.00462058 -0.0014626 -0.00971071)
(-0.0018389 -0.00183925 -0.012414)
(-0.00372733 -0.00372762 0.00226981)
(-0.0049173 -0.00426108 0.000388803)
(-0.00379168 -0.00499386 -0.000840166)
(-0.00344545 -0.00536434 -0.00225297)
(-0.000939823 -0.00601723 -0.00328736)
(-0.00426079 -0.00491781 0.000388566)
(-0.00614637 -0.00614683 -0.00201132)
(-0.0048625 -0.00741522 -0.00383902)
(-0.0044392 -0.00844936 -0.00570832)
(-0.00157653 -0.00966054 -0.00734515)
(-0.00499353 -0.0037921 -0.000840567)
(-0.00741472 -0.0048629 -0.00383908)
(-0.00609376 -0.00609418 -0.00651323)
(-0.0056904 -0.00705944 -0.00905381)
(-0.00215056 -0.00839674 -0.0117952)
(-0.00536403 -0.00344597 -0.00225348)
(-0.0084489 -0.0044397 -0.00570854)
(-0.00705905 -0.00569094 -0.00905404)
(-0.00674161 -0.00674211 -0.012117)
(-0.00291296 -0.00824279 -0.0157688)
(-0.00601687 -0.000940226 -0.00328814)
(-0.00966005 -0.00157693 -0.00734545)
(-0.00839633 -0.00215099 -0.0117955)
(-0.00824225 -0.00291338 -0.0157688)
(-0.00365111 -0.00365159 -0.0214578)
(-0.00463433 -0.00463487 0.00587754)
(-0.0067119 -0.00559508 0.00329601)
(-0.00532388 -0.00650359 0.00171076)
(-0.00481433 -0.00729716 -0.000371517)
(-0.0016972 -0.00816256 -0.00186837)
(-0.00559455 -0.00671277 0.00329584)
(-0.00852182 -0.00852255 0.000363313)
(-0.00697344 -0.0105696 -0.00257449)
(-0.00642352 -0.0122731 -0.00503642)
(-0.00254173 -0.0145289 -0.00815724)
(-0.0065029 -0.00532454 0.00171044)
(-0.0105687 -0.00697404 -0.00257459)
(-0.00907371 -0.00907439 -0.00696021)
(-0.00877293 -0.0107845 -0.0111683)
(-0.00395723 -0.0133604 -0.0163364)
(-0.00729655 -0.00481519 -0.00037192)
(-0.0122724 -0.00642421 -0.00503663)
(-0.0107839 -0.00877376 -0.0111684)
(-0.0107087 -0.0107093 -0.01581)
(-0.00512255 -0.0142847 -0.0240654)
(-0.0081617 -0.00169772 -0.00186904)
(-0.014528 -0.00254222 -0.0081576)
(-0.0133597 -0.00395772 -0.0163367)
(-0.0142839 -0.00512302 -0.0240656)
(-0.00753932 -0.00753972 -0.0362643)
(-0.00638175 -0.00638222 0.00614046)
(-0.00908563 -0.00728635 0.00365302)
(-0.00745916 -0.00940775 0.00132065)
(-0.00702446 -0.0101794 -0.000888192)
(-0.00244046 -0.0124988 -0.00334016)
(-0.00728588 -0.00908644 0.00365263)
(-0.0120178 -0.0120186 0.000251033)
(-0.010262 -0.0160874 -0.00356529)
(-0.0100215 -0.0192469 -0.00686538)
(-0.00470016 -0.0241297 -0.0112524)
(-0.00940719 -0.00745981 0.00131993)
(-0.0160866 -0.0102626 -0.00356532)
(-0.0146871 -0.0146878 -0.0100715)
(-0.0150655 -0.0178337 -0.0156327)
(-0.00732341 -0.0243071 -0.0248476)
(-0.0101789 -0.00702534 -0.000888995)
(-0.0192462 -0.0100223 -0.0068657)
(-0.0178331 -0.0150664 -0.0156331)
(-0.0196366 -0.0196374 -0.0230792)
(-0.011173 -0.028167 -0.0369326)
(-0.0124981 -0.0024411 -0.00334162)
(-0.0241289 -0.00470078 -0.0112527)
(-0.0243065 -0.00732419 -0.0248482)
(-0.0281661 -0.0111737 -0.0369322)
(-0.0158711 -0.0158721 -0.0647689)
(-0.00720491 -0.00720584 0.0122643)
(-0.0115314 -0.00911665 0.00951373)
(-0.00986427 -0.0115575 0.00685771)
(-0.0094743 -0.0134879 0.0038955)
(-0.00415298 -0.0163471 0.000640869)
(-0.00911572 -0.011533 0.00951349)
(-0.0157401 -0.0157412 0.0061976)
(-0.0140905 -0.0219632 0.000636189)
(-0.0141104 -0.0270199 -0.00303051)
(-0.00694053 -0.0360386 -0.0113342)
(-0.0115561 -0.00986535 0.00685719)
(-0.0219616 -0.0140914 0.000636067)
(-0.0211438 -0.021145 -0.00919578)
(-0.0235475 -0.0270045 -0.0185158)
(-0.0131923 -0.0390518 -0.0355429)
(-0.0134868 -0.00947589 0.00389495)
(-0.0270188 -0.0141113 -0.00303077)
(-0.0270036 -0.0235491 -0.0185159)
(-0.0319995 -0.0320001 -0.0294684)
(-0.0190397 -0.0541914 -0.0646707)
(-0.016345 -0.00415377 0.000639774)
(-0.0360369 -0.00694116 -0.0113346)
(-0.0390504 -0.0131928 -0.0355436)
(-0.0541899 -0.0190402 -0.0646715)
(-0.0355035 -0.0355031 -0.1309)
(-0.00922388 -0.0092246 0.0146404)
(-0.014494 -0.0107287 0.0126045)
(-0.0130784 -0.0158403 0.00980962)
(-0.0132422 -0.0173613 0.00712884)
(-0.00570408 -0.0248813 0.0030253)
(-0.010728 -0.0144953 0.0126039)
(-0.020897 -0.020898 0.00979508)
(-0.0194919 -0.0321417 0.00436494)
(-0.0219883 -0.0416547 6.41926e-05)
(-0.0130153 -0.0603049 -0.00868767)
(-0.0158393 -0.0130794 0.00980848)
(-0.0321404 -0.0194927 0.00436507)
(-0.0338412 -0.033842 -0.00692348)
(-0.0413936 -0.0442708 -0.0176479)
(-0.024391 -0.0776582 -0.042871)
(-0.0173605 -0.0132437 0.00712774)
(-0.0416535 -0.0219894 6.38153e-05)
(-0.04427 -0.0413953 -0.0176487)
(-0.0657542 -0.0657559 -0.0360754)
(-0.046528 -0.123382 -0.0866663)
(-0.02488 -0.00570518 0.00302279)
(-0.0603037 -0.0130162 -0.00868729)
(-0.077658 -0.0243928 -0.0428725)
(-0.12338 -0.04653 -0.0866631)
(-0.0830561 -0.0830601 -0.214439)
(-0.00932373 -0.00932522 0.0237084)
(-0.0163634 -0.0120625 0.0239252)
(-0.0153411 -0.0172315 0.0223993)
(-0.0162554 -0.0208801 0.0211823)
(-0.00826352 -0.0285535 0.0173549)
(-0.012061 -0.0163662 0.0239249)
(-0.0239789 -0.0239804 0.0235449)
(-0.0238246 -0.0386939 0.0191674)
(-0.0271489 -0.0517914 0.0167316)
(-0.0157345 -0.0818969 0.00484839)
(-0.0172289 -0.0153428 0.0223986)
(-0.0386911 -0.0238259 0.0191673)
(-0.0431666 -0.0431684 0.00798554)
(-0.0594444 -0.0631529 -0.00592934)
(-0.0385788 -0.116485 -0.0450411)
(-0.0208782 -0.0162584 0.0211816)
(-0.05179 -0.0271496 0.0167314)
(-0.0631516 -0.0594474 -0.00592883)
(-0.100718 -0.100717 -0.0270163)
(-0.0717959 -0.249921 -0.177757)
(-0.0285485 -0.00826469 0.0173532)
(-0.0818942 -0.0157351 0.0048487)
(-0.116481 -0.0385788 -0.0450427)
(-0.249914 -0.0717949 -0.177763)
(-0.170434 -0.170425 -0.492759)
(-0.00903385 -0.00903489 0.0288738)
(-0.0158011 -0.0111765 0.0302558)
(-0.0158214 -0.0192567 0.0315758)
(-0.0182822 -0.0220662 0.0314135)
(-0.00955396 -0.0379937 0.0326899)
(-0.0111754 -0.0158032 0.0302552)
(-0.0256502 -0.0256516 0.0334793)
(-0.0263049 -0.046548 0.034241)
(-0.0362609 -0.0687419 0.0366336)
(-0.0250191 -0.122081 0.0398888)
(-0.019255 -0.0158227 0.0315746)
(-0.0465459 -0.026306 0.0342413)
(-0.0589425 -0.0589429 0.0353888)
(-0.0941582 -0.0868759 0.0305448)
(-0.0643566 -0.200509 0.0318987)
(-0.022065 -0.0182847 0.0314126)
(-0.0687396 -0.0362617 0.036633)
(-0.0868747 -0.0941614 0.030545)
(-0.212329 -0.212338 -0.00879389)
(-0.18434 -0.394392 -0.0528234)
(-0.0379903 -0.00955585 0.0326865)
(-0.12208 -0.0250202 0.0398906)