/*--------------------------------*- C++ -*----------------------------------*\
| =========                 |                                                 |
| \\      /  F ield         | OpenFOAM: The Open Source CFD Toolbox           |
|  \\    /   O peration     | Version:  5.x                                   |
|   \\  /    A nd           | Web:      www.OpenFOAM.org                      |
|    \\/     M anipulation  |                                                 |
\*---------------------------------------------------------------------------*/
FoamFile
{
    version     2.0;
    format      ascii;
    class       volVectorField;
    location    "0.066";
    object      U;
}
// * * * * * * * * * * * * * * * * * * * * * * * * * * * * * * * * * * * * * //

dimensions      [0 1 -1 0 0 0 0];

internalField   nonuniform List<vector> 
1560
(
(-2.28239e-06 -2.32244e-06 0.0181326)
(9.61457e-06 -2.43341e-06 0.0181313)
(1.04845e-05 -2.55571e-06 0.0181361)
(1.8981e-05 -2.61927e-06 0.0181355)
(1.9275e-05 -2.72484e-06 0.0181504)
(-2.39362e-06 9.57435e-06 0.0181313)
(9.49984e-06 9.45964e-06 0.01813)
(1.03972e-05 9.28391e-06 0.0181348)
(1.88969e-05 9.21254e-06 0.0181343)
(1.92173e-05 9.00483e-06 0.0181491)
(-2.51604e-06 1.04413e-05 0.0181361)
(9.32413e-06 1.0354e-05 0.0181348)
(1.02374e-05 1.01942e-05 0.0181396)
(1.87018e-05 1.01328e-05 0.018139)
(1.90632e-05 9.93024e-06 0.0181538)
(-2.57975e-06 1.89343e-05 0.0181355)
(9.25275e-06 1.88501e-05 0.0181343)
(1.0176e-05 1.86549e-05 0.018139)
(1.86329e-05 1.85859e-05 0.0181385)
(1.90104e-05 1.83201e-05 0.0181532)
(-2.68562e-06 1.92261e-05 0.0181504)
(9.04488e-06 1.91683e-05 0.0181491)
(9.97333e-06 1.90142e-05 0.0181537)
(1.8367e-05 1.89613e-05 0.0181532)
(1.87907e-05 1.87416e-05 0.0181677)
(-1.0011e-06 -1.01115e-06 -0.00793475)
(2.54573e-06 -1.03267e-06 -0.0079344)
(3.30521e-06 -1.06871e-06 -0.00793409)
(3.69199e-06 -1.10588e-06 -0.00793352)
(3.16381e-06 -1.15429e-06 -0.00793451)
(-1.02219e-06 2.53712e-06 -0.0079344)
(2.49789e-06 2.48907e-06 -0.00793406)
(3.2565e-06 2.40794e-06 -0.00793376)
(3.6425e-06 2.35998e-06 -0.0079332)
(3.13419e-06 2.26466e-06 -0.00793421)
(-1.05843e-06 3.30085e-06 -0.00793408)
(2.41656e-06 3.25191e-06 -0.00793376)
(3.17612e-06 3.17164e-06 -0.00793351)
(3.54864e-06 3.12651e-06 -0.00793297)
(3.06623e-06 3.03554e-06 -0.00793402)
(-1.09538e-06 3.69297e-06 -0.00793352)
(2.36868e-06 3.64336e-06 -0.0079332)
(3.1311e-06 3.54958e-06 -0.00793297)
(3.50634e-06 3.50723e-06 -0.00793244)
(3.0406e-06 3.4043e-06 -0.00793351)
(-1.14392e-06 3.1681e-06 -0.0079345)
(2.27323e-06 3.13836e-06 -0.0079342)
(3.04005e-06 3.07039e-06 -0.00793401)
(3.40336e-06 3.0447e-06 -0.0079335)
(2.9596e-06 2.96371e-06 -0.0079346)
(-1.86235e-06 -1.90088e-06 0.0132216)
(1.05529e-05 -2.02899e-06 0.0132216)
(1.16843e-05 -2.20277e-06 0.013229)
(1.89986e-05 -2.28804e-06 0.0132296)
(1.8701e-05 -2.4367e-06 0.0132428)
(-1.99053e-06 1.05149e-05 0.0132216)
(1.04102e-05 1.03722e-05 0.0132216)
(1.15701e-05 1.01309e-05 0.0132289)
(1.8888e-05 1.00321e-05 0.0132295)
(1.8626e-05 9.75735e-06 0.0132427)
(-2.16445e-06 1.16458e-05 0.013229)
(1.01688e-05 1.15316e-05 0.0132289)
(1.13441e-05 1.13056e-05 0.0132361)
(1.8625e-05 1.12178e-05 0.0132367)
(1.84197e-05 1.09496e-05 0.0132497)
(-2.24978e-06 1.89605e-05 0.0132296)
(1.007e-05 1.88497e-05 0.0132295)
(1.12563e-05 1.85866e-05 0.0132367)
(1.85319e-05 1.84935e-05 0.0132372)
(1.83508e-05 1.81586e-05 0.0132503)
(-2.39875e-06 1.86627e-05 0.0132428)
(9.79514e-06 1.85875e-05 0.0132427)
(1.0988e-05 1.83812e-05 0.0132497)
(1.8197e-05 1.83123e-05 0.0132502)
(1.80751e-05 1.80365e-05 0.013263)
(-1.57557e-06 -1.59154e-06 -0.00358589)
(9.89019e-06 -1.65359e-06 -0.00358546)
(1.12525e-05 -1.74606e-06 -0.00357912)
(1.75476e-05 -1.80804e-06 -0.00357792)
(1.69101e-05 -1.91842e-06 -0.00356809)
(-1.6373e-06 9.8754e-06 -0.00358546)
(9.78062e-06 9.76557e-06 -0.00358506)
(1.11589e-05 9.55304e-06 -0.00357877)
(1.74452e-05 9.45952e-06 -0.00357759)
(1.68397e-05 9.17707e-06 -0.00356781)
(-1.73014e-06 1.12392e-05 -0.00357912)
(9.56783e-06 1.11453e-05 -0.00357877)
(1.09464e-05 1.0933e-05 -0.00357263)
(1.71714e-05 1.08454e-05 -0.0035715)
(1.66199e-05 1.05609e-05 -0.00356193)
(-1.79198e-06 1.75363e-05 -0.00357791)
(9.47444e-06 1.74337e-05 -0.00357758)
(1.08589e-05 1.716e-05 -0.0035715)
(1.70729e-05 1.70614e-05 -0.00357039)
(1.65465e-05 1.66878e-05 -0.00356089)
(-1.90275e-06 1.68998e-05 -0.00356808)
(9.1917e-06 1.68291e-05 -0.00356781)
(1.05743e-05 1.66092e-05 -0.00356193)
(1.66992e-05 1.65357e-05 -0.00356088)
(1.62336e-05 1.62228e-05 -0.00355165)
(-1.75839e-06 -1.79532e-06 0.00981152)
(1.73322e-05 -1.97113e-06 0.00981217)
(1.92357e-05 -2.24324e-06 0.00982484)
(3.00545e-05 -2.37117e-06 0.00982669)
(2.90116e-05 -2.62075e-06 0.00984716)
(-1.93409e-06 1.72965e-05 0.00981218)
(1.7108e-05 1.70721e-05 0.00981277)
(1.90517e-05 1.66285e-05 0.00982535)
(2.9867e-05 1.64568e-05 0.00982717)
(2.888e-05 1.59202e-05 0.00984754)
(-2.20661e-06 1.92003e-05 0.00982483)
(1.66641e-05 1.90161e-05 0.00982534)
(1.86203e-05 1.85848e-05 0.00983769)
(2.9346e-05 1.84267e-05 0.00983942)
(2.84597e-05 1.78884e-05 0.00985946)
(-2.3345e-06 3.00205e-05 0.00982669)
(1.64925e-05 2.98328e-05 0.00982716)
(1.84623e-05 2.93117e-05 0.00983942)
(2.91704e-05 2.91359e-05 0.00984112)
(2.83253e-05 2.84456e-05 0.00986105)
(-2.58469e-06 2.89778e-05 0.00984714)
(1.59555e-05 2.88459e-05 0.00984753)
(1.79238e-05 2.84255e-05 0.00985945)
(2.84799e-05 2.82909e-05 0.00986104)
(2.77467e-05 2.77123e-05 0.00988047)
(-1.61854e-06 -1.64142e-06 -0.0009009)
(2.31951e-05 -1.80103e-06 -0.000899833)
(2.57598e-05 -2.04733e-06 -0.000884248)
(3.98607e-05 -2.1807e-06 -0.000881421)
(3.82219e-05 -2.44164e-06 -0.00085668)
(-1.77775e-06 2.31738e-05 -0.000899833)
(2.29462e-05 2.29246e-05 -0.000898826)
(2.55482e-05 2.23881e-05 -0.000883349)
(3.96314e-05 2.21728e-05 -0.000880568)
(3.80586e-05 2.1468e-05 -0.000855957)
(-2.02475e-06 2.57392e-05 -0.000884248)
(2.24094e-05 2.55272e-05 -0.000883348)
(2.5008e-05 2.49872e-05 -0.000868242)
(3.89402e-05 2.47805e-05 -0.00086559)
(3.7495e-05 2.40563e-05 -0.000841507)
(-2.15793e-06 3.98417e-05 -0.00088142)
(2.21943e-05 3.9612e-05 -0.000880567)
(2.48016e-05 3.89209e-05 -0.00086559)
(3.87001e-05 3.86805e-05 -0.000862986)
(3.731e-05 3.77207e-05 -0.000839074)
(-2.41974e-06 3.82026e-05 -0.000856677)
(2.14889e-05 3.80389e-05 -0.000855955)
(2.40769e-05 3.74751e-05 -0.000841505)
(3.774e-05 3.72898e-05 -0.000839073)
(3.65001e-05 3.648e-05 -0.000815904)
(-1.40189e-06 -1.43925e-06 0.00755345)
(3.39951e-05 -1.71988e-06 0.00755516)
(3.76611e-05 -2.18895e-06 0.00757956)
(5.76607e-05 -2.40693e-06 0.00758384)
(5.48743e-05 -2.8725e-06 0.00762253)
(-1.6821e-06 3.39601e-05 0.00755516)
(3.36042e-05 3.35686e-05 0.00755679)
(3.73233e-05 3.2646e-05 0.007581)
(5.72961e-05 3.22989e-05 0.00758519)
(5.46083e-05 3.11039e-05 0.00762366)
(-2.15216e-06 3.76266e-05 0.00757956)
(3.2681e-05 3.72883e-05 0.00758099)
(3.63913e-05 3.63566e-05 0.00760462)
(5.6118e-05 3.60206e-05 0.0076086)
(5.36409e-05 3.47836e-05 0.00764626)
(-2.36999e-06 5.76285e-05 0.00758383)
(3.23341e-05 5.72633e-05 0.00758519)
(3.60556e-05 5.60851e-05 0.0076086)
(5.57225e-05 5.56893e-05 0.00761248)
(5.33295e-05 5.40586e-05 0.00764985)
(-2.83686e-06 5.4842e-05 0.00762252)
(3.11382e-05 5.45754e-05 0.00762365)
(3.4818e-05 5.36077e-05 0.00764626)
(5.40915e-05 5.32959e-05 0.00764985)
(5.19528e-05 5.19193e-05 0.00768602)
(-8.52501e-07 -8.82277e-07 0.000793954)
(4.92962e-05 -1.2192e-06 0.000796819)
(5.44204e-05 -1.78382e-06 0.000829663)
(8.28393e-05 -2.06177e-06 0.000836414)
(7.85829e-05 -2.66401e-06 0.000888397)
(-1.18869e-06 4.92695e-05 0.000796818)
(4.87666e-05 4.87389e-05 0.000799561)
(5.39403e-05 4.74377e-05 0.000832151)
(8.23045e-05 4.69219e-05 0.000838775)
(7.81869e-05 4.51865e-05 0.00089043)
(-1.75475e-06 5.43945e-05 0.000829663)
(4.74644e-05 5.39134e-05 0.000832151)
(5.26035e-05 5.25771e-05 0.000863858)
(8.05872e-05 5.20603e-05 0.000870134)
(7.67882e-05 5.02356e-05 0.000920505)
(-2.03239e-06 8.28156e-05 0.000836413)
(4.69491e-05 8.22799e-05 0.000838775)
(5.20872e-05 8.05627e-05 0.000870134)
(7.9962e-05 7.9937e-05 0.00087626)
(7.62966e-05 7.7513e-05 0.000926155)
(-2.63646e-06 7.85586e-05 0.000888397)
(4.52125e-05 7.81616e-05 0.00089043)
(5.02616e-05 7.67626e-05 0.000920506)
(7.75374e-05 7.62705e-05 0.000926155)
(7.42727e-05 7.42466e-05 0.000974178)
(3.17177e-07 2.77277e-07 0.0060081)
(6.97186e-05 -2.44647e-07 0.00601257)
(7.7271e-05 -1.13256e-06 0.00606134)
(0.000116455 -1.56225e-06 0.00607128)
(0.000109165 -2.51535e-06 0.00614815)
(-2.03716e-07 6.96831e-05 0.00601257)
(6.89507e-05 6.89141e-05 0.00601685)
(7.65529e-05 6.68538e-05 0.00606512)
(0.000115636 6.60322e-05 0.00607487)
(0.00010856 6.3225e-05 0.0061511)
(-1.09385e-06 7.72367e-05 0.00606133)
(6.68893e-05 7.65174e-05 0.00606511)
(7.43892e-05 7.43543e-05 0.00611196)
(0.000112825 7.35198e-05 0.00612111)
(0.00010626 7.05226e-05 0.00619533)
(-1.52311e-06 0.000116424 0.00607127)
(6.60683e-05 0.000115603 0.00607486)
(7.35553e-05 0.000112792 0.00612111)
(0.000111802 0.000111769 0.00613001)
(0.000105454 0.000107758 0.00620336)
(-2.47906e-06 0.000109134 0.00614814)
(6.32592e-05 0.000108528 0.00615109)
(7.05567e-05 0.000106227 0.00619533)
(0.000107791 0.00010542 0.00620335)
(0.000102099 0.000102066 0.00627374)
(2.25737e-06 2.22055e-06 0.00176134)
(0.000102519 1.5115e-06 0.00176922)
(0.000113109 2.28537e-07 0.00183662)
(0.00016968 -3.57241e-07 0.00185335)
(0.000158798 -1.79719e-06 0.00195931)
(1.54983e-06 0.000102488 0.00176922)
(0.000101298 0.000101265 0.00177677)
(0.000111937 9.80483e-05 0.0018435)
(0.000168318 9.67372e-05 0.0018598)
(0.00015775 9.23572e-05 0.00196486)
(2.63823e-07 0.00011308 0.00183662)
(9.80793e-05 0.000111906 0.0018435)
(0.000108581 0.000108551 0.00190809)
(0.000163986 0.000107186 0.00192331)
(0.000154263 0.000102479 0.00202529)
(-3.21321e-07 0.000169655 0.00185335)
(9.67691e-05 0.000168291 0.0018598)
(0.000107217 0.000163959 0.00192331)
(0.000162243 0.000162215 0.00193799)
(0.000152869 0.000155981 0.00203852)
(-1.76511e-06 0.000158773 0.00195931)
(9.23864e-05 0.000157723 0.00196486)
(0.000102508 0.000154235 0.00202529)
(0.000156008 0.00015284 0.00203852)
(0.000147789 0.00014776 0.00213448)
(6.49192e-06 6.44648e-06 0.00488461)
(0.000145024 5.33454e-06 0.00489653)
(0.00016142 3.47463e-06 0.00499479)
(0.000239243 2.45347e-06 0.00501869)
(0.000219771 3.03366e-07 0.00517346)
(5.38206e-06 0.000144987 0.00489652)
(0.00014325 0.000143211 0.00490796)
(0.000159603 0.000138341 0.00500484)
(0.000237094 0.000136008 0.00502829)
(0.00021824 0.000129222 0.00518113)
(3.51753e-06 0.000161387 0.00499479)
(0.000138378 0.000159566 0.00500485)
(0.000154218 0.000154183 0.00509825)
(0.00023012 0.000151727 0.00512008)
(0.000212733 0.000144206 0.00526777)
(2.49725e-06 0.000239214 0.00501868)
(0.000136046 0.000237062 0.00502829)
(0.000151764 0.000230089 0.00512007)
(0.000227113 0.00022708 0.00514118)
(0.000210432 0.00021701 0.00528622)
(3.41192e-07 0.000219745 0.00517346)
(0.000129257 0.00021821 0.00518114)
(0.00014424 0.000212702 0.00526777)
(0.000217041 0.000210399 0.00528622)
(0.000202272 0.000202239 0.00542371)
(1.21841e-05 1.21388e-05 0.00209024)
(0.000212685 1.0619e-05 0.00211301)
(0.00023525 7.56107e-06 0.00225221)
(0.000348432 6.32305e-06 0.00229591)
(0.000320349 2.60081e-06 0.00251131)
(1.06673e-05 0.000212651 0.002113)
(0.000209603 0.000209565 0.00213461)
(0.000232245 0.000201488 0.00227165)
(0.000344693 0.000198107 0.00231357)
(0.000317319 0.00018665 0.00252627)
(7.60313e-06 0.000235222 0.00225221)
(0.000201523 0.000232213 0.00227166)
(0.000223792 0.000223762 0.00240289)
(0.000333587 0.000220062 0.00244108)
(0.000308481 0.000207548 0.00264641)
(6.36648e-06 0.00034841 0.0022959)
(0.000198143 0.000344666 0.00231357)
(0.000220094 0.00033356 0.00244107)
(0.000328471 0.000328442 0.00247722)
(0.000304342 0.000312044 0.00267782)
(2.63622e-06 0.000320331 0.0025113)
(0.00018668 0.000317296 0.00252627)
(0.000207577 0.000308457 0.00264641)
(0.000312071 0.000304316 0.00267783)
(0.000291447 0.000291421 0.00286744)
(2.67416e-05 2.66841e-05 0.00390184)
(0.000307025 2.39654e-05 0.00393485)
(0.000344343 1.93756e-05 0.00413249)
(0.000498532 1.6283e-05 0.00419304)
(0.000444574 1.08504e-05 0.00450736)
(2.40268e-05 0.000306983 0.00393482)
(0.000301922 0.000301876 0.00396629)
(0.000338582 0.000289038 0.00416003)
(0.000491905 0.000281191 0.00421952)
(0.000440254 0.000264343 0.00452756)
(1.94276e-05 0.00034431 0.00413248)
(0.00028908 0.000338545 0.00416004)
(0.000323658 0.000323622 0.00434624)
(0.000473827 0.000315397 0.0044012)
(0.000427062 0.000295779 0.00469599)
(1.63365e-05 0.000498507 0.00419302)
(0.000281234 0.000491874 0.00421952)
(0.000315434 0.000473796 0.00440119)
(0.000464049 0.000464016 0.00445357)
(0.000419868 0.000438177 0.0047401)
(1.08919e-05 0.000444558 0.00450736)
(0.000264379 0.000440233 0.00452758)
(0.000295811 0.000427038 0.00469599)
(0.000438207 0.000419841 0.00474011)
(0.000400195 0.000400168 0.00500741)
(4.22228e-05 4.2165e-05 0.00169658)
(0.000443307 3.85951e-05 0.00176685)
(0.000493407 3.09019e-05 0.00206233)
(0.0007235 2.82871e-05 0.00217912)
(0.000648515 1.76894e-05 0.00261864)
(3.86591e-05 0.000443269 0.00176682)
(0.000434783 0.000434736 0.00183214)
(0.000485442 0.000415218 0.00211879)
(0.000712421 0.000406247 0.00222789)
(0.000639012 0.000375262 0.00265881)
(3.09538e-05 0.000493386 0.00206232)
(0.000415256 0.000485411 0.00211881)
(0.000464919 0.000464892 0.00238502)
(0.000683525 0.00045408 0.00248231)
(0.000616405 0.000420063 0.00289486)
(2.8342e-05 0.000723485 0.00217909)
(0.000406289 0.000712397 0.00222788)
(0.000454111 0.000683502 0.00248229)
(0.000667569 0.000667541 0.0025728)
(0.000603723 0.000623689 0.0029695)
(1.77276e-05 0.000648516 0.00261863)
(0.000375292 0.000639004 0.00265882)
(0.000420087 0.000616394 0.00289486)
(0.000623712 0.000603707 0.00296952)
(0.000570861 0.000570846 0.00333961)
(9.31971e-05 9.31118e-05 0.0026762)
(0.000672809 8.47397e-05 0.00276621)
(0.000756638 7.02188e-05 0.00315263)
(0.00105523 5.89536e-05 0.00332141)
(0.000903247 4.36775e-05 0.00396333)
(8.48315e-05 0.000672755 0.00276616)
(0.000653924 0.000653865 0.00285336)
(0.000734351 0.000611758 0.00323212)
(0.00103231 0.000584405 0.00339816)
(0.000890018 0.000540588 0.00401825)
(7.02909e-05 0.000756605 0.00315262)
(0.000611813 0.00073431 0.00323216)
(0.000687181 0.000687144 0.00360752)
(0.000984037 0.00066033 0.00375491)
(0.000857661 0.000606495 0.0043446)
(5.90282e-05 0.00105521 0.00332137)
(0.000584461 0.00103227 0.00339816)
(0.000660371 0.000984004 0.00375489)
(0.000951619 0.000951582 0.00389124)
(0.000834101 0.000883189 0.00445391)
(4.37286e-05 0.000903251 0.00396333)
(0.000540632 0.000890015 0.00401828)
(0.000606526 0.000857652 0.0043446)
(0.000883221 0.000834088 0.00445393)
(0.000786508 0.000786495 0.00497054)
(0.000128157 0.000128077 0.000213176)
(0.000919692 0.000120826 0.000429309)
(0.00104853 0.00010413 0.0010644)
(0.00153464 9.81142e-05 0.00135959)
(0.00131899 6.47872e-05 0.00227002)
(0.000120919 0.000919647 0.000429228)
(0.000900707 0.000900642 0.000623728)
(0.00103017 0.000870067 0.00122101)
(0.00149898 0.000839714 0.00149258)
(0.00128701 0.000756492 0.00237438)
(0.000104202 0.00104852 0.00106436)
(0.000870113 0.00103014 0.00122105)
(0.000987606 0.000987585 0.00174463)
(0.00142101 0.000947094 0.00199995)
(0.00123264 0.00085566 0.00282724)
(9.81931e-05 0.00153464 0.00135952)
(0.000839768 0.00149896 0.00149258)
(0.000947123 0.00142099 0.00199991)
(0.00136699 0.00136696 0.00223247)
(0.00119198 0.00125009 0.00300834)
(6.48303e-05 0.00131903 0.00226998)
(0.000756521 0.00128703 0.00237441)
(0.000855676 0.00123266 0.00282723)
(0.00125011 0.00119198 0.00300836)
(0.0011111 0.00111111 0.00371286)
(0.000302709 0.000302573 0.000160918)
(0.0015241 0.000271807 0.000530774)
(0.00168689 0.000216968 0.00142015)
(0.00226166 0.000182192 0.00198231)
(0.00185315 0.000135665 0.00327945)
(0.000271956 0.00152401 0.000530674)
(0.00144576 0.00144565 0.000860038)
(0.00160319 0.00129204 0.00170187)
(0.00218646 0.00122481 0.00221769)
(0.0018102 0.00109787 0.00344571)
(0.000217079 0.00168687 0.00142011)
(0.00129214 0.00160314 0.00170194)
(0.00146608 0.00146604 0.00251168)
(0.00206741 0.00140021 0.00291099)
(0.00172136 0.00124044 0.00408938)
(0.000182312 0.00226164 0.0019822)
(0.00122489 0.00218641 0.00221769)
(0.00140025 0.00206736 0.00291093)
(0.00196074 0.00196069 0.00328011)
(0.00164458 0.00176932 0.00436591)
(0.000135741 0.00185319 0.0032794)
(0.00109794 0.00181023 0.00344576)
(0.00124047 0.00172137 0.00408937)
(0.00176937 0.00164459 0.00436596)
(0.00152251 0.00152252 0.00536501)
(0.000492308 0.000492153 -0.00336828)
(0.00217907 0.000442594 -0.00269619)
(0.00249993 0.000374698 -0.00146427)
(0.00339493 0.00032059 -0.000502383)
(0.00267446 0.000214331 0.00135498)
(0.000442767 0.00217899 -0.00269632)
(0.00207199 0.00207188 -0.00211781)
(0.00238765 0.00196155 -0.000967599)
(0.00324375 0.00176834 -0.000106525)
(0.00257134 0.00156634 0.00163474)
(0.000374821 0.00249991 -0.00146434)
(0.00196163 0.00238761 -0.000967546)
(0.00219643 0.00219641 0.000144102)
(0.00299957 0.00200932 0.00090872)
(0.00246421 0.00177573 0.00251881)
(0.000320721 0.00339492 -0.000502547)
(0.00176844 0.00324371 -0.000106557)
(0.00200935 0.00299953 0.000908633)
(0.00282282 0.00282277 0.00152609)
(0.00232783 0.00252662 0.0029945)
(0.000214393 0.00267457 0.00135485)
(0.0015664 0.00257141 0.00163474)
(0.00177574 0.00246427 0.00251874)
(0.00252666 0.00232788 0.00299453)
(0.00215541 0.00215546 0.00427968)
(0.000969707 0.000969477 -0.00532948)
(0.00342827 0.000843481 -0.00397506)
(0.00388066 0.000702617 -0.00196813)
(0.00508275 0.000565489 -0.000356241)
(0.00379063 0.000398303 0.00231481)
(0.000843745 0.0034281 -0.0039753)
(0.00317464 0.00317446 -0.00285769)
(0.00361444 0.00290064 -0.00108966)
(0.00479053 0.00263608 0.000310294)
(0.00362787 0.00226179 0.00275257)
(0.000702814 0.0038806 -0.00196823)
(0.0029008 0.00361436 -0.00108955)
(0.00334232 0.00334224 0.000512909)
(0.00444365 0.00303273 0.00171797)
(0.00340323 0.00260006 0.00400053)
(0.0005657 0.00508267 -0.000356453)
(0.00263624 0.00479044 0.000310278)
(0.00303281 0.00444353 0.00171784)
(0.00404789 0.00404779 0.00268359)
(0.00317886 0.0035312 0.00464597)
(0.000398432 0.00379069 0.00231468)
(0.00226192 0.00362794 0.00275263)
(0.00260012 0.00340327 0.00400046)
(0.00353132 0.0031789 0.00464604)
(0.00286656 0.0028666 0.00647452)
(0.00183374 0.00183345 -0.0121008)
(0.00554052 0.00154581 -0.00964653)
(0.00611848 0.00123129 -0.00669785)
(0.00768037 0.000965569 -0.003811)
(0.00546325 0.000623625 -0.000124365)
(0.00154613 0.00554033 -0.00964677)
(0.00495768 0.00495745 -0.00766732)
(0.00555534 0.00444268 -0.005109)
(0.00708827 0.00384258 -0.0026687)
(0.00512465 0.00325198 0.000658322)
(0.00123151 0.00611848 -0.00669806)
(0.00444287 0.00555529 -0.00510894)
(0.00500362 0.00500358 -0.00276906)
(0.00648929 0.00438224 -0.000788043)
(0.00485137 0.0036688 0.00235021)
(0.000965803 0.00768033 -0.00381134)
(0.00384276 0.00708818 -0.00266878)
(0.00438229 0.00648918 -0.000788192)
(0.00575275 0.00575264 0.000781448)
(0.00438402 0.00500244 0.00344332)
(0.000623721 0.00546343 -0.000124813)
(0.0032521 0.00512481 0.000658224)
(0.00366881 0.00485149 0.00235002)
(0.00500255 0.00438414 0.00344333)
(0.00406994 0.00407005 0.00597682)
(0.00341226 0.00341193 -0.0208805)
(0.00883193 0.00281143 -0.0150935)
(0.00971637 0.00226666 -0.0100716)
(0.01166 0.00168333 -0.00477515)
(0.00764185 0.00114033 0.000716121)
(0.00281188 0.00883154 -0.0150941)
(0.00771277 0.00771241 -0.0108793)
(0.00861298 0.00682976 -0.00696776)
(0.0105613 0.00565915 -0.00267265)
(0.00710678 0.00473661 0.0020011)
(0.00226698 0.00971622 -0.0100718)
(0.00683015 0.00861283 -0.00696752)
(0.00766306 0.0076629 -0.00341138)
(0.00956609 0.00648254 -5.52236e-06)
(0.00668274 0.00538457 0.00436884)
(0.0016837 0.0116596 -0.00477562)
(0.0056595 0.010561 -0.00267269)
(0.0064827 0.00956578 -5.74439e-06)
(0.00828187 0.00828162 0.00245842)
(0.00596684 0.00715983 0.00607206)
(0.00114058 0.0076418 0.000715736)
(0.004737 0.00710682 0.00200114)
(0.00538473 0.00668273 0.00436865)
(0.00716014 0.00596688 0.00607211)
(0.00551416 0.00551421 0.009299)
(0.00760066 0.00760007 -0.0352074)
(0.0163495 0.0057324 -0.0257984)
(0.0164366 0.0042902 -0.0180287)
(0.0184729 0.00302409 -0.0093811)
(0.0112081 0.00184514 -0.00144155)
(0.005733 0.0163491 -0.0257987)
(0.0130836 0.013083 -0.0188369)
(0.0137612 0.0111025 -0.0129092)
(0.0160613 0.00861181 -0.00618571)
(0.0100255 0.00690464 0.000411275)
(0.00429064 0.0164368 -0.0180292)
(0.011103 0.0137611 -0.0129092)
(0.0119646 0.0119646 -0.0078079)
(0.0142737 0.00951223 -0.00251521)
(0.00943395 0.007739 0.00348128)
(0.00302453 0.0184727 -0.00938164)
(0.00861224 0.016061 -0.00618584)
(0.00951232 0.0142734 -0.00251543)
(0.011834 0.0118337 0.00114901)
(0.00817749 0.00993645 0.0058763)
(0.00184536 0.0112083 -0.00144256)
(0.00690496 0.0100257 0.00041097)
(0.00773902 0.00943411 0.00348077)
(0.00993674 0.00817765 0.00587621)
(0.00745445 0.00745461 0.00996268)
(0.0128094 0.0128093 -0.0740311)
(0.0260126 0.00977438 -0.0449816)
(0.0261389 0.00734102 -0.0300562)
(0.0282545 0.00484745 -0.0124677)
(0.0159465 0.00292552 -0.000555321)
(0.00977501 0.0260117 -0.0449835)
(0.0206024 0.0206017 -0.0275143)
(0.0212661 0.0170508 -0.0186259)
(0.0238878 0.0125246 -0.0059813)
(0.0140193 0.00965973 0.00277725)
(0.00734134 0.0261386 -0.0300568)
(0.0170516 0.0212658 -0.0186252)
(0.0180574 0.018057 -0.0105982)
(0.0208611 0.0138164 -0.00126801)
(0.0129649 0.0108482 0.00690487)
(0.00484805 0.0282537 -0.0124687)
(0.0125253 0.0238872 -0.00598136)
(0.0138166 0.0208602 -0.00126847)
(0.0166774 0.0166768 0.00483439)
(0.0109294 0.0136447 0.0104461)
(0.00292588 0.015946 -0.000556305)
(0.00966061 0.0140192 0.00277725)
(0.0108486 0.0129647 0.00690439)
(0.0136455 0.0109293 0.0104461)
(0.00979976 0.00979971 0.0155267)
(0.0367103 0.036709 -0.105534)
(0.0603083 0.0231421 -0.066593)
(0.0489615 0.0156116 -0.0415433)
(0.0479761 0.00941681 -0.0164103)
(0.0236742 0.00505663 -0.000175692)
(0.0231432 0.0603072 -0.0665935)
(0.039429 0.0394272 -0.0397186)
(0.0352966 0.0305545 -0.02493)
(0.0374676 0.0198081 -0.00775432)
(0.0192384 0.0143647 0.00414134)
(0.0156126 0.0489626 -0.0415443)
(0.0305556 0.0352965 -0.0249301)
(0.0293206 0.0293208 -0.0137188)
(0.0317827 0.0203263 -0.0012931)
(0.0180164 0.0154059 0.00894021)
(0.00941758 0.0479756 -0.016411)
(0.0198091 0.0374666 -0.00775447)
(0.0203264 0.031782 -0.00129333)
(0.023553 0.0235523 0.00627407)
(0.0141048 0.018565 0.0131185)
(0.00505717 0.0236744 -0.000178062)
(0.0143655 0.0192388 0.00414049)
(0.0154059 0.0180166 0.00893903)
(0.0185657 0.014105 0.0131181)
(0.0128068 0.012807 0.0188927)
(0.0521999 0.0522019 -0.285228)
(0.089891 0.0369031 -0.123319)
(0.0763747 0.0238599 -0.0708381)
(0.0696231 0.0135002 -0.0195605)
(0.0329842 0.00709931 0.00390964)
(0.0369032 0.0898891 -0.123326)
(0.0622221 0.0622209 -0.0530262)
(0.0532576 0.0448602 -0.0335179)
(0.052963 0.027638 -0.00237595)
(0.026539 0.0187728 0.0108485)
(0.0238592 0.0763741 -0.0708406)
(0.044862 0.0532571 -0.0335159)
(0.0417049 0.0417042 -0.0162635)
(0.0435273 0.0278483 0.0044771)
(0.0237369 0.0198212 0.0167016)
(0.0135011 0.0696209 -0.0195619)
(0.0276391 0.0529617 -0.00237597)
(0.0278488 0.0435253 0.00447633)
(0.031091 0.0310899 0.0159457)
(0.0181577 0.0236003 0.0224705)
(0.00709965 0.032982 0.00390713)
(0.0187748 0.0265382 0.0108486)
(0.019822 0.0237356 0.0167006)
(0.0236023 0.0181573 0.0224705)
(0.0158952 0.0158947 0.0284868)
(0.202133 0.202132 -0.365821)
(0.274926 0.0939126 -0.186173)
(0.152778 0.0528161 -0.0835406)
(0.122667 0.0264617 -0.0138209)
(0.0483305 0.0117392 0.0134018)
(0.0939147 0.274922 -0.186173)
(0.129013 0.129006 -0.0659874)
(0.0859595 0.0850372 -0.0297981)
(0.0818126 0.0438209 0.00600194)
(0.033288 0.0271537 0.0208279)
(0.0528181 0.152784 -0.0835409)
(0.0850407 0.0859594 -0.029798)
(0.0673317 0.0673332 -0.00732106)
(0.0647466 0.0386579 0.0144231)
(0.0309524 0.0270251 0.0266483)
(0.0264627 0.122666 -0.0138214)
(0.0438224 0.0818097 0.00600209)
(0.038658 0.0647449 0.0144229)
(0.041545 0.0415436 0.0251739)
(0.0210897 0.0303561 0.0311018)
(0.0117406 0.0483297 0.0133969)
(0.027156 0.0332885 0.0208262)
(0.0270251 0.0309523 0.026646)
(0.0303578 0.0210899 0.031101)
(0.0192255 0.0192257 0.0362776)
(0.263417 0.26346 -1.38608)
(0.531251 0.16629 -0.293305)
(0.249249 0.0777373 -0.0689172)
(0.166401 0.0335663 0.0128862)
(0.0618098 0.0141068 0.0386231)
(0.166282 0.531214 -0.293329)
(0.219212 0.21921 -0.0388476)
(0.125275 0.120818 -0.00429163)
(0.103557 0.0558183 0.0359562)
(0.0423706 0.0320019 0.0445822)
(0.077731 0.249248 -0.068933)
(0.12082 0.125275 -0.00428843)
(0.085987 0.0859863 0.0199832)
(0.077483 0.0470483 0.0400346)
(0.0367716 0.0300928 0.0482004)
(0.0335672 0.166394 0.0128913)
(0.0558198 0.103554 0.0359563)
(0.0470486 0.0774787 0.0400342)
(0.0477648 0.0477627 0.0491733)
(0.0245599 0.0332273 0.05079)
(0.0141067 0.0618032 0.0386167)
(0.0320066 0.0423679 0.0445817)
(0.0300946 0.0367683 0.0481985)
(0.0332316 0.0245587 0.0507898)
(0.021471 0.0214698 0.0528174)
(0.81036 0.810394 -4.71509)
(1.43775 0.337752 -0.57284)
(0.361336 0.11949 0.0826436)
(0.228553 0.0499544 0.0832918)
(0.0761074 0.017362 0.0750972)
(0.33768 1.43752 -0.572672)
(0.360898 0.360877 0.0481539)
(0.157764 0.172779 0.0806937)
(0.130542 0.0707124 0.0794568)
(0.0429482 0.0367098 0.0701022)
(0.119493 0.361289 0.0826205)
(0.172798 0.157763 0.0806923)
(0.111707 0.111711 0.0806925)
(0.092931 0.0518891 0.0729601)
(0.0399738 0.0332505 0.0692553)
(0.0499527 0.228561 0.0832921)
(0.0707084 0.130535 0.0794588)
(0.0518891 0.0929274 0.0729597)
(0.0522903 0.0522883 0.0695817)
(0.023143 0.0349747 0.0642863)
(0.0173655 0.0760949 0.0750874)
(0.0367167 0.042948 0.0700992)
(0.0332507 0.0399722 0.0692523)
(0.0349783 0.023143 0.0642854)
(0.0216271 0.0216271 0.0625225)
(0.0116485 0.0115332 -7.83185)
(2.24625 0.128169 -0.476206)
(0.204548 0.0749667 0.341358)
(0.148454 0.0305757 0.172741)
(0.0550322 0.00829788 0.137306)
(0.127353 2.24635 -0.475664)
(0.188092 0.188025 0.58703)
(0.100898 0.111454 0.227863)
(0.0913629 0.0450679 0.142115)
(0.0336747 0.0261557 0.117157)
(0.0749663 0.204524 0.341354)
(0.111482 0.100879 0.227859)
(0.0769009 0.0768981 0.176314)
(0.0659528 0.0371662 0.125872)
(0.0336303 0.0243032 0.105278)
(0.0305806 0.148462 0.172734)
(0.0450685 0.091358 0.142113)
(0.0371645 0.0659456 0.125871)
(0.0390705 0.0390671 0.103906)
(0.019459 0.0264976 0.0918425)
(0.00829927 0.055015 0.137302)
(0.0261674 0.0336669 0.117155)
(0.024307 0.0336244 0.105277)
(0.0265048 0.0194569 0.0918421)
(0.0198442 0.019842 0.0823994)
(-0.0304662 -0.0305766 -7.90034)
(-0.567556 -0.147176 -0.763495)
(0.0696388 0.0036712 0.306051)
(0.019752 0.0194976 0.162906)
(0.0410278 -0.00286983 0.133725)
(-0.147178 -0.56746 -0.763391)
(-0.0480782 -0.0480904 0.281245)
(0.0066514 0.00332731 0.215292)
(0.0223897 0.0244188 0.139152)
(0.0180438 0.00472304 0.114589)
(0.00368373 0.069629 0.306056)
(0.0033506 0.00664916 0.21529)
(0.0122662 0.0122652 0.174407)
(0.0222313 0.0139362 0.125336)
(0.0192677 0.00793979 0.103076)
(0.019501 0.0197599 0.162904)
(0.0244206 0.0223846 0.139148)
(0.0139386 0.0222263 0.125334)
(0.0183393 0.0183353 0.102853)
(0.0108573 0.0121402 0.0884479)
(-0.00286424 0.0410187 0.133725)
(0.00473228 0.0180435 0.114589)
(0.00794202 0.0192661 0.103076)
(0.0121452 0.0108568 0.0884481)
(0.0119672 0.0119667 0.0775891)
(0.112118 0.112113 -6.91422)
(-0.197568 -0.104507 -0.777675)
(0.0360743 -0.0241751 0.145227)
(-0.0233794 0.00665886 0.155484)
(0.0241298 -0.0106113 0.116845)
(-0.104534 -0.197517 -0.77764)
(-0.0333736 -0.0333737 0.0699967)
(0.000140233 -0.0232139 0.145982)
(-0.00571313 0.00854958 0.136141)
(0.00785031 -0.00450105 0.111599)
(-0.0241665 0.0360533 0.145215)
(-0.0231904 0.000136109 0.145964)
(-0.00977664 -0.00978341 0.140463)
(-0.00496727 0.00108365 0.124299)
(0.0102622 -0.00181501 0.105177)
(0.0066623 -0.0233745 0.155492)
(0.00855049 -0.0057162 0.136145)
(0.00108595 -0.00497442 0.1243)
(0.00237314 0.00236818 0.111309)
(0.00434764 0.00102863 0.0969538)
(-0.0106066 0.0241151 0.116839)
(-0.00448978 0.00784578 0.111595)
(-0.0018102 0.0102579 0.105175)
(0.00103578 0.00434565 0.0969527)
(0.00843776 0.00843577 0.0867169)
(-0.00564409 -0.00568454 -7.89862)
(1.17173 0.167232 -0.468487)
(-0.00503831 -0.0105343 0.194617)
(-0.0122496 -0.000444898 0.159442)
(-0.00120664 -0.00817906 0.0963446)
(0.167259 1.17151 -0.468504)
(0.0463528 0.0463489 0.272214)
(-0.0232576 -0.00768121 0.170388)
(-0.0105451 -0.00713255 0.134398)
(-0.00866576 -0.00704191 0.0903639)
(-0.010536 -0.00508534 0.194624)
(-0.00764564 -0.0232991 0.170388)
(-0.00808907 -0.00810707 0.130008)
(-0.0131904 -0.0110289 0.10834)
(-0.00165958 -0.00678066 0.0797945)
(-0.000438499 -0.0122349 0.159442)
(-0.00713699 -0.010536 0.134399)
(-0.0110305 -0.0131971 0.10834)
(-0.0089894 -0.00899281 0.0922185)
(-0.00458703 -0.00634172 0.0727497)
(-0.00817337 -0.00122984 0.0963478)
(-0.0070283 -0.00867419 0.0903632)
(-0.00677545 -0.00166453 0.0797953)
(-0.00633501 -0.00458861 0.0727495)
(0.000913089 0.000911507 0.0611413)
(0.00114204 0.00110767 -7.94598)
(-0.406483 -0.0244934 -0.837958)
(-0.212637 -0.0547794 0.271962)
(-0.129555 -0.019024 0.166084)
(-0.042338 -0.0159033 0.122538)
(-0.0244965 -0.406478 -0.837849)
(-0.220669 -0.220676 0.295857)
(-0.151634 -0.0947926 0.205958)
(-0.0864738 -0.042643 0.14075)
(-0.0387542 -0.0208576 0.110026)
(-0.0547707 -0.212658 0.271984)
(-0.0947756 -0.151648 0.205971)
(-0.0727544 -0.0727602 0.159099)
(-0.0552267 -0.0411515 0.123341)
(-0.0200282 -0.0193779 0.0988015)
(-0.0190188 -0.129554 0.166076)
(-0.0426412 -0.0864781 0.140746)
(-0.04115 -0.0552331 0.123341)
(-0.0333478 -0.0333523 0.105015)
(-0.0164432 -0.0176253 0.0891943)
(-0.0158984 -0.0423496 0.122545)
(-0.0208488 -0.0387604 0.110027)
(-0.0193726 -0.0200325 0.0988029)
(-0.017619 -0.0164455 0.0891937)
(-0.00394951 -0.00395175 0.07821)
(-0.60438 -0.604393 -5.90797)
(-0.613358 -0.289423 -0.245793)
(-0.247591 -0.0802903 0.0628207)
(-0.170361 -0.0258973 0.0393095)
(-0.048954 -0.0203425 0.0406278)
(-0.28942 -0.61336 -0.245788)