/*--------------------------------*- C++ -*----------------------------------*\
| =========                 |                                                 |
| \\      /  F ield         | OpenFOAM: The Open Source CFD Toolbox           |
|  \\    /   O peration     | Version:  5.x                                   |
|   \\  /    A nd           | Web:      www.OpenFOAM.org                      |
|    \\/     M anipulation  |                                                 |
\*---------------------------------------------------------------------------*/
FoamFile
{
    version     2.0;
    format      ascii;
    class       volScalarField;
    location    "0.024";
    object      phiIB;
}
// * * * * * * * * * * * * * * * * * * * * * * * * * * * * * * * * * * * * * //

dimensions      [0 2 -1 0 0 0 0];

internalField   nonuniform List<scalar> 
1567
(
6.43431e-06
6.43609e-06
6.4341e-06
6.43669e-06
6.4352e-06
6.4361e-06
6.44179e-06
6.43905e-06
6.44245e-06
6.44112e-06
6.4341e-06
6.43904e-06
6.43619e-06
6.43966e-06
6.43839e-06
6.4367e-06
6.44246e-06
6.43966e-06
6.44311e-06
6.44186e-06
6.43521e-06
6.44112e-06
6.43839e-06
6.44185e-06
6.44068e-06
1.50047e-05
1.50103e-05
1.50103e-05
1.5013e-05
1.50133e-05
1.50103e-05
1.50145e-05
1.50146e-05
1.50169e-05
1.50172e-05
1.50103e-05
1.50146e-05
1.50147e-05
1.5017e-05
1.50173e-05
1.5013e-05
1.50169e-05
1.5017e-05
1.50191e-05
1.50194e-05
1.50133e-05
1.50172e-05
1.50173e-05
1.50194e-05
1.50197e-05
2.85178e-05
2.85244e-05
2.85231e-05
2.85273e-05
2.85269e-05
2.85244e-05
2.85319e-05
2.85309e-05
2.85354e-05
2.85351e-05
2.85231e-05
2.85309e-05
2.85299e-05
2.85346e-05
2.85344e-05
2.85273e-05
2.85354e-05
2.85346e-05
2.85394e-05
2.85393e-05
2.85269e-05
2.85351e-05
2.85344e-05
2.85393e-05
2.85392e-05
4.17504e-05
4.17601e-05
4.17591e-05
4.17644e-05
4.17643e-05
4.17601e-05
4.17693e-05
4.17683e-05
4.17735e-05
4.17735e-05
4.17591e-05
4.17683e-05
4.17675e-05
4.17729e-05
4.1773e-05
4.17644e-05
4.17735e-05
4.17729e-05
4.17784e-05
4.17785e-05
4.17643e-05
4.17735e-05
4.1773e-05
4.17785e-05
4.17787e-05
5.37314e-05
5.37442e-05
5.37418e-05
5.37485e-05
5.37476e-05
5.37442e-05
5.37574e-05
5.37552e-05
5.37621e-05
5.37613e-05
5.37418e-05
5.37552e-05
5.37532e-05
5.37602e-05
5.37595e-05
5.37485e-05
5.37621e-05
5.37602e-05
5.37673e-05
5.37667e-05
5.37476e-05
5.37613e-05
5.37595e-05
5.37667e-05
5.3766e-05
6.77793e-05
6.7797e-05
6.77928e-05
6.78009e-05
6.7799e-05
6.7797e-05
6.78146e-05
6.78105e-05
6.78186e-05
6.78168e-05
6.77928e-05
6.78105e-05
6.78067e-05
6.78148e-05
6.78131e-05
6.78009e-05
6.78186e-05
6.78148e-05
6.78233e-05
6.78217e-05
6.77991e-05
6.78168e-05
6.78131e-05
6.78217e-05
6.782e-05
7.96611e-05
7.96853e-05
7.96774e-05
7.96867e-05
7.96824e-05
7.96853e-05
7.97096e-05
7.97017e-05
7.9711e-05
7.97066e-05
7.96774e-05
7.97017e-05
7.96937e-05
7.97025e-05
7.96979e-05
7.96868e-05
7.97111e-05
7.97025e-05
7.97107e-05
7.9706e-05
7.96824e-05
7.97067e-05
7.96979e-05
7.9706e-05
7.97008e-05
9.35496e-05
9.3582e-05
9.3568e-05
9.35781e-05
9.35702e-05
9.3582e-05
9.36149e-05
9.3601e-05
9.36115e-05
9.36036e-05
9.3568e-05
9.3601e-05
9.35865e-05
9.35956e-05
9.35867e-05
9.35781e-05
9.36115e-05
9.35956e-05
9.36026e-05
9.3592e-05
9.35702e-05
9.36036e-05
9.35867e-05
9.3592e-05
9.35803e-05
0.000105952
0.000105997
0.000105974
0.000105984
0.00010597
0.000105997
0.000106042
0.000106019
0.000106029
0.000106015
0.000105974
0.000106019
0.000105994
0.000106
0.000105983
0.000105984
0.000106029
0.000106
0.000106002
0.000105982
0.00010597
0.000106015
0.000105983
0.000105982
0.00010596
0.0001195
0.00011956
0.000119523
0.000119532
0.000119509
0.00011956
0.000119621
0.000119583
0.00011959
0.000119565
0.000119523
0.000119583
0.000119541
0.00011954
0.000119512
0.000119532
0.00011959
0.00011954
0.000119537
0.000119506
0.000119509
0.000119565
0.000119512
0.000119506
0.000119472
0.000132536
0.000132624
0.000132577
0.000132593
0.000132564
0.000132624
0.000132715
0.000132665
0.000132677
0.000132646
0.000132577
0.000132665
0.000132608
0.000132616
0.000132583
0.000132593
0.000132677
0.000132616
0.000132622
0.000132587
0.000132565
0.000132646
0.000132583
0.000132587
0.000132553
0.000145863
0.000145989
0.000145941
0.000145976
0.000145946
0.000145989
0.000146117
0.000146064
0.0001461
0.000146069
0.000145941
0.000146064
0.000146003
0.000146032
0.000145998
0.000145976
0.0001461
0.000146032
0.000146054
0.000146021
0.000145947
0.000146069
0.000145998
0.000146021
0.000145991
0.000159434
0.000159631
0.000159611
0.000159708
0.000159698
0.000159631
0.000159839
0.000159821
0.000159922
0.000159915
0.000159611
0.000159821
0.000159806
0.000159916
0.000159921
0.000159708
0.000159922
0.000159917
0.000160057
0.00016009
0.000159698
0.000159915
0.000159922
0.000160091
0.000160148
0.000172489
0.000172811
0.000172882
0.000173118
0.000173172
0.000172811
0.000173139
0.000173221
0.000173494
0.000173571
0.000172882
0.000173221
0.000173353
0.000173709
0.000173844
0.000173118
0.000173494
0.000173709
0.000174194
0.000174412
0.000173173
0.000173572
0.000173844
0.000174412
0.000174679
0.000186075
0.000186608
0.000186854
0.000187357
0.000187542
0.000186608
0.000187175
0.00018749
0.000188126
0.000188382
0.000186854
0.00018749
0.000187927
0.000188682
0.000188998
0.000187357
0.000188127
0.000188682
0.000189505
0.000189843
0.000187543
0.000188383
0.000188999
0.000189843
0.000190184
0.000198061
0.000198773
0.000199143
0.000199914
0.00020021
0.000198773
0.000199652
0.000200175
0.000201025
0.000201342
0.000199143
0.000200175
0.00020081
0.0002017
0.000202028
0.000199915
0.000201025
0.000201701
0.000202581
0.000202891
0.000200211
0.000201342
0.000202028
0.000202891
0.000203185
0.000210571
0.000211353
0.00021172
0.000212643
0.00021295
0.000211353
0.00021246
0.000212959
0.00021391
0.000214223
0.00021172
0.00021296
0.000213536
0.000214486
0.000214795
0.000212644
0.00021391
0.000214487
0.000215402
0.000215679
0.000212951
0.000214224
0.000214795
0.000215679
0.000215938
0.000219437
0.00022037
0.000220662
0.000221636
0.000221876
0.000220371
0.000221723
0.000222115
0.000223056
0.000223281
0.000220662
0.000222116
0.000222528
0.000223446
0.00022365
0.000221637
0.000223057
0.000223446
0.000224348
0.000224538
0.000221877
0.000223282
0.000223651
0.000224539
0.000224716
0.000229452
0.000230689
0.000230906
0.000232019
0.000232294
0.000230689
0.000232399
0.000232806
0.000233962
0.000234222
0.000230907
0.000232806
0.000233301
0.000234448
0.000234708
0.00023202
0.000233963
0.000234449
0.000235612
0.000235867
0.000232295
0.000234224
0.000234709
0.000235868
0.000236132
0.000234254
0.000235948
0.000236132
0.00023732
0.000237457
0.000235948
0.00023811
0.000238407
0.000239677
0.000239877
0.000236133
0.000238408
0.000238753
0.000240088
0.00024031
0.000237321
0.000239678
0.000240088
0.000241524
0.00024181
0.000237459
0.000239879
0.000240311
0.000241811
0.000242123
0.00024412
0.000246146
0.000246176
0.000247791
0.00024818
0.000246146
0.000248948
0.000249456
0.000251206
0.000251647
0.000246177
0.000249456
0.000250282
0.000252137
0.000252694
0.000247792
0.000251207
0.000252138
0.000254114
0.00025475
0.000248182
0.000251649
0.000252695
0.000254751
0.000255512
0.000245738
0.000248892
0.000248283
0.000249696
0.000249765
0.000248892
0.000251992
0.000252085
0.000253992
0.000254423
0.000248284
0.000252085
0.000252697
0.00025505
0.000255679
0.000249698
0.000253993
0.000255051
0.000257653
0.000258603
0.000249768
0.000254426
0.000255681
0.000258605
0.00025972
0.000257587
0.000260928
0.00026062
0.000262851
0.000263745
0.000260929
0.000265154
0.000266246
0.000269035
0.000270241
0.000260621
0.000266246
0.000268459
0.000271743
0.000273561
0.000262853
0.000269036
0.000271743
0.000275361
0.000277569
0.000263748
0.000270244
0.000273563
0.000277571
0.000280543
0.000252354
0.000258126
0.000258479
0.000260647
0.000260578
0.000258127
0.000263653
0.000264885
0.000267923
0.000269431
0.000258481
0.000264886
0.000266816
0.000271286
0.000273612
0.000260649
0.000267924
0.000271286
0.000275878
0.000279698
0.000260583
0.000269434
0.000273615
0.0002797
0.000284395
0.000269334
0.00027516
0.000276725
0.000279133
0.000281389
0.000275162
0.000281277
0.000285245
0.000289822
0.000293457
0.000276727
0.000285246
0.000291515
0.000297748
0.000303997
0.000279136
0.000289823
0.000297749
0.000304508
0.000312201
0.000281395
0.00029346
0.000304001
0.000312202
0.000324359
0.000252532
0.000263025
0.000265151
0.000271305
0.000271477
0.000263027
0.000273523
0.00027735
0.000281694
0.000287627
0.000265155
0.000277351
0.000283377
0.000292238
0.000301049
0.000271308
0.000281695
0.000292239
0.00029939
0.000316471
0.000271484
0.000287631
0.000301053
0.000316474
0.000340851
0.000277019
0.000287197
0.000293536
0.000300022
0.000303925
0.0002872
0.000298186
0.000306314
0.000313369
0.000322955
0.000293542
0.000306315
0.000321324
0.000332757
0.000351563
0.000300029
0.000313371
0.000332761
0.000344304
0.000366269
0.000303935
0.000322959
0.000351571
0.000366267
0.000405374
0.000239727
0.000253785
0.00025878
0.000272465
0.000279253
0.000253789
0.000266618
0.000284734
0.000291074
0.000314172
0.000258788
0.000284736
0.000303046
0.000323914
0.000358122
0.000272474
0.000291078
0.000323915
0.000332474
0.000414106
0.000279272
0.00031418
0.000358128
0.000414111
0.000584706
0.000271852
0.000285955
0.000298433
0.000313567
0.000326002
0.000285962
0.00029884
0.000321293
0.000329696
0.000350398
0.000298445
0.00032129
0.000351082
0.000367935
0.00040752
0.000313585
0.000329701
0.000367945
0.00039497
0.000449457
0.000326035
0.000350396
0.000407546
0.000449448
0.000507422
0.000212447
0.000228589
0.000230567
0.000248277
0.000252625
0.000228593
0.000238812
0.000265688
0.000275403
0.000332031
0.000230575
0.00026569
0.000300699
0.00035894
0.000445289
0.000248283
0.000275406
0.00035894
0.000383975
0.000703582
0.00025264
0.00033204
0.000445292
0.000703585
0.000839086
0.000246019
0.00026276
0.000270437
0.000296211
0.000304265
0.000262771
0.000263525
0.000296044
0.00028777
0.00031483
0.000270455
0.000296038
0.000337405
0.000379629
0.000474375
0.000296229
0.000287778
0.000379612
0.000431434
0.000563175
0.000304326
0.000314804
0.00047444
0.000563004
0.000933945
0.000169447
0.000170968
0.000163245
0.000160714
0.000145146
0.000170973
0.000174722
0.000172407
0.000183856
0.000176304
0.000163252
0.000172407
0.000155132
0.000140219
6.97733e-05
0.000160723
0.000183859
0.000140215
0.000259973
0.000190472
0.000145171
0.000176303
6.97842e-05
0.000190376
3.94679e-05
0.00020009
0.000204292
0.000204815
0.000215772
0.000215053
0.000204301
0.000199416
0.000209992
0.000202609
0.0002171
0.000204825
0.000209989
0.000215643
0.000225998
0.000242944
0.000215791
0.000202613
0.000226004
0.00018352
0.000162837
0.000215081
0.000217096
0.000242968
0.000162806
-1.98873e-06
0.000129103
0.000122124
0.000118619
0.000116391
0.00011147
0.000122129
0.00012344
0.000123834
0.000140387
0.000152927
0.000118624
0.000123834
0.000118462
0.000141603
0.000160696
0.000116399
0.00014039
0.000141604
0.000260325
0.000219296
0.000111479
0.000152932
0.000160693
0.000219295
0.000693886
0.000145825
0.000135033
0.000119994
0.000107161
8.13295e-05
0.000135039
0.00011558
9.16403e-05
7.3428e-05
4.26006e-05
0.000119999
9.16395e-05
3.22947e-05
-1.72802e-05
-0.000146274
0.000107172
7.34318e-05
-1.72786e-05
3.30748e-05
-2.56337e-05
8.1337e-05
4.26031e-05
-0.000146277
-2.5627e-05
0.000338552
8.17342e-05
6.44708e-05
5.58936e-05
4.2359e-05
2.89333e-05
6.44745e-05
4.35358e-05
2.76355e-05
1.06963e-05
-2.64593e-06
5.58975e-05
2.76361e-05
-9.21501e-06
-4.58191e-05
-0.000126559
4.23644e-05
1.0699e-05
-4.5818e-05
-0.000127887
-0.000176433
2.89388e-05
-2.64349e-06
-0.000126558
-0.00017643
-0.000496912
0.000103503
8.9363e-05
7.7029e-05
6.42708e-05
3.39666e-05
8.93677e-05
7.03427e-05
4.64552e-05
4.16818e-05
2.43451e-05
7.70324e-05
4.64543e-05
-2.77674e-05
-4.40633e-05
-0.000264172
6.42789e-05
4.16844e-05
-4.406e-05
-8.82044e-05
-0.000178061
3.39698e-05
2.43458e-05
-0.000264172
-0.000178061
-0.00112092
4.90623e-05
2.66906e-05
1.87324e-05
5.27564e-06
-8.74779e-06
2.66941e-05
-6.67306e-07
-1.40146e-05
-2.15441e-05
-2.56672e-05
1.87355e-05
-1.40146e-05
-4.95027e-05
-5.56451e-05
-0.000114561
5.27971e-06
-2.15427e-05
-5.56437e-05
-7.67082e-05
-8.58942e-05
-8.74499e-06
-2.56663e-05
-0.00011456
-8.58942e-05
-5.80687e-05
5.04529e-05
4.52772e-05
4.20499e-05
3.82856e-05
3.16358e-05
4.52791e-05
3.74527e-05
2.98938e-05
2.91089e-05
2.234e-05
4.2051e-05
2.98929e-05
1.4275e-05
9.95007e-06
-2.65867e-05
3.82882e-05
2.91087e-05
9.95097e-06
1.02279e-05
-1.07068e-05
3.16361e-05
2.23388e-05
-2.65874e-05
-1.0707e-05
-0.000160095
5.42089e-05
2.9407e-05
3.4081e-05
2.09613e-05
1.93656e-05
2.94107e-05
9.96607e-08
3.41653e-07
-1.14948e-05
-1.88345e-05
3.40838e-05
3.40468e-07
-4.90496e-06
-2.18033e-05
-4.73935e-05
2.09657e-05
-1.14944e-05
-2.18016e-05
-3.20919e-05
-5.23701e-05
1.93701e-05
-1.88338e-05
-4.73918e-05
-5.23699e-05
-0.000120964
0.000658161
0.00103794
0.00146987
0.000408136
0.000264901
0.000348175
0.000108162
0.00103791
0.000658128
0.00147001
0.00040813
0.000348172
0.000264923
0.000108203
0.00194308
0.00194311
0.00555812
0.000594406
0.000832485
0.000832529
0.0011502
0.000197016
0.000197043
0.000141924
0.000276779
0.000136805
0.000136819
0.000108728
0.000168378
0.00016577
4.29136e-06
0.000192208
7.21245e-05
-3.34842e-05
-0.000314878
0.000165739
0.000168388
4.29894e-06
0.000192216
-3.34874e-05
7.21513e-05
-0.000314868
-0.00139724
-0.00139723
-6.18906e-05
0.000204915
-0.000436491
-0.000436481
-0.00172283
0.000201779
0.000139643
7.89365e-05
0.000272438
0.000338332
0.000279413
0.000394486
0.000139652
0.000201781
7.89468e-05
0.000272441
0.000279425
0.000338351
0.000394494
-0.000199765
-0.000199761
-0.000574149
0.000326249
0.000541783
0.000541775
0.00106065
0.000289132
0.000377099
0.000627655
0.000275332
0.000546225
0.000545805
0.000788351
0.000377111
0.000289148
0.000627669
0.000275338
0.000545804
0.000546262
0.000788365
0.000768695
0.000768728
0.00181636
0.000553877
0.00173316
0.00173316
0.00335515
-2.29845e-05
-2.29791e-05
-3.11715e-05
-5.44013e-06
-6.5494e-05
-6.54905e-05
-0.000250545
-8.18707e-05
8.71491e-05
-0.000163334
-9.7062e-05
-7.80583e-05
-0.000429727
-0.000788985
8.71441e-05
-8.18565e-05
-0.000163333
-9.70581e-05
-0.000429725
-7.80429e-05
-0.000788974
0.00170433
0.00170434
0.00137079
-0.000555924
-0.00162892
-0.00162891
-0.00234248
-0.000269795
-0.000468199
-0.000701139
-5.97998e-05
-0.000114344
-0.000330852
-0.000309488
-0.000468196
-0.000269787
-0.000701133
-5.97983e-05
-0.000330853
-0.000114338
-0.000309486
-0.00129935
-0.00129934
-0.00366066
-0.000321333
-0.00045057
-0.000450568
-0.000722864
-0.00168094
-0.000252467
-0.000252446
-0.000189297
-0.00113081
-0.000470359
-0.000470347
-0.00101747
6.54696e-05
6.54823e-05
-0.000120729
0.000814962
-0.000508544
-0.000508544
-0.00123202
-0.000962062
-0.000962059
-0.000238458
-0.001595
-0.000755384
-0.000755383
0.00181827
0.000770571
0.000150378
0.000150412
0.0006899
0.000689935
4.2243e-05
0.0013995
0.00218777
0.00073683
0.000310964
0.00144209
-0.000149232
0.00115899
0.00139952
0.0021878
0.000736848
0.000310994
0.00144209
-0.00014921
0.00115904
0.00210857
0.00295406
0.000852811
0.000852821
0.000526664
0.00249432
0.00249434
1.76993e-05
0.000251872
9.14665e-05
2.11915e-05
0.000141551
0.000103164
-0.000176809
-5.31151e-05
4.72962e-05
4.11278e-05
-0.000182427
0.00015783
-0.0001589
-0.000152769
2.923e-05
-0.000357817
-7.13152e-06
-0.000265631
-0.000306532
0.00010705
-5.40602e-05
1.77123e-05
0.000251858
9.14553e-05
2.1176e-05
0.000141546
0.000103169
-0.000176816
-5.30953e-05
4.1131e-05
4.73062e-05
-0.000182415
0.000157835
-0.000158892
-0.000152748
2.92409e-05
-0.000357808
-0.000265625
-7.11737e-06
-0.000306527
0.000107061
-5.4047e-05
-0.00103977
-0.000989821
-0.000509577
-0.00166684
-0.000527546
-0.00117529
-0.000986364
-0.00103977
-0.000989813
-0.000509565
-0.00166683
-0.000527539
-0.00117529
-0.000986352
-0.00106798
-0.000218376
-0.00021837
-0.000961503
-0.000354553
-0.00101862
-0.00101862
-0.00115986
-4.76153e-05
-0.000255031
-0.000255029
-0.000514545
-0.000514543
-0.000695197
-0.00132792
-0.000888451
-0.000238468
-0.0011126
-0.000554485
-0.00089373
-0.00147109
-0.00132792
-0.000888441
-0.000238462
-0.0011126
-0.00055448
-0.000893729
-0.00147108
-0.00153619
-0.00174655
-0.00110317
-0.00110317
-0.000818979
-0.00174552
-0.00174552
1.89307e-05
-7.89642e-05
-0.000349679
0.00025569
-0.000364144
0.000460403
-0.00012602
1.89332e-05
-7.89648e-05
-0.000349678
0.000255695
-0.000364146
0.000460405
-0.000126011
0.000354026
-0.000521932
-0.000521929
-0.000295226
-0.000335509
4.81807e-05
4.81859e-05
0.00241755
0.00122423
0.00104757
0.00237206
0.00106055
0.00208202
0.00274239
0.00241759
0.00122427
0.00104759
0.0023721
0.00106057
0.0020821
0.00274247
0.00216906
0.00554225
0.00310687
0.0031069
0.00290498
0.00346261
0.00346266
-0.000125688
0.000381472
-3.98405e-06
-0.000165221
0.000257492
-0.000229065
-0.000162309
-0.000326174
-0.000308399
-0.000261028
-0.000656037
-0.000228266
-0.000452431
-0.000388664
-0.000450241
-0.000505936
-0.000495131
-0.000712576
-0.000463834
-0.000423823
-0.000510626
-0.000125682
-4.0017e-06
0.000381472
-0.000165203
0.000257481
-0.000229053
-0.000162301
-0.000326169
-0.000308398
-0.000261027
-0.000656033
-0.000228266
-0.000452426
-0.000388661
-0.000450229
-0.000505915
-0.000712565
-0.000495122
-0.000463823
-0.000423815
-0.000510608
-0.000646634
0.0010974
0.00029348
-0.000843231
0.000305459
-0.000520447
-0.000521252
-0.000646632
0.00109738
0.000293482
-0.000843215
0.000305442
-0.000520437
-0.000521244
-0.000348762
0.00109327
0.00109328
-5.90105e-05
0.000897603
-0.00020535
-0.000205345
-0.00180904
-0.000634857
-0.000932166
-0.000932165
-0.000849227
-0.000849225
-0.00201055
-0.00126517
-0.00235684
-0.00133446
-0.00178546
-0.00196867
-0.00184198
-0.00115638
-0.00126516
-0.00235682
-0.00133445
-0.00178546
-0.00196866
-0.00184198
-0.00115637
-0.00123637
-0.00119625
-0.00214849
-0.00214848
-0.00198079
-0.00119155
-0.00119155
-0.00126982
-0.00108035
-0.00214224
-0.000784265
-0.00186276
-0.000555657
-0.00171933
-0.00126982
-0.00108035
-0.00214223
-0.000784261
-0.00186276
-0.000555655
-0.00171933
-0.00114174
-0.00278856
-0.00278856
-0.00257893
-0.00198105
-0.00172736
-0.00172736
0.00139776
0.00139777
0.00249448
0.000962606
0.00144175
0.00144175
0.00455772
0.00389292
0.00403959
0.00403961
0.0056665
0.00369733
0.00528061
0.00528063
0.000710245
0.000359677
0.000630347
9.77329e-05
0.000615999
0.000587803
0.000830184
0.000710252
0.000359695
9.77603e-05
0.000630398
0.000616014
0.000587843
0.000830196
0.00257797
0.0015889
0.00375362
0.00182161
0.00322657
0.00122581
0.00312946
0.002578
0.00158889
0.00375367
0.00182166
0.00322659
0.0012258
0.00312954
0.00194024
0.000510993
0.000734196
0.000734208
0.000996155
0.00099615
0.0016077
0.00206664
0.00151045
0.00151049
0.000951181
0.00231275
0.00126256
0.0012626
-0.0001378
0.000106684
0.000148839
-0.000159529
9.99708e-05
-5.44741e-05
-0.000209556
-0.000137799
0.000106681
0.000148849
-0.000159527
9.99746e-05
-5.44743e-05
-0.000209553
0.00266764
0.00140493
0.00140495
0.00334687
0.00107815
0.00314385
0.00314391
0.000486138
0.000486233
0.000827464
0.000421914
0.000305825
0.000305847
0.000416477
0.000558649
0.000577685
0.000495352
0.000348044
0.000546127
0.000731175
0.000421012
0.000558653
0.000577667
0.000495361
0.00034804
0.000546075
0.000731192
0.000421029
0.000485832
0.00101815
0.000574772
0.000784694
0.0010462
0.000383643
0.000577302
0.000485827
0.00101819
0.000784726
0.000574773
0.0010462
0.000383643
0.00057732
0.00186101
0.000603703
0.00116408
0.00129311
0.000992054
0.00105529
0.00218891
0.00186099
0.000603736
0.0011641
0.00129313
0.000992068
0.00105528
0.00218893
0.00398088
0.00398088
0.00333475
0.00177154
0.00225564
0.00183505
0.00183506
)
;

boundaryField
{
    inlet
    {
        type            fixedValue;
        value           uniform 0;
    }
    wall
    {
        type            zeroGradient;
    }
    outlet
    {
        type            fixedValue;
        value           uniform 0;
    }
    procBoundary0to1
    {
        type            processor;
        value           nonuniform List<scalar> 
320
(
6.43474e-06
6.4408e-06
6.4383e-06
6.44178e-06
6.44075e-06
1.50137e-05
1.50175e-05
1.50176e-05
1.50196e-05
1.502e-05
2.85268e-05
2.85352e-05
2.85344e-05
2.85394e-05
2.85395e-05
4.17647e-05
4.17738e-05
4.17733e-05
4.17788e-05
4.17793e-05
5.37477e-05
5.37614e-05
5.37597e-05
5.37669e-05
5.37667e-05
6.77994e-05
6.7817e-05
6.78134e-05
6.7822e-05
6.78208e-05
7.96825e-05
7.97067e-05
7.9698e-05
7.97061e-05
7.97016e-05
9.35704e-05
9.36037e-05
9.35869e-05
9.35922e-05
9.35811e-05
0.00010597
0.000106015
0.000105983
0.000105982
0.000105961
0.000119509
0.000119565
0.000119512
0.000119506
0.000119472
0.000132564
0.000132645
0.000132582
0.000132587
0.000132552
0.000145946
0.000146069
0.000145998
0.00014602
0.00014599
0.000159697
0.000159914
0.000159921
0.00016009
0.000160147
0.000173171
0.00017357
0.000173843
0.000174411
0.000174678
0.000187541
0.000188381
0.000188997
0.000189842
0.000190183
0.000200208
0.00020134
0.000202026
0.000202889
0.000203183
0.000212947
0.000214221
0.000214792
0.000215675
0.000215933
0.000221872
0.000223276
0.000223644
0.000224532
0.000224709
0.000232286
0.000234215
0.0002347
0.000235858
0.000236122
0.000237446
0.000239866
0.000240298
0.000241798
0.000242109
0.000248164
0.000251632
0.000252677
0.000254733
0.000255494
0.000249747
0.000254405
0.000255659
0.000258583
0.000259698
0.000263719
0.000270217
0.000273536
0.000277546
0.000280518
0.000260556
0.000269406
0.000273588
0.000279673
0.000284371
0.000281351
0.000293427
0.000303969
0.00031219
0.000324355
0.000271442
0.000287595
0.000301038
0.000316474
0.000340872
0.000303861
0.000322939
0.000351582
0.000366418
0.000405826
0.000279207
0.000314145
0.00035817
0.000414293
0.000584306
0.000325877
0.000350451
0.000407965
0.000450387
0.000513359
0.000252552
0.000332106
0.000445122
0.00070561
0.00139666
0.000303994
0.000314571
0.000474074
0.000658783
0.00194498
0.00014485
0.000176225
6.93812e-05
0.000168109
-0.0013973
0.000214504
0.000217104
0.000241505
0.000200857
-0.000198936
0.000111397
0.000152943
0.000160608
0.000289704
0.000772423
8.13999e-05
4.24719e-05
-0.000145895
-8.42081e-05
0.00170333
2.90811e-05
-3.05219e-06
-0.000123975
-0.000280382
-0.00129785
3.40559e-05
2.4161e-05
-0.000263476
-0.000176699
-0.00112734
-8.74645e-06
-2.57659e-05
-0.00011409
-8.70127e-05
-5.99409e-05
3.15615e-05
2.20789e-05
-2.6737e-05
-1.18848e-05
-0.000160581
1.93498e-05
-1.88961e-05
-4.7371e-05
-5.27175e-05
-0.000120366
0.00146988
0.000107779
0.000265
0.00557231
0.00115171
0.00083218
4.00713e-06
-0.000314288
7.11896e-05
-6.16514e-05
-0.00172199
-0.000435066
8.06284e-05
0.000393058
0.000337746
-0.000572356
0.00106043
0.000541967
0.000629684
0.000787971
0.000546016
0.00181458
0.0033553
0.0017346
-0.000164097
-0.000788506
-7.81166e-05
0.00137101
-0.00234316
-0.00162593
-0.00068192
-0.000307532
-0.000113802
-0.00366277
-0.000696556
-0.000399952
-0.00050979
-0.000986024
-0.00166648
-0.000345569
-0.000125347
0.000255899
0.00029307
-0.000520469
-0.000842121
-0.00213381
-0.0017111
-0.000781951
0.000853083
0.00249543
0.0029595
0.00218707
0.00115828
0.00031044
-0.00018278
-0.000152718
4.71548e-05
-6.85648e-06
-5.41153e-05
-0.000357991
-0.000961506
-0.00101858
-0.000218426
-0.00110266
-0.00174494
-0.00174628
-0.000888473
-0.00147094
-0.00111075
-0.000294385
4.86896e-05
-0.00051989
0.00310867
0.00345819
0.00554032
0.00122431
0.00275174
0.0023709
-0.00016456
-0.000161607
0.000380968
-0.000492552
-0.000506959
-0.00050401
-5.89573e-05
-0.0002048
0.00109404
-0.00214776
-0.001191
-0.00119644
-0.00235718
-0.00115508
-0.00178495
-0.00258112
-0.00172501
-0.00278927
0.00247911
0.00455789
0.00144245
0.0056805
0.00528226
0.0040433
0.00375725
0.00312811
0.00182114
0.000630123
0.000829978
0.000359452
0.00334561
0.00314438
0.00139992
0.00116486
0.0021847
0.00129216
0.000575891
0.000577112
0.0010198
0.00398131
0.00183162
0.00224957
)
;
    }
    procBoundary0to2
    {
        type            processor;
        value           nonuniform List<scalar> 
320
(
6.43474e-06
6.4408e-06
6.43831e-06
6.44179e-06
6.44075e-06
1.50137e-05
1.50175e-05
1.50176e-05
1.50196e-05
1.502e-05
2.85268e-05
2.85352e-05
2.85345e-05
2.85394e-05
2.85395e-05
4.17648e-05
4.17738e-05
4.17733e-05
4.17788e-05
4.17793e-05
5.37477e-05
5.37614e-05
5.37597e-05
5.37669e-05
5.37667e-05
6.77994e-05
6.7817e-05
6.78134e-05
6.7822e-05
6.78208e-05
7.96825e-05
7.97067e-05
7.9698e-05
7.97061e-05
7.97016e-05
9.35704e-05
9.36038e-05
9.35869e-05
9.35922e-05
9.35811e-05
0.00010597
0.000106015
0.000105983
0.000105982
0.000105961
0.000119509
0.000119565
0.000119512
0.000119506
0.000119472
0.000132564
0.000132646
0.000132582
0.000132587
0.000132552
0.000145946
0.000146069
0.000145998
0.00014602
0.00014599
0.000159698
0.000159915
0.000159921
0.00016009
0.000160147
0.000173172
0.000173571
0.000173843
0.000174411
0.000174678
0.000187542
0.000188382
0.000188998
0.000189842
0.000190183
0.000200209
0.000201341
0.000202027
0.00020289
0.000203183
0.000212949
0.000214222
0.000214793
0.000215676
0.000215934
0.000221874
0.000223278
0.000223646
0.000224534
0.00022471
0.000232289
0.000234217
0.000234702
0.00023586
0.000236123
0.00023745
0.000239869
0.000240301
0.000241801
0.000242111
0.000248169
0.000251636
0.000252681
0.000254738
0.000255498
0.000249754
0.000254411
0.000255665
0.000258588
0.000259702
0.000263728
0.000270225
0.000273543
0.000277553
0.000280523
0.000260567
0.000269416
0.000273597
0.000279682
0.000284378
0.000281364
0.000293437
0.000303979
0.000312199
0.000324362
0.000271457
0.000287608
0.00030105
0.000316484
0.000340879
0.000303878
0.000322953
0.000351597
0.000366426
0.000405834
0.000279234
0.000314163
0.000358185
0.000414303
0.000584311
0.000325914
0.000350468
0.000407989
0.000450388
0.000513366
0.000252579
0.000332129
0.000445144
0.000705631
0.00139666
0.000304042
0.000314585
0.000474124
0.000658711
0.00194496
0.000144883
0.000176242
6.94056e-05
0.000168055
-0.00139729
0.000214544
0.000217122
0.000241525
0.000200847
-0.000198932
0.00011142
0.000152964
0.000160617
0.000289718
0.000772446
8.14214e-05
4.24944e-05
-0.000145906
-8.41762e-05
0.00170333
2.90965e-05
-3.03623e-06
-0.000123964
-0.000280368
-0.00129784
3.4074e-05
2.41741e-05
-0.000263467
-0.000176688
-0.00112733
-8.73233e-06
-2.5754e-05
-0.000114078
-8.70023e-05
-5.9931e-05
3.15721e-05
2.20873e-05
-2.67283e-05
-1.18765e-05
-0.000160571
1.93599e-05
-1.88902e-05
-4.73622e-05
-5.27086e-05
-0.000120358
0.000265018
0.000107796
0.00146985
0.000832194
0.00115171
0.00557231
7.11998e-05
-0.000314279
4.00845e-06
-0.000435056
-0.00172198
-6.16471e-05
0.000337757
0.00039307
8.06404e-05
0.000541969
0.00106043
-0.000572353
0.000546044
0.000787989
0.000629697
0.00173461
0.00335531
0.00181458
-7.81018e-05
-0.000788493
-0.000164072
-0.00162592
-0.00234315
0.00137102
-0.00011379
-0.000307523
-0.000681909
-0.000399942
-0.000696549
-0.00366276
-0.00166647
-0.000986013
-0.000509779
0.000255904
-0.000125337
-0.000345562
-0.000842102
-0.000520453
0.000293085
-0.000781942
-0.00171109
-0.0021338
0.000310454
0.00115829
0.00218707
0.0029595
0.00249543
0.000853093
-0.000357983
-5.41019e-05
-6.84284e-06
4.71607e-05
-0.000152708
-0.000182776
-0.00111074
-0.00147093
-0.000888462
-0.00174628
-0.00174493
-0.00110265
-0.000218417
-0.00101857
-0.000961501
-0.000519885
4.86969e-05
-0.00029438
0.00237089
0.00275176
0.00122432
0.00554033
0.00345821
0.00310869
-0.000503993
-0.000506961
-0.000492549
0.000380972
-0.000161597
-0.000164536
-0.00178494
-0.00115506
-0.00235717
-0.00119644
-0.00119099
-0.00214775
0.00109405
-0.000204789
-5.89522e-05
-0.00278925
-0.001725
-0.00258111
0.00144246
0.00455789
0.0024791
0.0040433
0.00528226
0.0056805
0.00182112
0.00312812
0.00375726
0.000359456
0.000829989
0.000630146
0.00139993
0.00314438
0.00334559
0.00129217
0.00218469
0.00116487
0.00101981
0.000577115
0.000575902
0.00224957
0.00183162
0.00398132
)
;
    }
}


// ************************************************************************* //
