FoamFile
{version 2.0; format ascii;class Cloud<passiveParticle>; location 0;object  positions;}
2
(
( 0.499981 0.499979 2.95674 ) 0 
( 0.499953 0.499954 2.62494 ) 0 
)
