/*--------------------------------*- C++ -*----------------------------------*\
| =========                 |                                                 |
| \\      /  F ield         | OpenFOAM: The Open Source CFD Toolbox           |
|  \\    /   O peration     | Version:  5.x                                   |
|   \\  /    A nd           | Web:      www.OpenFOAM.org                      |
|    \\/     M anipulation  |                                                 |
\*---------------------------------------------------------------------------*/
FoamFile
{
    version     2.0;
    format      ascii;
    class       surfaceScalarField;
    location    "0.018";
    object      phi;
}
// * * * * * * * * * * * * * * * * * * * * * * * * * * * * * * * * * * * * * //

dimensions      [0 3 -1 0 0 0 0];

internalField   nonuniform List<scalar> 
4318
(
2.58126e-09
2.57497e-09
-5.45113e-09
5.41722e-09
2.57797e-09
-5.54461e-09
6.46818e-09
2.61027e-09
-3.735e-09
7.84465e-09
2.6074e-09
-4.05512e-09
2.62329e-09
-8.79131e-10
2.58428e-09
5.41137e-09
-5.54481e-09
5.41685e-09
5.41094e-09
-5.65619e-09
6.46616e-09
5.42034e-09
-3.85285e-09
7.84321e-09
5.41015e-09
-4.17418e-09
5.39501e-09
-1.00264e-09
2.61653e-09
6.46322e-09
-3.73572e-09
5.42624e-09
6.46118e-09
-3.85343e-09
6.46384e-09
6.45887e-09
-2.07045e-09
7.82921e-09
6.4481e-09
-2.39804e-09
6.41714e-09
7.41857e-10
2.61366e-09
7.84065e-09
-4.05598e-09
5.41606e-09
7.8392e-09
-4.1748e-09
6.45307e-09
7.82522e-09
-2.39808e-09
7.81613e-09
7.81213e-09
-2.72206e-09
7.76763e-09
4.08101e-10
2.62955e-09
-8.8103e-10
5.40093e-09
-1.00411e-09
6.42212e-09
7.41015e-10
7.77163e-09
4.07292e-10
3.4874e-09
2.33301e-09
2.32707e-09
-1.03828e-08
4.3178e-09
2.36606e-09
-9.97602e-09
5.33252e-09
2.38109e-09
-7.17538e-09
5.31941e-09
2.38853e-09
-6.45824e-09
2.37511e-09
-1.938e-09
2.37205e-09
4.31252e-09
-9.97671e-09
4.33816e-09
4.33277e-09
-9.57976e-09
5.33923e-09
4.32525e-09
-6.79092e-09
5.31671e-09
4.32125e-09
-6.07795e-09
4.28581e-09
-1.5706e-09
2.38702e-09
5.328e-09
-7.17697e-09
4.33062e-09
5.33469e-09
-6.79178e-09
5.31846e-09
5.31396e-09
-4.04055e-09
5.28717e-09
5.30233e-09
-3.34177e-09
5.25508e-09
1.10986e-09
2.39449e-09
5.31604e-09
-6.46038e-09
4.32663e-09
5.31346e-09
-6.07927e-09
5.30684e-09
5.28398e-09
-3.34224e-09
5.27199e-09
5.26882e-09
-2.64795e-09
5.21555e-09
1.78207e-09
2.38122e-09
-1.94161e-09
4.29123e-09
-1.57279e-09
5.2596e-09
1.10855e-09
5.21872e-09
1.78127e-09
6.12571e-09
3.51777e-09
3.51107e-09
-1.75517e-08
6.86999e-09
3.50703e-09
-1.69045e-08
8.37801e-09
3.51059e-09
-1.2233e-08
9.42725e-09
3.50115e-09
-1.10486e-08
3.48347e-09
-3.62014e-09
3.51376e-09
6.86384e-09
-1.69057e-08
6.86059e-09
6.8544e-09
-1.62678e-08
8.36655e-09
6.82906e-09
-1.16107e-08
9.41541e-09
6.80986e-09
-1.04314e-08
6.74889e-09
-3.02407e-09
3.5173e-09
8.37246e-09
-1.22354e-08
6.83523e-09
8.36118e-09
-1.16119e-08
8.32518e-09
8.31984e-09
-7.01716e-09
9.36268e-09
8.29638e-09
-5.86196e-09
8.21269e-09
1.44607e-09
3.50799e-09
9.42219e-09
-1.10518e-08
6.81611e-09
9.41115e-09
-1.04332e-08
8.30171e-09
9.35854e-09
-5.86271e-09
9.33639e-09
9.33231e-09
-4.71497e-09
9.23484e-09
2.5542e-09
3.49101e-09
-3.62435e-09
6.75532e-09
-3.02693e-09
8.21805e-09
1.4442e-09
9.23892e-09
2.5531e-09
9.66643e-09
4.4756e-09
4.46813e-09
-2.67471e-08
8.64478e-09
4.48913e-09
-2.56517e-08
1.06341e-08
4.48135e-09
-1.87494e-08
1.18067e-08
4.47536e-09
-1.6729e-08
4.42351e-09
-5.76142e-09
4.49666e-09
8.63794e-09
-2.56534e-08
8.64548e-09
8.63858e-09
-2.45627e-08
1.06237e-08
8.57985e-09
-1.76851e-08
1.17884e-08
8.55303e-09
-1.56717e-08
8.4337e-09
-4.74286e-09
4.48885e-09
1.0628e-08
-1.87529e-08
8.58673e-09
1.06178e-08
-1.76866e-08
1.05384e-08
1.05325e-08
-1.09195e-08
1.16849e-08
1.04955e-08
-8.94922e-09
1.03424e-08
1.80668e-09
4.48298e-09
1.18014e-08
-1.67334e-08
8.55999e-09
1.17837e-08
-1.56742e-08
1.05014e-08
1.16804e-08
-8.95031e-09
1.16412e-08
1.16367e-08
-6.99449e-09
1.14642e-08
3.6929e-09
4.43177e-09
-5.76599e-09
8.44083e-09
-4.74646e-09
1.03483e-08
1.80423e-09
1.14687e-08
3.69153e-09
1.41103e-08
6.68693e-09
6.67787e-09
-4.01465e-08
1.2872e-08
6.6634e-09
-3.85158e-08
1.57481e-08
6.60729e-09
-2.8231e-08
1.76495e-08
6.57565e-09
-2.52081e-08
6.47162e-09
-8.92103e-09
6.6725e-09
1.28632e-08
-3.8518e-08
1.28394e-08
1.28311e-08
-3.68959e-08
1.57091e-08
1.27035e-08
-2.66504e-08
1.76074e-08
1.26448e-08
-2.36389e-08
1.2432e-08
-7.41715e-09
6.61662e-09
1.57406e-08
-2.82349e-08
1.27119e-08
1.57019e-08
-2.66522e-08
1.5546e-08
1.55388e-08
-1.65888e-08
1.74228e-08
1.54682e-08
-1.36495e-08
1.52008e-08
2.28186e-09
6.58513e-09
1.76442e-08
-2.52135e-08
1.26532e-08
1.7602e-08
-2.36422e-08
1.54754e-08
1.74172e-08
-1.36509e-08
1.73452e-08
1.73398e-08
-1.07361e-08
1.70433e-08
5.07774e-09
6.48076e-09
-8.9287e-09
1.24405e-08
-7.42225e-09
1.5208e-08
2.27864e-09
1.70488e-08
5.07597e-09
2.0436e-08
9.47681e-09
9.4659e-09
-5.92115e-08
1.8244e-08
9.45535e-09
-5.67759e-08
2.23733e-08
9.35028e-09
-4.17166e-08
2.50832e-08
9.30137e-09
-3.72184e-08
9.10906e-09
-1.33563e-08
9.46631e-09
1.8234e-08
-5.67791e-08
1.81965e-08
1.81864e-08
-5.43573e-08
2.23108e-08
1.79528e-08
-3.9368e-08
2.50113e-08
1.78524e-08
-3.48914e-08
1.74711e-08
-1.11426e-08
9.36119e-09
2.23643e-08
-4.17222e-08
1.79628e-08
2.23022e-08
-3.93703e-08
2.20168e-08
2.20082e-08
-2.46992e-08
2.46791e-08
2.18861e-08
-2.03465e-08
2.14129e-08
2.90153e-09
9.3125e-09
2.50764e-08
-3.72257e-08
1.78625e-08
2.50047e-08
-3.48957e-08
2.18947e-08
2.46725e-08
-2.03485e-08
2.45445e-08
2.45379e-08
-1.60388e-08
2.40147e-08
7.00821e-09
9.12026e-09
-1.33659e-08
1.74813e-08
-1.11492e-08
2.14215e-08
2.89731e-09
2.40212e-08
7.00595e-09
2.92758e-08
1.39279e-08
1.3914e-08
-8.69297e-08
2.66879e-08
1.3861e-08
-8.33488e-08
3.27101e-08
1.36529e-08
-6.13384e-08
3.66839e-08
1.35604e-08
-5.47066e-08
1.3223e-08
-1.97865e-08
1.38749e-08
2.6675e-08
-8.33527e-08
2.65904e-08
2.65777e-08
-7.97906e-08
3.25942e-08
2.61731e-08
-5.78934e-08
3.6556e-08
2.60027e-08
-5.12967e-08
2.53602e-08
-1.65701e-08
1.36668e-08
3.26994e-08
-6.13454e-08
2.61859e-08
3.25835e-08
-5.78965e-08
3.2093e-08
3.20823e-08
-3.65168e-08
3.59986e-08
3.18759e-08
-3.01264e-08
3.10804e-08
3.76559e-09
1.35743e-08
3.66758e-08
-5.47161e-08
2.60154e-08
3.65479e-08
-5.13024e-08
3.18866e-08
3.59905e-08
-3.01289e-08
3.57708e-08
3.57627e-08
-2.38107e-08
3.48906e-08
9.73489e-09
1.3237e-08
-1.97989e-08
2.53729e-08
-1.65787e-08
3.10911e-08
3.76018e-09
3.48987e-08
9.732e-09
4.1975e-08
2.02434e-08
2.02262e-08
-1.27306e-07
3.87893e-08
2.01439e-08
-1.21988e-07
4.75518e-08
1.97648e-08
-8.98029e-08
5.32966e-08
1.96063e-08
-7.99953e-08
1.90045e-08
-2.89804e-08
2.0161e-08
3.87735e-08
-1.21993e-07
3.86201e-08
3.86045e-08
-1.16712e-07
4.7349e-08
3.78667e-08
-8.47253e-08
5.30721e-08
3.75659e-08
-7.498e-08
3.64239e-08
-2.42998e-08
1.97821e-08
4.75386e-08
-8.98122e-08
3.78824e-08
4.73359e-08
-8.47293e-08
4.64518e-08
4.64386e-08
-5.3659e-08
5.2075e-08
4.60769e-08
-4.42607e-08
4.46754e-08
4.98103e-09
1.96234e-08
5.32865e-08
-8.00078e-08
3.75815e-08
5.30621e-08
-7.49873e-08
4.60901e-08
5.2065e-08
-4.4264e-08
5.16785e-08
5.16686e-08
-3.49904e-08
5.01337e-08
1.3659e-08
1.90218e-08
-2.89966e-08
3.64396e-08
-2.43108e-08
4.46886e-08
4.97404e-09
5.01437e-08
1.36554e-08
6.00872e-08
2.96177e-08
2.9596e-08
-1.86208e-07
5.65986e-08
2.94464e-08
-1.78289e-07
6.94906e-08
2.88341e-08
-1.31409e-07
7.78123e-08
2.85767e-08
-1.16784e-07
2.75831e-08
-4.22216e-08
2.94681e-08
5.65791e-08
-1.78297e-07
5.63277e-08
5.63083e-08
-1.70435e-07
6.91607e-08
5.51495e-08
-1.23874e-07
7.74367e-08
5.46658e-08
-1.09344e-07
5.28012e-08
-3.536e-08
2.88558e-08
6.94742e-08
-1.31421e-07
5.5169e-08
6.91443e-08
-1.23879e-07
6.77168e-08
6.77004e-08
-7.87571e-08
7.5825e-08
6.71011e-08
-6.48027e-08
6.47925e-08
6.78985e-09
2.85983e-08
7.78e-08
-1.168e-07
5.46852e-08
7.74243e-08
-1.09354e-07
6.71176e-08
7.58127e-08
-6.48072e-08
7.51538e-08
7.51415e-08
-5.10649e-08
7.26209e-08
1.94948e-08
2.76048e-08
-4.22428e-08
5.28207e-08
-3.53739e-08
6.4809e-08
6.78085e-09
7.26332e-08
1.94902e-08
8.63299e-08
4.3582e-08
4.35547e-08
-2.72961e-07
8.3169e-08
4.32887e-08
-2.61003e-07
1.01933e-07
4.2128e-08
-1.92145e-07
1.13784e-07
4.1658e-08
-1.70147e-07
3.98655e-08
-6.1009e-08
4.33158e-08
8.31446e-08
-2.61013e-07
8.26634e-08
8.26391e-08
-2.49133e-07
1.01324e-07
8.04303e-08
-1.80835e-07
1.13102e-07
7.95441e-08
-1.59007e-07
7.6188e-08
-5.08987e-08
4.21552e-08
1.01913e-07
-1.92161e-07
8.04546e-08
1.01303e-07
-1.80841e-07
9.86717e-08
9.86511e-08
-1.15193e-07
1.10173e-07
9.75799e-08
-9.4337e-08
9.34972e-08
9.60626e-09
4.16851e-08
1.13769e-07
-1.70169e-07
7.95683e-08
1.13087e-07
-1.59019e-07
9.76004e-08
1.10157e-07
-9.43428e-08
1.08997e-07
1.08982e-07
-7.38601e-08
1.04554e-07
2.83072e-08
3.98925e-08
-6.10364e-08
7.62123e-08
-5.09161e-08
9.35177e-08
9.59474e-09
1.0457e-07
2.83015e-08
1.24181e-07
6.46196e-08
6.45853e-08
-4.01591e-07
1.226e-07
6.40247e-08
-3.82772e-07
1.50253e-07
6.21129e-08
-2.817e-07
1.66804e-07
6.1235e-08
-2.47745e-07
5.83081e-08
-8.77778e-08
6.40587e-08
1.22569e-07
-3.82786e-07
1.21632e-07
1.21601e-07
-3.64282e-07
1.49165e-07
1.18118e-07
-2.64371e-07
1.65641e-07
1.16528e-07
-2.30774e-07
1.11093e-07
-7.25918e-08
6.21471e-08
1.50228e-07
-2.81721e-07
1.18148e-07
1.49139e-07
-2.64378e-07
1.44913e-07
1.44888e-07
-1.68725e-07
1.60976e-07
1.42973e-07
-1.36842e-07
1.3624e-07
1.44632e-08
6.1269e-08
1.66785e-07
-2.47773e-07
1.16558e-07
1.65622e-07
-2.30788e-07
1.42999e-07
1.60957e-07
-1.3685e-07
1.58908e-07
1.58889e-07
-1.05683e-07
1.51609e-07
4.24713e-08
5.8342e-08
-8.78136e-08
1.11123e-07
-7.26133e-08
1.36265e-07
1.44485e-08
1.51628e-07
4.24643e-08
1.80045e-07
9.75629e-08
9.752e-08
-5.95895e-07
1.8402e-07
9.63092e-08
-5.6522e-07
2.23675e-07
9.22581e-08
-4.13332e-07
2.45909e-07
9.04328e-08
-3.60165e-07
8.49707e-08
-1.24686e-07
9.63516e-08
1.83982e-07
-5.65239e-07
1.81903e-07
1.81866e-07
-5.35387e-07
2.21484e-07
1.74612e-07
-3.86304e-07
2.43672e-07
1.71335e-07
-3.33863e-07
1.61226e-07
-1.01652e-07
9.23007e-08
2.23643e-07
-4.13359e-07
1.7465e-07
2.21452e-07
-3.86312e-07
2.13229e-07
2.13198e-07
-2.45888e-07
2.3493e-07
2.09455e-07
-1.96663e-07
1.97382e-07
2.33755e-08
9.04752e-08
2.45886e-07
-3.60203e-07
1.71373e-07
2.43648e-07
-3.33881e-07
2.09487e-07
2.34906e-07
-1.96673e-07
2.31133e-07
2.31109e-07
-1.48981e-07
2.18308e-07
6.55414e-08
8.50129e-08
-1.24732e-07
1.61264e-07
-1.01678e-07
1.97414e-07
2.33568e-08
2.18331e-07
6.55326e-08
2.62253e-07
1.53059e-07
1.53006e-07
-9.00942e-07
2.85525e-07
1.49523e-07
-8.46824e-07
3.40431e-07
1.41337e-07
-6.09252e-07
3.66197e-07
1.36343e-07
-5.22009e-07
1.26829e-07
-1.74232e-07
1.49576e-07
2.85479e-07
-8.46852e-07
2.79431e-07
2.79385e-07
-7.95103e-07
3.351e-07
2.64665e-07
-5.65302e-07
3.61714e-07
2.56096e-07
-4.80231e-07
2.38735e-07
-1.38329e-07
1.41389e-07
3.40392e-07
-6.09288e-07
2.64711e-07
3.35061e-07
-5.6531e-07
3.2016e-07
3.2012e-07
-3.56793e-07
3.47027e-07
3.11416e-07
-2.78852e-07
2.90501e-07
4.2311e-08
1.36396e-07
3.66168e-07
-5.22058e-07
2.56142e-07
3.61685e-07
-4.80254e-07
3.11456e-07
3.46998e-07
-2.78865e-07
3.39243e-07
3.39213e-07
-2.04567e-07
3.17656e-07
1.06114e-07
1.26881e-07
-1.74292e-07
2.38781e-07
-1.38361e-07
2.9054e-07
4.22874e-08
3.17685e-07
1.06103e-07
3.87001e-07
2.5329e-07
2.53221e-07
-1.40586e-06
4.72964e-07
2.45567e-07
-1.31147e-06
5.24809e-07
2.18833e-07
-8.79464e-07
5.51511e-07
2.07077e-07
-7.55408e-07
1.86898e-07
-2.32527e-07
2.45635e-07
4.7291e-07
-1.31152e-06
4.52579e-07
4.52523e-07
-1.209e-06
5.12989e-07
4.07243e-07
-8.14125e-07
5.4106e-07
3.8541e-07
-6.86639e-07
3.48762e-07
-1.77634e-07
2.18895e-07
5.2476e-07
-8.79508e-07
4.07299e-07
5.12941e-07
-8.14134e-07
4.80315e-07
4.80267e-07
-5.02835e-07
5.10279e-07
4.60432e-07
-3.83842e-07
4.20732e-07
8.11876e-08
2.0714e-07
5.51476e-07
-7.55476e-07
3.85468e-07
5.41024e-07
-6.86668e-07
4.60481e-07
5.10243e-07
-3.83858e-07
4.93898e-07
4.93862e-07
-2.71416e-07
4.5492e-07
1.74244e-07
1.86961e-07
-2.32604e-07
3.48819e-07
-1.77675e-07
4.2078e-07
8.11579e-08
4.54956e-07
1.74231e-07
5.6952e-07
3.653e-07
3.65215e-07
-2.1346e-06
6.9155e-07
3.62893e-07
-1.99996e-06
8.2593e-07
3.51539e-07
-1.36474e-06
8.66609e-07
3.29739e-07
-1.12531e-06
2.81495e-07
-2.68161e-07
3.62973e-07
6.9146e-07
-2.00001e-06
6.93398e-07
6.9332e-07
-1.86986e-06
8.04847e-07
6.65362e-07
-1.2394e-06
8.34494e-07
6.05471e-07
-9.92022e-07
5.19545e-07
-1.93906e-07
3.51618e-07
8.25865e-07
-1.36481e-06
6.65431e-07
8.04784e-07
-1.23941e-06
7.37793e-07
7.37736e-07
-6.47575e-07
7.63358e-07
6.90409e-07
-4.94347e-07
6.1591e-07
1.64889e-07
3.29819e-07
8.66575e-07
-1.12542e-06
6.05544e-07
8.34454e-07
-9.92067e-07
6.90469e-07
7.63314e-07
-4.94365e-07
7.25054e-07
7.25009e-07
-3.40608e-07
6.57105e-07
2.89336e-07
2.81573e-07
-2.68257e-07
5.19617e-07
-1.93955e-07
6.1597e-07
1.64854e-07
6.5715e-07
2.89319e-07
8.3607e-07
4.87362e-07
4.87279e-07
-3.1067e-06
9.07851e-07
4.85722e-07
-2.90518e-06
1.13814e-06
4.57754e-07
-2.05186e-06
1.24652e-06
4.56367e-07
-1.68925e-06
3.96809e-07
-3.26534e-07
4.85802e-07
9.07763e-07
-2.90524e-06
9.05568e-07
9.05487e-07
-2.70939e-06
1.11796e-06
8.71364e-07
-1.8654e-06
1.21196e-06
8.78956e-07
-1.50861e-06
7.31674e-07
-2.11719e-07
4.57834e-07
1.13806e-06
-2.05195e-06
8.71441e-07
1.11789e-06
-1.86542e-06
1.05012e-06
1.05006e-06
-1.00495e-06
1.09646e-06
9.84905e-07
-6.46641e-07
8.52716e-07
3.0129e-07
4.56448e-07
1.24645e-06
-1.68938e-06
8.79034e-07
1.2119e-06
-1.50867e-06
9.84973e-07
1.09641e-06
-6.46661e-07
1.02908e-06
1.02902e-06
-4.28835e-07
8.82e-07
4.73314e-07
3.96892e-07
-3.26665e-07
7.3175e-07
-2.11786e-07
8.52786e-07
3.01247e-07
8.82054e-07
4.73294e-07
1.12589e-06
6.26786e-07
6.26702e-07
-4.35695e-06
1.16929e-06
6.20959e-07
-4.06745e-06
1.48707e-06
5.97144e-07
-2.96573e-06
1.67551e-06
5.94666e-07
-2.47146e-06
5.61891e-07
-5.11831e-07
6.21033e-07
1.16921e-06
-4.06749e-06
1.1601e-06
1.16003e-06
-3.78752e-06
1.47499e-06
1.10894e-06
-2.69209e-06
1.65268e-06
1.11459e-06
-2.20623e-06
1.00409e-06
-2.86309e-07
5.97219e-07
1.48699e-06
-2.9658e-06
1.10902e-06
1.47491e-06
-2.69211e-06
1.40005e-06
1.39999e-06
-1.58703e-06
1.58109e-06
1.3858e-06
-1.09889e-06
1.18831e-06
4.72909e-07
5.94747e-07
1.6754e-06
-2.47155e-06
1.11467e-06
1.65261e-06
-2.20628e-06
1.38587e-06
1.58103e-06
-1.09892e-06
1.47544e-06
1.47538e-06
-6.07985e-07
1.2838e-06
6.70901e-07
5.62e-07
-5.12021e-07
1.00418e-06
-2.86384e-07
1.18839e-06
4.72858e-07
1.28387e-06
6.70886e-07
1.54648e-06
8.89022e-07
8.889e-07
-6.13047e-06
1.63505e-06
8.75126e-07
-5.68688e-06
2.05734e-06
8.21529e-07
-4.20802e-06
2.2577e-06
8.06718e-07
-3.47722e-06
7.34523e-07
-8.84627e-07
8.75237e-07
1.63493e-06
-5.68694e-06
1.61285e-06
1.61273e-06
-5.26274e-06
2.0317e-06
1.51852e-06
-3.80794e-06
2.23974e-06
1.49367e-06
-3.10123e-06
1.34301e-06
-5.16054e-07
8.21642e-07
2.05723e-06
-4.2081e-06
1.51863e-06
2.03159e-06
-3.80796e-06
1.91028e-06
1.91018e-06
-2.37035e-06
2.128e-06
1.85706e-06
-1.68e-06
1.63991e-06
5.53918e-07
8.06826e-07
2.25761e-06
-3.47734e-06
1.49378e-06
2.23964e-06
-3.10128e-06
1.85716e-06
2.12792e-06
-1.68003e-06
2.04774e-06
2.04766e-06
-9.89178e-07
1.81274e-06
8.61217e-07
7.34618e-07
-8.84837e-07
1.34314e-06
-5.16206e-07
1.64001e-06
5.53867e-07
1.81282e-06
8.61191e-07
2.14506e-06
1.39631e-06
1.39616e-06
-8.91834e-06
2.47571e-06
1.34691e-06
-8.11146e-06
3.07041e-06
1.2548e-06
-6.05618e-06
3.26709e-06
1.20042e-06
-4.87323e-06
1.06911e-06
-1.45031e-06
1.34705e-06
2.47556e-06
-8.11152e-06
2.40921e-06
2.40907e-06
-7.38706e-06
2.99642e-06
2.25875e-06
-5.39909e-06
3.19672e-06
2.18493e-06
-4.28604e-06
1.97563e-06
-9.28731e-07
1.25495e-06
3.07028e-06
-6.05627e-06
2.25888e-06
2.99629e-06
-5.39912e-06
2.81762e-06
2.8175e-06
-3.48785e-06
3.03244e-06
2.71957e-06
-2.42947e-06
2.44557e-06
5.6505e-07
1.20056e-06
3.267e-06
-4.87336e-06
2.18506e-06
3.19662e-06
-4.28611e-06
2.71969e-06
3.03234e-06
-2.42951e-06
2.94772e-06
2.94762e-06
-1.44525e-06
2.66036e-06
1.14399e-06
1.06925e-06
-1.45054e-06
1.97575e-06
-9.28893e-07
2.44569e-06
5.64972e-07
2.66046e-06
1.14395e-06
3.04595e-06
2.17431e-06
2.1741e-06
-1.32605e-05
3.80648e-06
2.07912e-06
-1.18204e-05
4.65383e-06
1.8838e-06
-8.78519e-06
4.8865e-06
1.77212e-06
-6.87613e-06
1.52326e-06
-2.1451e-06
2.07932e-06
3.80628e-06
-1.18204e-05
3.65813e-06
3.65794e-06
-1.05447e-05
4.49899e-06
3.35752e-06
-7.71366e-06
4.7531e-06
3.191e-06
-5.95902e-06
2.7747e-06
-1.36668e-06
1.884e-06
4.65366e-06
-8.78531e-06
3.35771e-06
4.49882e-06
-7.71371e-06
4.15124e-06
4.15108e-06
-5.07495e-06
4.42868e-06
3.94159e-06
-3.45749e-06
3.38427e-06
7.22567e-07
1.77231e-06
4.88636e-06
-6.8763e-06
3.19118e-06
4.75296e-06
-5.95911e-06
3.94176e-06
4.42855e-06
-3.45754e-06
4.20078e-06
4.20064e-06
-1.96331e-06
3.64954e-06
1.61568e-06
1.52346e-06
-2.14537e-06
2.77488e-06
-1.36687e-06
3.38444e-06
7.22466e-07
3.64967e-06
1.61563e-06
4.25828e-06
3.81985e-06
3.81958e-06
-2.0896e-05
6.39487e-06
3.53501e-06
-1.79292e-05
7.56157e-06
3.1376e-06
-1.3089e-05
7.45476e-06
2.80569e-06
-9.57436e-06
2.36003e-06
-3.06696e-06
3.53526e-06
6.39461e-06
-1.79293e-05
5.9958e-06
5.99554e-06
-1.54658e-05
7.14683e-06
5.36302e-06
-1.10901e-05
7.14469e-06
4.89249e-06
-8.04368e-06
4.17005e-06
-1.82929e-06
3.13787e-06
7.56137e-06
-1.30892e-05
5.36327e-06
7.14662e-06
-1.10902e-05
6.46665e-06
6.46644e-06
-7.28174e-06
6.55955e-06
5.98287e-06
-4.64076e-06
5.12278e-06
9.84238e-07
2.80597e-06
7.45465e-06
-9.57455e-06
4.89274e-06
7.14453e-06
-8.04379e-06
5.98308e-06
6.55939e-06
-4.64082e-06
6.17546e-06
6.17529e-06
-2.3481e-06
5.35457e-06
2.52107e-06
2.36026e-06
-3.0673e-06
4.17027e-06
-1.82953e-06
5.12298e-06
9.84109e-07
5.35473e-06
2.521e-06
6.22592e-06
5.79145e-06
5.79112e-06
-3.24702e-05
9.66243e-06
5.38252e-06
-2.71797e-05
1.13574e-05
4.65202e-06
-1.94337e-05
1.11126e-05
4.13866e-06
-1.3466e-05
3.31668e-06
-4.05536e-06
5.38284e-06
9.66211e-06
-2.71799e-05
8.99839e-06
8.99808e-06
-2.26969e-05
1.06656e-05
7.92651e-06
-1.60318e-05
1.05449e-05
7.12739e-06
-1.09117e-05
5.8607e-06
-2.1791e-06
4.65235e-06
1.13571e-05
-1.94339e-05
7.92682e-06
1.06653e-05
-1.60319e-05
9.47255e-06
9.47228e-06
-1.03732e-05
9.5613e-06
8.61885e-06
-6.22095e-06
7.06239e-06
1.73025e-06
4.13899e-06
1.11123e-05
-1.34663e-05
7.12771e-06
1.05446e-05
-1.09118e-05
8.61912e-06
9.56107e-06
-6.22101e-06
8.78652e-06
8.7863e-06
-2.68294e-06
7.33083e-06
4.04564e-06
3.31702e-06
-4.05574e-06
5.86101e-06
-2.17939e-06
7.06267e-06
1.73007e-06
7.33106e-06
4.04555e-06
8.98788e-06
1.10954e-05
1.1095e-05
-5.46561e-05
1.69787e-05
9.60269e-06
-4.26647e-05
1.93445e-05
8.25945e-06
-3.00593e-05
1.78967e-05
6.87827e-06
-1.88974e-05
5.32666e-06
-4.82618e-06
9.60312e-06
1.69783e-05
-4.26648e-05
1.51845e-05
1.51841e-05
-3.38597e-05
1.76055e-05
1.32592e-05
-2.34525e-05
1.65726e-05
1.14003e-05
-1.44008e-05
9.1717e-06
-1.99697e-06
8.25987e-06
1.93442e-05
-3.00596e-05
1.32596e-05
1.76051e-05
-2.34526e-05
1.54834e-05
1.54831e-05
-1.48209e-05
1.48075e-05
1.35033e-05
-7.64801e-06
1.08672e-05
3.58583e-06
6.87867e-06
1.78964e-05
-1.88977e-05
1.14007e-05
1.65724e-05
-1.4401e-05
1.35037e-05
1.48072e-05
-7.64811e-06
1.33463e-05
1.3346e-05
-2.36818e-06
1.07034e-05
7.29849e-06
5.32704e-06
-4.82674e-06
9.17208e-06
-1.99736e-06
1.08676e-05
3.5856e-06
1.07036e-05
7.2984e-06
1.3624e-05
1.6839e-05
1.68384e-05
-8.83224e-05
2.59581e-05
1.49591e-05
-6.6739e-05
2.87491e-05
1.20013e-05
-4.48486e-05
2.59799e-05
1.00301e-05
-2.61555e-05
7.32416e-06
-5.48798e-06
1.49596e-05
2.59576e-05
-6.67392e-05
2.29101e-05
2.29096e-05
-4.97607e-05
2.58206e-05
1.92242e-05
-3.35859e-05
2.37416e-05
1.6199e-05
-1.84908e-05
1.22742e-05
-8.62183e-07
1.20018e-05
2.87487e-05
-4.48489e-05
1.92247e-05
2.58201e-05
-3.3586e-05
2.20099e-05
2.20094e-05
-2.03913e-05
2.07056e-05
1.88701e-05
-9.01486e-06
1.44898e-05
6.43822e-06
1.00306e-05
2.59795e-05
-2.61559e-05
1.61995e-05
2.37412e-05
-1.84911e-05
1.88705e-05
2.07053e-05
-9.01499e-06
1.81118e-05
1.81114e-05
-8.50721e-07
1.42895e-05
1.18871e-05
7.3246e-06
-5.48853e-06
1.22747e-05
-8.62787e-07
1.44903e-05
6.43798e-06
1.42899e-05
1.18869e-05
1.98991e-05
3.72031e-05
3.72024e-05
-0.000162725
4.93452e-05
2.8371e-05
-0.000107251
5.12359e-05
2.30736e-05
-6.98155e-05
4.27287e-05
1.69751e-05
-3.46258e-05
1.25387e-05
-4.55577e-06
2.83717e-05
4.93446e-05
-0.000107251
4.01716e-05
4.01709e-05
-7.33605e-05
4.36033e-05
3.3343e-05
-4.7287e-05
3.78324e-05
2.61699e-05
-2.19148e-05
1.98886e-05
3.01345e-06
2.30742e-05
5.12353e-05
-6.9816e-05
3.33436e-05
4.36027e-05
-4.72872e-05
3.68672e-05
3.68666e-05
-2.74387e-05
3.28474e-05
3.0141e-05
-8.96611e-06
2.24762e-05
1.35739e-05
1.69757e-05
4.27282e-05
-3.46264e-05
2.61706e-05
3.78318e-05
-2.19151e-05
3.01416e-05
3.28469e-05
-8.96626e-06
2.7648e-05
2.76476e-05
4.13632e-06
2.06094e-05
2.14298e-05
1.25392e-05
-4.55661e-06
1.98893e-05
3.01255e-06
2.24769e-05
1.35735e-05
2.06099e-05
2.14297e-05
3.04632e-05
5.61204e-05
5.61196e-05
-0.000274958
7.76597e-05
4.68193e-05
-0.000175607
7.70844e-05
3.30294e-05
-0.000102267
6.23883e-05
2.50115e-05
-4.49389e-05
1.56888e-05
-6.61722e-07
4.68201e-05
7.76589e-05
-0.000175607
6.2364e-05
6.23633e-05
-0.000104448
6.38101e-05
4.82599e-05
-6.39635e-05
5.33666e-05
3.66178e-05
-2.30776e-05
2.45497e-05
1.11134e-05
3.30302e-05
7.70837e-05
-0.000102268
4.82607e-05
6.38095e-05
-6.39638e-05
5.12691e-05
5.12684e-05
-3.34555e-05
4.41647e-05
4.04971e-05
-5.741e-06
2.79746e-05
2.30393e-05
2.50123e-05
6.23876e-05
-4.49395e-05
3.66186e-05
5.33661e-05
-2.3078e-05
4.04977e-05
4.41641e-05
-5.7412e-06
3.52155e-05
3.5215e-05
1.47006e-05
2.60741e-05
3.31757e-05
1.56896e-05
-6.62837e-07
2.45504e-05
1.11126e-05
2.79752e-05
2.3039e-05
2.60747e-05
3.31756e-05
4.34102e-05
0.000149862
0.000149861
-0.000574684
0.000164084
9.21185e-05
-0.000281945
0.000142598
6.85095e-05
-0.000149297
0.000103949
4.17778e-05
-4.80717e-05
2.77166e-05
1.29015e-05
9.21194e-05
0.000164083
-0.000281945
0.000112793
0.000112792
-0.000145795
0.000108294
8.64731e-05
-7.74283e-05
8.44796e-05
5.88271e-05
-1.63125e-05
3.92728e-05
3.00689e-05
6.85104e-05
0.000142597
-0.000149297
8.64741e-05
0.000108293
-7.74287e-05
8.6286e-05
8.62851e-05
-3.30793e-05
6.85269e-05
6.27245e-05
8.12065e-06
4.26625e-05
4.37677e-05
4.17787e-05
0.000103947
-4.80724e-05
5.8828e-05
8.44788e-05
-1.63131e-05
6.27254e-05
6.85261e-05
8.12036e-06
5.22928e-05
5.2292e-05
3.55657e-05
3.677e-05
5.54642e-05
2.77176e-05
1.28997e-05
3.92737e-05
3.0068e-05
4.26635e-05
4.37672e-05
3.67708e-05
5.5464e-05
6.57298e-05
0.000218297
0.000218296
-0.00101131
0.000265692
0.000169183
-0.000498527
0.00021845
9.57317e-05
-0.000197791
0.000147726
6.33865e-05
-4.07355e-05
3.06804e-05
3.76204e-05
0.000169185
0.000265691
-0.000498527
0.000182594
0.000182593
-0.000172615
0.000154828
0.000123002
-7.69324e-05
0.000111601
7.9647e-05
1.06536e-05
4.60974e-05
5.71632e-05
9.57329e-05
0.000218449
-0.000197793
0.000123004
0.000154827
-7.6933e-05
0.000114483
0.000114482
-1.60385e-05
8.57125e-05
7.7417e-05
3.91212e-05
4.90666e-05
6.92754e-05
6.33874e-05
0.000147725
-4.07366e-05
7.96481e-05
0.000111601
1.06527e-05
7.74181e-05
8.57114e-05
3.91209e-05
6.2354e-05
6.23531e-05
6.56937e-05
4.25439e-05
8.22332e-05
3.06812e-05
3.76188e-05
4.60984e-05
5.71621e-05
4.90676e-05
6.92747e-05
4.25448e-05
8.22329e-05
9.0379e-05
0.000736702
0.0007367
-0.000860695
-0.000599312
-0.000599312
-0.000425382
0.000641003
0.000318954
-0.000721769
0.000400482
0.000199715
-0.000156997
0.000238754
9.5018e-05
2.59676e-05
5.42641e-05
9.89388e-05
0.000318955
0.000641002
-0.00072177
0.00032845
0.000328448
-0.000191604
0.000255252
0.000217368
-2.13875e-05
0.000168597
0.000118095
7.4232e-05
6.94114e-05
0.00011256
0.000199717
0.00040048
-0.000157
0.000217369
0.000255251
-2.13883e-05
0.000180644
0.000180642
5.74122e-05
0.000125632
0.000112096
0.000100132
6.92367e-05
0.000120692
9.50192e-05
0.000238752
2.59659e-05
0.000118096
0.000168595
7.4231e-05
0.000112097
0.000125631
0.000100132
8.61664e-05
8.61651e-05
0.000117555
5.52314e-05
0.000126778
5.42655e-05
9.89359e-05
6.9413e-05
0.000112558
6.92382e-05
0.000120691
5.52328e-05
0.000126777
0.000129727
0.000298489
0.000298489
-0.00145771
0.00130208
0.000728263
-0.000344492
-9.69824e-05
-0.000188607
-1.61064e-05
-0.000377774
-0.000299477
-0.000835776
-0.000592918
0.000646086
0.000269753
0.000229211
0.00031535
0.000136277
0.000220415
5.32746e-05
0.000188982
0.000728265
0.00130208
-0.000344492
-0.000188607
-9.69824e-05
-1.61065e-05
-0.000377774
-0.000299476
-0.000835775
-0.000592917
0.000565864
0.000565862
0.000133199
0.000315647
0.000280335
0.000218248
0.000196538
0.000142141
0.000187477
6.93236e-05
0.000187825
0.000269756
0.000646084
0.000229205
0.000280338
0.000315645
0.000218247
0.000207205
0.000207202
0.000203678
0.000137545
0.000119006
0.000192927
6.61035e-05
0.000178154
0.000136278
0.000315348
0.000220413
0.000142143
0.000196536
0.000187476
0.000119008
0.000137542
0.000192927
8.78088e-05
8.7807e-05
0.000179953
5.26087e-05
0.000174398
5.32762e-05
0.000188977
6.93258e-05
0.000187823
6.61058e-05
0.000178153
5.26107e-05
0.000174398
0.000165098
0.00091391
0.000291906
0.000291906
-0.00149777
-0.000399945
0.000976859
0.000434596
-0.000360492
-0.000595041
-0.000523949
5.56674e-05
6.41857e-06
1.72102e-05
4.41463e-05
0.000754281
0.000377595
0.000875991
-0.000535679
-0.000387958
-0.000469158
-0.000385891
0.000377693
0.000129526
0.00046747
7.10828e-05
0.000330716
-0.000399945
0.000434596
0.000976858
-0.000360491
-0.000595041
-0.000523948
5.56673e-05
6.41847e-06
1.72102e-05
4.41462e-05
0.00082354
0.000823537
0.000445717
-0.00046627
-0.000205459
-0.000496922
-0.000232751
-0.000466271
-0.00020546
-0.000496922
-0.000232752
0.000295876
0.000295877
0.000251459
0.000469164
0.000370913
0.000579306
0.000245996
0.0001637
0.00037647
8.16128e-05
0.000289235
0.000377599
0.000754278
0.000875981
-0.000535678
-0.000387957
-0.000469157
-0.00038589
0.000370917
0.000469161
0.000579304
0.000258624
0.000258621
0.000428264
0.000156798
0.000140679
0.000317774
7.3568e-05
0.000257381
0.000129529
0.00037769
0.00046747
0.000163703
0.000245994
0.000376469
0.000140681
0.000156795
0.000317774
9.76333e-05
9.76311e-05
0.000266049
5.35475e-05
0.000231188
7.10856e-05
0.00033071
8.16161e-05
0.000289232
7.3571e-05
0.00025738
5.355e-05
0.000231187
0.000207588
0.00201074
7.86597e-06
7.86573e-06
-0.00202651
-0.000197157
-0.000279674
0.000317003
2.1634e-05
0.000138193
9.79621e-05
3.44188e-05
0.000667566
-0.000218562
-0.000149341
0.000281715
0.000162043
8.66423e-05
3.54737e-05
0.000443327
1.9432e-05
0.000329674
-0.000197157
-0.000279673
2.16341e-05
0.000317003
0.000138193
-8.3066e-05
-8.30664e-05
0.000129589
0.000129588
0.000497582
-6.14468e-05
-4.13277e-06
-6.87405e-06
-6.14472e-05
-4.13337e-06
-6.87451e-06
0.000114804
5.67189e-05
0.000510576
-0.000101469
-7.2687e-05
9.63373e-05
9.44384e-06
7.90213e-05
5.68237e-05
0.000390903
2.52776e-05
0.000298855
3.4428e-05
9.796e-05
0.000667541
-0.000218561
-0.000149338
0.000281717
0.000162044
5.67266e-05
0.000114801
0.000510576
-0.000101468
-7.26862e-05
9.63384e-05
9.44447e-06
6.48578e-05
6.48534e-05
0.000411998
5.40341e-05
5.40952e-05
0.000331327
2.60937e-05
0.000272335
3.54755e-05
8.66381e-05
0.000443329
5.68258e-05
7.90175e-05
0.000390902
5.40982e-05
5.40293e-05
0.000331325
4.29916e-05
4.29888e-05
0.000288262
2.13854e-05
0.000247393
1.94375e-05
0.000329666
2.52824e-05
0.000298853
2.60974e-05
0.000272334
2.13889e-05
0.000247392
0.000222227
0.0020293
-0.000133966
-0.000133965
-0.00176141
-1.24186e-05
0.00055552
-0.000796286
-0.000354307
-0.000531073
-6.46411e-05
-4.35569e-05
-6.65128e-05
0.00051097
0.000432035
0.000370865
-0.00019087
-0.00011325
0.000203219
0.000333075
0.000237906
0.000119318
7.8168e-05
-6.69877e-05
-1.22673e-05
0.000331679
-7.43654e-06
0.000270539
-1.24182e-05
0.000555522
-0.000354312
-0.000796289
-0.00053108
-4.35561e-05
-6.46404e-05
-6.6512e-05
0.000510971
0.000432039
0.000370868
-0.000260256
-0.000260267
0.000109185
-0.000276831
-0.000180599
-0.000180599
-0.000153528
0.000332147
0.000115596
0.000109601
4.41044e-05
0.000332148
0.0001156
0.000109591
4.41072e-05
-8.4657e-05
-8.59146e-05
0.000307641
-2.14122e-05
-9.22645e-06
0.000324618
-3.481e-06
0.000270776
-0.000113233
-0.000190875
0.000203196
0.000333079
0.000237904
0.000119312
7.8165e-05
-8.59039e-05
-8.46599e-05
0.000307639
-3.07083e-05
-3.07127e-05
0.000301601
-4.12452e-06
7.90146e-07
0.000294726
2.49292e-06
0.000255932
-1.22659e-05
-6.69912e-05
0.000331681
-9.22441e-06
-2.14161e-05
0.000324617
7.9301e-07
-4.13106e-06
0.000294726
6.57999e-06
6.57672e-06
0.000276688
3.56237e-06
0.000245731
-7.43012e-06
0.000270534
-3.47371e-06
0.000270774
2.4979e-06
0.00025593
3.56639e-06
0.00024573
0.000221878
0.00341713
0.000518251
0.000518246
-0.000920431
-0.00133811
-0.00109751
-0.00109749
0.000736978
-0.000496054
0.000228418
8.92523e-05
-0.000558529
0.000163448
9.82614e-05
0.000650782
-9.46526e-05
-6.17352e-05
-0.000350618
-0.000202331
5.48777e-05
7.28089e-06
0.000432951
4.18994e-08
0.000316714
0.000737012
-0.000495966
8.92397e-05
0.000228358
-0.000558568
0.000234189
0.000234161
0.000228846
-9.45385e-05
-5.06032e-05
-0.000320653
-8.92596e-05
-9.4532e-05
-5.05872e-05
-0.000320696
-8.92473e-05
0.000185238
0.000185238
0.00015163
7.50306e-05
6.13631e-05
0.000503698
1.61351e-05
5.76226e-06
0.000385032
-1.0825e-05
0.000287773
9.83062e-05
0.000163431
0.000650798
-9.46468e-05
-6.17522e-05
-0.000350659
-0.000202339
6.13885e-05
7.50255e-05
0.000503693
1.03108e-05
1.03061e-05
0.000403735
-7.30354e-06
-7.19121e-06
0.000325294
-1.69016e-05
0.000262513
7.28019e-06
5.48763e-05
0.000432948
5.76254e-06
1.61281e-05
0.000385032
-7.18722e-06
-7.31244e-06
0.000325295
-1.13021e-05
-1.13052e-05
0.000284917
-1.70261e-05
0.000239942
5.68608e-08
0.000316718
-1.08141e-05
0.000287773
-1.68949e-05
0.000262514
-1.70205e-05
0.000239942
0.000214992
0.00203912
3.41101e-06
3.41679e-06
-0.00204594
-2.41614e-05
-0.00065702
0.000428563
9.54297e-05
0.000157357
-6.39593e-05
4.95112e-06
0.000921535
-0.000250731
-0.000199437
0.00011501
0.000123507
-6.26619e-05
-3.20738e-05
0.000463704
-1.02872e-05
0.000337059
-2.41673e-05
-0.000657026
9.54419e-05
0.000428568
0.000157367
-0.000107907
-0.000107911
0.000215495
0.000215485
0.000526134
-8.40802e-05
-9.0471e-05
-8.16656e-05
-8.40857e-05
-9.04764e-05
-8.16712e-05
-0.00010407
-2.90358e-05