/*--------------------------------*- C++ -*----------------------------------*\
| =========                 |                                                 |
| \\      /  F ield         | OpenFOAM: The Open Source CFD Toolbox           |
|  \\    /   O peration     | Version:  5.x                                   |
|   \\  /    A nd           | Web:      www.OpenFOAM.org                      |
|    \\/     M anipulation  |                                                 |
\*---------------------------------------------------------------------------*/
FoamFile
{
    version     2.0;
    format      ascii;
    class       volScalarField;
    location    "0.018";
    object      phiIB;
}
// * * * * * * * * * * * * * * * * * * * * * * * * * * * * * * * * * * * * * //

dimensions      [0 2 -1 0 0 0 0];

internalField   nonuniform List<scalar> 
1560
(
-5.19659e-06
-5.1961e-06
-5.1981e-06
-5.19707e-06
-5.20118e-06
-5.1961e-06
-5.19559e-06
-5.1976e-06
-5.19658e-06
-5.20069e-06
-5.1981e-06
-5.1976e-06
-5.1996e-06
-5.19859e-06
-5.20268e-06
-5.19707e-06
-5.19658e-06
-5.19859e-06
-5.19758e-06
-5.20167e-06
-5.20118e-06
-5.20069e-06
-5.20268e-06
-5.20167e-06
-5.20572e-06
-9.68572e-06
-9.68571e-06
-9.6869e-06
-9.68694e-06
-9.68944e-06
-9.68572e-06
-9.68573e-06
-9.68694e-06
-9.687e-06
-9.6895e-06
-9.6869e-06
-9.68694e-06
-9.68817e-06
-9.68823e-06
-9.69071e-06
-9.68694e-06
-9.687e-06
-9.68823e-06
-9.6883e-06
-9.69077e-06
-9.68944e-06
-9.6895e-06
-9.69071e-06
-9.69077e-06
-9.69318e-06
-2.41326e-05
-2.41326e-05
-2.41356e-05
-2.41358e-05
-2.41419e-05
-2.41326e-05
-2.41326e-05
-2.41356e-05
-2.41358e-05
-2.41419e-05
-2.41356e-05
-2.41356e-05
-2.41386e-05
-2.41388e-05
-2.41448e-05
-2.41358e-05
-2.41358e-05
-2.41388e-05
-2.4139e-05
-2.4145e-05
-2.41419e-05
-2.41419e-05
-2.41448e-05
-2.4145e-05
-2.41509e-05
-3.12293e-05
-3.12295e-05
-3.12331e-05
-3.12337e-05
-3.12407e-05
-3.12295e-05
-3.12297e-05
-3.12333e-05
-3.12338e-05
-3.12407e-05
-3.12331e-05
-3.12333e-05
-3.12368e-05
-3.12373e-05
-3.12442e-05
-3.12337e-05
-3.12338e-05
-3.12373e-05
-3.12377e-05
-3.12445e-05
-3.12407e-05
-3.12407e-05
-3.12442e-05
-3.12445e-05
-3.12512e-05
-4.38233e-05
-4.38236e-05
-4.38292e-05
-4.383e-05
-4.38407e-05
-4.38236e-05
-4.38238e-05
-4.38293e-05
-4.383e-05
-4.38407e-05
-4.38292e-05
-4.38293e-05
-4.38347e-05
-4.38353e-05
-4.38459e-05
-4.383e-05
-4.383e-05
-4.38353e-05
-4.3836e-05
-4.38465e-05
-4.38407e-05
-4.38407e-05
-4.38459e-05
-4.38464e-05
-4.38567e-05
-5.28325e-05
-5.28328e-05
-5.28404e-05
-5.28414e-05
-5.28561e-05
-5.28328e-05
-5.28329e-05
-5.28404e-05
-5.28414e-05
-5.28561e-05
-5.28404e-05
-5.28404e-05
-5.28477e-05
-5.28486e-05
-5.2863e-05
-5.28414e-05
-5.28414e-05
-5.28486e-05
-5.28494e-05
-5.28638e-05
-5.28561e-05
-5.2856e-05
-5.2863e-05
-5.28638e-05
-5.28778e-05
-6.38094e-05
-6.38096e-05
-6.38204e-05
-6.38217e-05
-6.3843e-05
-6.38096e-05
-6.38097e-05
-6.38203e-05
-6.38217e-05
-6.38429e-05
-6.38204e-05
-6.38203e-05
-6.38307e-05
-6.3832e-05
-6.38528e-05
-6.38217e-05
-6.38217e-05
-6.3832e-05
-6.38332e-05
-6.3854e-05
-6.3843e-05
-6.38429e-05
-6.38528e-05
-6.3854e-05
-6.38741e-05
-7.39428e-05
-7.39429e-05
-7.3958e-05
-7.39597e-05
-7.399e-05
-7.39429e-05
-7.39428e-05
-7.39578e-05
-7.39595e-05
-7.39897e-05
-7.3958e-05
-7.39578e-05
-7.39724e-05
-7.3974e-05
-7.40036e-05
-7.39597e-05
-7.39595e-05
-7.3974e-05
-7.39758e-05
-7.40051e-05
-7.399e-05
-7.39897e-05
-7.40036e-05
-7.40051e-05
-7.40334e-05
-8.40372e-05
-8.40372e-05
-8.40586e-05
-8.40609e-05
-8.41041e-05
-8.40372e-05
-8.4037e-05
-8.40583e-05
-8.40606e-05
-8.41036e-05
-8.40586e-05
-8.40583e-05
-8.40788e-05
-8.40809e-05
-8.4123e-05
-8.40609e-05
-8.40606e-05
-8.4081e-05
-8.40832e-05
-8.4125e-05
-8.41041e-05
-8.41036e-05
-8.4123e-05
-8.4125e-05
-8.41651e-05
-9.45547e-05
-9.45534e-05
-9.45822e-05
-9.45834e-05
-9.46443e-05
-9.45534e-05
-9.4552e-05
-9.45807e-05
-9.45821e-05
-9.46428e-05
-9.45822e-05
-9.45807e-05
-9.46082e-05
-9.46096e-05
-9.46687e-05
-9.45834e-05
-9.45821e-05
-9.46096e-05
-9.46113e-05
-9.467e-05
-9.46443e-05
-9.46428e-05
-9.46687e-05
-9.467e-05
-9.47257e-05
-0.000104224
-0.00010422
-0.000104258
-0.000104256
-0.00010434
-0.00010422
-0.000104216
-0.000104254
-0.000104252
-0.000104336
-0.000104258
-0.000104254
-0.00010429
-0.000104288
-0.00010437
-0.000104256
-0.000104252
-0.000104288
-0.000104286
-0.000104368
-0.00010434
-0.000104336
-0.00010437
-0.000104368
-0.000104445
-0.000114665
-0.000114649
-0.000114687
-0.000114662
-0.000114772
-0.000114649
-0.000114633
-0.000114671
-0.000114649
-0.000114761
-0.000114687
-0.000114671
-0.000114708
-0.00011469
-0.000114798
-0.000114662
-0.00011465
-0.00011469
-0.000114676
-0.000114785
-0.000114772
-0.000114761
-0.000114798
-0.000114785
-0.000114886
-0.000124128
-0.000124053
-0.000124032
-0.000123949
-0.000124089
-0.000124053
-0.000123992
-0.000123991
-0.000123921
-0.000124063
-0.000124032
-0.000123992
-0.000124019
-0.000123962
-0.000124101
-0.000123949
-0.000123921
-0.000123962
-0.000123919
-0.000124062
-0.000124089
-0.000124064
-0.000124101
-0.000124062
-0.000124196
-0.000134264
-0.000134123
-0.000134006
-0.000133802
-0.000133925
-0.000134123
-0.000133996
-0.000133911
-0.000133724
-0.000133864
-0.000134006
-0.000133911
-0.000133872
-0.000133725
-0.000133882
-0.000133802
-0.000133724
-0.000133725
-0.000133615
-0.000133793
-0.000133925
-0.000133864
-0.000133882
-0.000133793
-0.000133956
-0.000142287
-0.00014227
-0.000142355
-0.0001421
-0.000142161
-0.00014227
-0.000142219
-0.000142229
-0.000141957
-0.00014207
-0.000142355
-0.000142229
-0.00014213
-0.000141885
-0.000142094
-0.000142101
-0.000141957
-0.000141885
-0.000141715
-0.000141983
-0.000142161
-0.00014207
-0.000142094
-0.000141983
-0.000142265
-0.000148881
-0.000149003
-0.000149438
-0.000149528
-0.000149854
-0.000149003
-0.000149102
-0.000149498
-0.000149514
-0.000149813
-0.000149438
-0.000149498
-0.000149778
-0.000149654
-0.000149977
-0.000149528
-0.000149514
-0.000149654
-0.000149538
-0.000149963
-0.000149855
-0.000149813
-0.000149977
-0.000149963
-0.000150482
-0.000152383
-0.00015264
-0.000153396
-0.000153854
-0.000154822
-0.00015264
-0.000152877
-0.000153637
-0.000154043
-0.000154859
-0.000153396
-0.000153637
-0.00015445
-0.000154745
-0.000155364
-0.000153854
-0.000154043
-0.000154745
-0.000154882
-0.00015557
-0.000154822
-0.000154859
-0.000155364
-0.00015557
-0.000156388
-0.000154416
-0.000154929
-0.000156203
-0.00015714
-0.000158755
-0.000154929
-0.000155388
-0.000156568
-0.000157393
-0.000158881
-0.000156203
-0.000156567
-0.000157643
-0.000158329
-0.000159617
-0.00015714
-0.000157393
-0.000158329
-0.000158852
-0.000160057
-0.000158755
-0.000158881
-0.000159617
-0.000160057
-0.000161184
-0.000152923
-0.000153746
-0.000155754
-0.000157424
-0.000159945
-0.000153746
-0.000154502
-0.000156377
-0.000157886
-0.000160288
-0.000155754
-0.000156377
-0.000157997
-0.000159247
-0.000161352
-0.000157423
-0.000157886
-0.000159247
-0.000160189
-0.000162061
-0.000159945
-0.000160288
-0.000161352
-0.000162061
-0.000163644
-0.000153119
-0.000153935
-0.000156315
-0.000158245
-0.00016163
-0.000153935
-0.000154737
-0.000157018
-0.000158827
-0.000162018
-0.000156315
-0.000157018
-0.000159078
-0.000160586
-0.000163438
-0.000158245
-0.000158827
-0.000160586
-0.000161797
-0.000164413
-0.000161629
-0.000162018
-0.000163438
-0.000164413
-0.000166688
-0.000149036
-0.00015013
-0.000152899
-0.000155437
-0.000160509
-0.00015013
-0.000151126
-0.000153831
-0.000156265
-0.000161089
-0.000152899
-0.000153831
-0.000156474
-0.000158702
-0.000163026
-0.000155437
-0.000156265
-0.000158702
-0.00016054
-0.000164386
-0.000160509
-0.000161089
-0.000163026
-0.000164386
-0.000167468
-0.000148254
-0.000149683
-0.000153571
-0.00015651
-0.000163013
-0.000149683
-0.000151022
-0.000154618
-0.000157394
-0.00016343
-0.000153571
-0.000154618
-0.000157911
-0.000160263
-0.000165525
-0.00015651
-0.000157394
-0.000160263
-0.000162129
-0.000166817
-0.000163013
-0.00016343
-0.000165525
-0.000166817
-0.000170773
-0.000136957
-0.000139982
-0.000145389
-0.000150152
-0.000159014
-0.000139982
-0.000142438
-0.000147428
-0.000151562
-0.000159985
-0.000145389
-0.000147428
-0.000151768
-0.00015522
-0.000162472
-0.000150153
-0.000151563
-0.00015522
-0.000157997
-0.000164211
-0.000159014
-0.000159985
-0.000162472
-0.000164211
-0.000169447
-0.000131488
-0.000135633
-0.000143722
-0.000150044
-0.00016285
-0.000135633
-0.000139333
-0.000146203
-0.000151827
-0.000163109
-0.000143722
-0.000146203
-0.000152221
-0.000156372
-0.00016612
-0.000150045
-0.000151827
-0.000156372
-0.0001594
-0.000167426
-0.00016285
-0.00016311
-0.000166119
-0.000167426
-0.000173979
-0.000101006
-0.000112059
-0.000123316
-0.000135545
-0.000152803
-0.00011206
-0.0001197
-0.000129322
-0.000138983
-0.000154176
-0.000123317
-0.000129322
-0.000137461
-0.000145078
-0.000157077
-0.000135545
-0.000138984
-0.000145078
-0.000149333
-0.000159575
-0.000152803
-0.000154176
-0.000157077
-0.000159575
-0.000168211
-8.4542e-05
-9.94741e-05
-0.00011757
-0.000132505
-0.000156417
-9.94746e-05
-0.000112145
-0.00012484
-0.000137394
-0.000156497
-0.000117571
-0.00012484
-0.000136274
-0.000144594
-0.000161935
-0.000132506
-0.000137395
-0.000144594
-0.000149562
-0.000164269
-0.000156418
-0.000156497
-0.000161935
-0.000164269
-0.000175328
4.24974e-06
-4.52861e-05
-7.09922e-05
-0.000104292
-0.000134557
-4.52867e-05
-7.22702e-05
-9.08469e-05
-0.000113774
-0.000139001
-7.0993e-05
-9.08474e-05
-0.000105883
-0.000122965
-0.000144493
-0.000104294
-0.000113775
-0.000122965
-0.000132083
-0.000150401
-0.000134558
-0.000139001
-0.000144492
-0.0001504
-0.00016306
4.87673e-05
-1.3249e-05
-6.09548e-05
-9.93517e-05
-0.000145198
-1.32502e-05
-6.39768e-05
-8.42774e-05
-0.000113233
-0.000148743
-6.09562e-05
-8.42783e-05
-0.000105112
-0.00012278
-0.000157372
-9.93538e-05
-0.000113235
-0.00012278
-0.000138184
-0.000161304
-0.000145199
-0.000148743
-0.000157371
-0.000161304
-0.000176551
0.000360655
0.000105945
3.4758e-05
-5.63777e-05
-0.000108928
0.000105943
8.79582e-06
-2.83036e-05
-7.71056e-05
-0.00012272
3.47548e-05
-2.83054e-05
-5.20464e-05
-9.41078e-05
-0.000129872
-5.6382e-05
-7.71085e-05
-9.41086e-05
-0.000116064
-0.000141989
-0.00010893
-0.000122721
-0.000129872
-0.000141989
-0.000156055
0.000713725
0.000227871
4.30963e-05
-6.80854e-05
-0.000150131
0.000227866
-8.31174e-06
-3.64064e-05
-0.000109798
-0.000155304
4.30899e-05
-3.64096e-05
-8.371e-05
-0.000124287
-0.000162326
-6.80936e-05
-0.000109804
-0.000124289
-0.000145262
-0.000165382
-0.000150135
-0.000155307
-0.000162326
-0.000165382
-0.000178001
0.00328503
0.000867801
0.000138077
-5.5047e-05
-9.80676e-05
0.000867795
0.000138399
1.57049e-05
-7.04965e-05
-0.00011947
0.000138064
1.56998e-05
-3.06332e-05
-9.51041e-05
-0.00012531
-5.50611e-05
-7.05037e-05
-9.51062e-05
-0.000118438
-0.000139988
-9.80769e-05
-0.000119476
-0.000125311
-0.000139988
-0.00015042
0.000711635
-0.000141511
-0.000206281
-0.000174755
-0.000187188
-0.000141524
-0.000159293
-0.000179652
-0.000164807
-0.00018457
-0.000206297
-0.000179657
-0.000170227
-0.000170886
-0.0001783
-0.000174773
-0.000164814
-0.000170889
-0.000170064
-0.000178306
-0.000187197
-0.000184575
-0.000178301
-0.000178306
-0.000178011
-0.00260424
-0.000432944
-0.000153276
-0.000150028
-0.000141201
-0.000432962
-0.000170182
-0.000144644
-0.000146964
-0.000142069
-0.000153307
-0.00014465
-0.000138076
-0.0001425
-0.000142525
-0.000150053
-0.000146973
-0.000142505
-0.000147447
-0.000146964
-0.000141219
-0.000142077
-0.000142529
-0.000146965
-0.000149361
0.000768971
4.88097e-05
-0.000142265
-0.00017854
-0.000185649
4.87855e-05
-0.000111508
-0.000177404
-0.000183991
-0.000189714
-0.000142314
-0.000177413
-0.000178167
-0.000187911
-0.000181725
-0.000178572
-0.000184001
-0.000187916
-0.000187578
-0.00018346
-0.000185667
-0.000189722
-0.000181727
-0.000183461
-0.000174567
0.00269811
0.00050453
-0.000310371
-0.000211505
-0.000165938
0.00050439
-6.23033e-06
-0.000222052
-0.000193666
-0.000157309
-0.000310427
-0.000222062
-0.000192221
-0.000173506
-0.000148768
-0.00021154
-0.000193677
-0.000173512
-0.000163576
-0.000146793
-0.000165967
-0.000157319
-0.000148772
-0.000146794
-0.000140335
-0.00255704
-0.00105629
-0.000436328
-0.00029806
-0.000245894
-0.00105638
-0.000407967
-0.000342336
-0.000272709
-0.000228719
-0.000436366
-0.000342345
-0.000288973
-0.000245877
-0.000211642
-0.000298091
-0.000272722
-0.000245881
-0.000226293
-0.000201488
-0.000245915
-0.000228729
-0.000211645
-0.000201488
-0.000182791
-0.00108207
-0.00046989
-0.00028786
-0.000221695
-0.000156257
-0.000469908
-0.000309064
-0.000245677
-0.00019026
-0.000151361
-0.000287886
-0.000245684
-0.00019701
-0.000170414
-0.000139485
-0.000221719
-0.000190272
-0.000170418
-0.000154698
-0.000137836
-0.000156276
-0.000151371
-0.000139487
-0.000137836
-0.000124627
-0.000522814
-0.0004072
-0.00032274
-0.000271192
-0.00022189
-0.000407208
-0.000338225
-0.00028614
-0.000257252
-0.000214575
-0.000322751
-0.000286143
-0.000258288
-0.000236635
-0.000200158
-0.000271205
-0.000257258
-0.000236637
-0.000223145
-0.000193444
-0.000221898
-0.00021458
-0.000200158
-0.000193443
-0.000170446
-0.000147099
-0.000145341
-0.000119886
-0.000116233
-9.753e-05
-0.000145345
-0.00012704
-0.00011866
-0.000111908
-9.63367e-05
-0.000119893
-0.000118663
-0.000110279
-0.000108216
-8.98773e-05
-0.00011624
-0.000111912
-0.000108217
-0.000102284
-8.81657e-05
-9.75345e-05
-9.63395e-05
-8.98775e-05
-8.81649e-05
-7.61727e-05
-0.000196447
-0.000161997
-0.000119986
-9.6461e-05
-5.92066e-05
-0.000161997
-0.000133381
-0.000103354
-8.97816e-05
-6.15191e-05
-0.000119986
-0.000103354
-8.02425e-05
-7.77258e-05
-5.31215e-05
-9.64619e-05
-8.97827e-05
-7.77265e-05
-8.00067e-05
-6.09393e-05
-5.9207e-05
-6.15192e-05
-5.31206e-05
-6.0938e-05
-4.40305e-05
0.00109289
0.00109289
0.000508378
0.00231673
0.00182848
0.00182847
0.000424398
0.000281499
0.000544727
0.000171846
0.000241369
0.000188181
0.000412863
0.000112424
0.000544725
0.000281489
0.000171839
0.000241359
0.00041286
0.000188168
0.000112415
0.000504304
0.000504294
0.000189149
-0.0026023
-0.00114671
-0.00114672
-0.000371555
-0.000110398
-4.80829e-05
-0.00010812
-0.000785536
-0.000260431
-0.00041514
-0.000222199
-4.80847e-05
-0.000110415
-0.000108129
-0.000785553
-0.000415145
-0.00026045
-0.00022221
-0.000117859
-0.000117866
-9.95116e-05
-0.000277548
-0.000189914
-0.000189921
-0.000143999
-0.00106754
-0.00106756
-0.000454058
-0.000284211
-0.000334154
-0.000334171
-0.000301058
-0.000238216
-0.000331108
-0.000192942
-0.000211518
-0.000175981
-0.000228262
-0.000166201
-0.000331108
-0.000238236
-0.000192953
-0.000211549
-0.000228274
-0.000176009
-0.000166219
0.000336105
0.000336102
0.000148032
0.00451496
0.000915909
0.000915734
0.00020733
-5.29019e-05
-2.8041e-06
-7.10965e-05
0.000321697
1.19059e-05
-1.82042e-06
-3.65504e-05
-2.81971e-06
-5.29223e-05
-7.11161e-05
0.000321608
-1.85712e-06
1.18884e-05
-3.65691e-05
0.00128681
0.00128666
0.000129866
-0.00145626
-0.00243661
-0.00243678
-0.000877912
-9.66569e-05
6.07394e-05
2.37277e-05
-0.000734228
-0.000406654
-0.000615503
-0.000369161
6.075e-05
-9.6698e-05
2.37188e-05
-0.000734343
-0.000615507
-0.000406725
-0.000369188
-0.000185174
-0.000185187
-0.000178296
-0.000422224
-0.000343237
-0.000343253
-0.000286435
-0.00192536
-0.00192548
-0.000834983
-0.00158814
-0.000872281
-0.000872319
-0.000547534
-0.000550888
-0.000781257
-0.000440459
-0.000821679
-0.00051212
-0.000690257
-0.000425157
-0.00078128
-0.000550951
-0.000440493
-0.000821722
-0.000690272
-0.000512168
-0.000425181
-0.000954872
-0.000954889
-0.000816538
-0.000651159
-0.000544072
-0.000544081
-0.000449516
-0.000653201
0.000518714
0.000518712
-0.000507519
0.000296928
-0.000591179
-0.000591183
-0.000241821
0.000208783
-0.000158675
-0.00035959
0.000152592
-0.000312403
-0.000277722
-0.000241833
-0.000158684
0.000208771
-0.000359604
0.000152581
-0.000312413
-0.000277737
-0.000679116
-0.00188115
-0.00188116
-0.00119697
-0.00165191
-0.000976176
-0.000976187
0.000655078
0.00252137
0.00252126
0.000986854
0.00234268
0.000794224
0.000794111
-7.91911e-05
0.000132207
0.000384718
-0.000259601
-2.38928e-05
-0.000251911
5.65755e-05
-7.92126e-05
0.0003847
0.000132137
-0.000259736
-2.39212e-05
-0.000251958
5.64939e-05
-0.00222973
-0.00250083
-0.00250089
-0.00359814
-0.00250139
-0.00294809
-0.00294813
-0.000684401
-0.000803665
-0.00105529
-0.00115181
-0.000720961
-0.00110325
-0.000772221
-0.000684446
-0.00105534
-0.000803747
-0.00115188
-0.000721018
-0.00110329
-0.000772286
0.00316274
0.00451825
0.00201852
0.00201851
0.00172595
0.0043302
0.0043302
0.00210984
0.00136989
0.00108869
0.00113667
0.000866006
0.00122193
0.00273262
0.00210984
0.00136989
0.00108869
0.00113667
0.000866001
0.00122193
0.00273262
0.00160094
0.000542659
0.000445933
0.00044593
0.00084825
0.000848248
0.00145655
-0.000703479
0.000157711
0.000394246
-0.00158433
-0.000168956
-0.00116158
-0.000751567
-0.000703483
0.000157705
0.000394239
-0.00158435
-0.000168959
-0.00116159
-0.000751575
-0.00118727
-0.000125512
-0.000125515
-0.00035114
-9.05592e-05
-0.000517585
-0.000517589
-0.00155703
-0.0015592
-0.00254085
-0.00254086
-0.00216161
-0.00156228
-0.00156229
-0.00150324
-0.00184949
-0.00210269
-0.000827619
-0.00129922
-0.00183207
-0.00144212
-0.00150325
-0.0018495
-0.00210271
-0.000827628
-0.00129922
-0.00183207
-0.00144214
-0.00182155
-0.000493726
-0.000842139
-0.000842145
-0.000757331
-0.000757335
-0.00152245
-0.000211027
-7.41733e-05
6.92139e-05
-0.000212298
-3.38163e-06
-0.000290837
-0.000196535
-0.000366006
-0.000530675
-0.000412052
-0.000733366
-0.00057251
-0.00031874
-0.000453549
-0.000211036
-7.41788e-05
6.92096e-05
-0.0002123
-3.38961e-06
-0.000290843
-0.000196539
-0.000366019
-0.000530691
-0.000733378
-0.00041207
-0.000572521
-0.000318753
-0.000453566
-0.00076434
-0.00169383
-0.000866566
-0.000505325
-0.0014372
-0.000340189
-0.000874139
-0.000764343
-0.00169385
-0.000866574
-0.000505352
-0.00143721
-0.000340201
-0.000874154
-0.00073471
-0.000735301
-0.000735308
-0.000138031
-0.00103651
-0.00044898
-0.000448989
0.00179075
0.00245244
0.00300621
0.00300614
0.0020231
0.00220925
0.00220922
0.00113659
0.000709981
0.00203691
0.00072441
0.000448475
0.00182996
0.00158615
0.00113651
0.000709939
0.00203682
0.000724401
0.000448484
0.00183001
0.00158609
0.000250455
0.00193146
0.000617533
0.00139405
0.0016825
0.000721203
0.000247637
0.000250374
0.0019313
0.000617464
0.00139382
0.00168246
0.000721105
0.000247418
0.000613398
0.000492433
0.000492403
-2.54298e-05
0.00138705
-5.31116e-05
-5.3147e-05
-0.000551743
-0.000339231
-0.00146443
-0.0014645
-0.00152314
-0.000443808
-0.000443898
-0.000759873
-0.000910709
-0.00138466
-0.00197878
-0.000739483
-0.00151137
-0.000658015
-0.000759941
-0.000910898
-0.00138479
-0.00197886
-0.000739583
-0.00151142
-0.000658188
-0.00108012
-0.00045205
-0.000976586
-0.000976618
-0.000704112
-0.000704143
-0.00192173
-0.000370054
-0.000451819
-0.000788447
-0.00072858
-0.000503574
-0.000729444
-0.00038126
-0.000526975
-0.000538138
-0.000667524
-0.000585209
-0.000471037
-0.000431142
-0.00063439
-0.000370092
-0.000451933
-0.000728641
-0.000788539
-0.000503616
-0.000729495
-0.000381348
-0.000527009
-0.00053814
-0.000667557
-0.000585232
-0.000471053
-0.000431167
-0.000634432
-0.00212636
-0.00222432
-0.00159727
-0.00141161
-0.00235291
-0.00130228
-0.00233218
-0.00212639
-0.00222442
-0.00159733
-0.00141168
-0.00235295
-0.00130232
-0.00233224
-0.00181546
-0.00121827
-0.00121829
-0.000763045
-0.00218518
-0.0011939
-0.00119392
-0.00191661
-0.00227318
-0.00135275
-0.00135277
-0.00113432
-0.0020998
-0.00209982
-0.00152439
-0.00135497
-0.00128861
-0.000766254
-0.00122264
-0.00118152
-0.00176782
-0.00152441
-0.00135502
-0.00128864
-0.000766277
-0.00122267
-0.00118154
-0.00176786
-0.00134287
-0.000824727
-0.000844464
-0.000844477
-0.00106973
-0.00106974
-0.00109226
0.00043731
0.000437309
0.000252908
0.0014923
0.00102272
0.00102272
0.000669622
0.00295496
0.00265727
0.00265727
0.00447225
0.00200147
0.00328331
0.00328331
0.0023759
0.00184093
0.000869037
0.00151672
0.00154773
0.00127292
0.00272682
0.0023759
0.00184092
0.000869034
0.00151672
0.00154772
0.00127291
0.00272682
0.00039272
0.000831004
0.000517767
0.000434225
0.000770732
0.000372567
0.000502949
0.000392712
0.000830997
0.000434218
0.000517756
0.000770726
0.000372558
0.00050294
0.000863018
2.81726e-05
0.000542296
0.00054225
0.000424948
0.000424915
0.00124323
0.00158206
0.000789414
0.000789412
0.000703535
0.00121201
0.00103073
0.00103073
-0.000330655
0.000748485
-0.000192953
-0.000305731
-0.000186908
8.11225e-05
-0.000223699
-0.000330693
0.000748466
-0.000192987
-0.000305726
-0.000186955
8.11024e-05
-0.000223729
)
;

boundaryField
{
    inlet
    {
        type            fixedValue;
        value           uniform 0;
    }
    wall
    {
        type            zeroGradient;
    }
    outlet
    {
        type            fixedValue;
        value           uniform 0;
    }
    procBoundary3to1
    {
        type            processor;
        value           nonuniform List<scalar> 
320
(
-5.19666e-06
-5.19614e-06
-5.19811e-06
-5.19708e-06
-5.20117e-06
-9.68579e-06
-9.68575e-06
-9.68692e-06
-9.68695e-06
-9.68943e-06
-2.41326e-05
-2.41326e-05
-2.41356e-05
-2.41358e-05
-2.41419e-05
-3.12294e-05
-3.12295e-05
-3.12332e-05
-3.12337e-05
-3.12406e-05
-4.38235e-05
-4.38237e-05
-4.38292e-05
-4.383e-05
-4.38407e-05
-5.28327e-05
-5.28328e-05
-5.28404e-05
-5.28414e-05
-5.28561e-05
-6.38096e-05
-6.38096e-05
-6.38204e-05
-6.38217e-05
-6.3843e-05
-7.39432e-05
-7.39429e-05
-7.3958e-05
-7.39597e-05
-7.399e-05
-8.40375e-05
-8.40372e-05
-8.40586e-05
-8.40609e-05
-8.41041e-05
-9.45551e-05
-9.45534e-05
-9.45821e-05
-9.45834e-05
-9.46443e-05
-0.000104224
-0.00010422
-0.000104258
-0.000104256
-0.00010434
-0.000114665
-0.000114649
-0.000114686
-0.000114662
-0.000114772
-0.000124128
-0.000124053
-0.000124032
-0.000123949
-0.000124089
-0.000134265
-0.000134123
-0.000134006
-0.000133801
-0.000133925
-0.000142287
-0.00014227
-0.000142355
-0.0001421
-0.000142161
-0.000148881
-0.000149003
-0.000149439
-0.000149528
-0.000149855
-0.000152384
-0.000152642
-0.000153397
-0.000153856
-0.000154824
-0.000154416
-0.00015493
-0.000156205
-0.000157142
-0.000158757
-0.000152923
-0.000153748
-0.000155757
-0.000157427
-0.000159949
-0.000153118
-0.000153935
-0.000156317
-0.000158249
-0.000161634
-0.000149034
-0.000150128
-0.000152901
-0.000155442
-0.000160516
-0.000148253
-0.000149682
-0.000153572
-0.000156513
-0.000163017
-0.000136957
-0.000139982
-0.000145392
-0.000150157
-0.000159026
-0.000131489
-0.000135636
-0.000143726
-0.000150051
-0.000162859
-0.000101012
-0.000112064
-0.000123324
-0.000135555
-0.000152816
-8.4548e-05
-9.94835e-05
-0.000117581
-0.00013252
-0.000156437
4.23956e-06
-4.52969e-05
-7.10031e-05
-0.00010431
-0.000134583
4.87723e-05
-1.32451e-05
-6.09686e-05
-9.93707e-05
-0.000145235
0.000360651
0.000105926
3.47516e-05
-5.6388e-05
-0.000108939
0.000713751
0.000227964
4.30888e-05
-6.80618e-05
-0.00015016
0.00328517
0.000867734
0.00013808
-5.50086e-05
-9.80583e-05
0.000711583
-0.000141394
-0.000206178
-0.00017466
-0.00018721
-0.00260396
-0.000432753
-0.000153198
-0.000150002
-0.00014116
0.000768994
4.8813e-05
-0.000142104
-0.000178491
-0.000185667
0.00269826
0.000505845
-0.000310858
-0.000211505
-0.000165938
-0.00255694
-0.0010562
-0.000436391
-0.000298037
-0.000245947
-0.00108275
-0.000469867
-0.00028788
-0.000221713
-0.000156247
-0.000522914
-0.000407192
-0.000322785
-0.000271175
-0.000221909
-0.000147073
-0.000145347
-0.000119868
-0.000116211
-9.75131e-05
-0.000196456
-0.000162011
-0.000119999
-9.64974e-05
-5.92094e-05
0.00231675
0.0018287
0.00109292
0.000241539
0.000188249
0.000281457
-0.00260223
-0.00114671
0.000504404
-0.000785759
-0.00026095
-0.000110535
-0.000284313
-0.000334234
-0.00106745
-0.000211488
-0.000175963
-0.00023834
0.00451498
0.000916218
0.000336122
0.000321909
1.2067e-05
-5.30205e-05
-0.00145614
-0.00243645
0.00128829
-0.000734172
-0.000406545
-9.61018e-05
-0.00158788
-0.000872125
-0.00192524
-0.000821611
-0.000512133
-0.000551127
-0.000650885
-0.000543982
-0.000954789
-0.000507594
-0.00059122
0.000518677
-0.000359644
-0.000277473
0.000208937
-0.00119672
-0.00097606
-0.00188109
0.000987009
0.000794464
0.00252168
-0.000259336
5.67307e-05
0.000131594
-0.00359799
-0.00294819
-0.00250077
-0.00115169
-0.000772248
-0.000803671
0.00201855
0.00433043
0.00451837
0.00136992
0.0027331
0.0010888
-0.00254077
-0.00156226
-0.00155925
-0.00184939
-0.00144187
-0.00210236
0.00015773
-0.000751528
-0.00158436
-0.000411458
-0.000453333
-0.000530353
-0.00169375
-0.000873996
-0.000505201
0.00300641
0.00220937
0.00245253
0.000710222
0.00158632
0.00203733
-0.00146431
-0.000443655
-0.000339098
-0.000910428
-0.000657833
-0.00138452
0.0019319
0.000248007
0.00139506
-0.00078854
-0.00038129
-0.000451377
-0.00135255
-0.00209957
-0.00227311
-0.00135484
-0.00176771
-0.00128861
-0.00222419
-0.00233176
-0.00141151
0.00149232
0.00102268
0.000437326
0.00447237
0.00328349
0.00265741
0.00184108
0.00272686
0.00151688
0.000517927
0.000502944
0.000831205
)
;
    }
    procBoundary3to2
    {
        type            processor;
        value           nonuniform List<scalar> 
320
(
-5.19666e-06
-5.19614e-06
-5.19811e-06
-5.19708e-06
-5.20116e-06
-9.68579e-06
-9.68575e-06
-9.68692e-06
-9.68695e-06
-9.68943e-06
-2.41326e-05
-2.41326e-05
-2.41356e-05
-2.41358e-05
-2.41419e-05
-3.12294e-05
-3.12295e-05
-3.12332e-05
-3.12337e-05
-3.12406e-05
-4.38235e-05
-4.38237e-05
-4.38292e-05
-4.383e-05
-4.38407e-05
-5.28327e-05
-5.28328e-05
-5.28404e-05
-5.28414e-05
-5.28561e-05
-6.38096e-05
-6.38096e-05
-6.38204e-05
-6.38217e-05
-6.3843e-05
-7.39432e-05
-7.39429e-05
-7.3958e-05
-7.39597e-05
-7.399e-05
-8.40375e-05
-8.40372e-05
-8.40586e-05
-8.40609e-05
-8.41041e-05
-9.45551e-05
-9.45535e-05
-9.45822e-05
-9.45834e-05
-9.46443e-05
-0.000104224
-0.00010422
-0.000104258
-0.000104256
-0.00010434
-0.000114665
-0.000114649
-0.000114686
-0.000114662
-0.000114772
-0.000124128
-0.000124054
-0.000124032
-0.000123949
-0.000124089
-0.000134265
-0.000134123
-0.000134006
-0.000133802
-0.000133925
-0.000142287
-0.00014227
-0.000142356
-0.000142101
-0.000142161
-0.000148881
-0.000149003
-0.000149438
-0.000149528
-0.000149855
-0.000152384
-0.000152641
-0.000153397
-0.000153856
-0.000154823
-0.000154415
-0.000154929
-0.000156204
-0.000157141
-0.000158756
-0.000152923
-0.000153747
-0.000155756
-0.000157426
-0.000159948
-0.000153118
-0.000153935
-0.000156316
-0.000158248
-0.000161632
-0.000149034
-0.000150128
-0.0001529
-0.000155441
-0.000160515
-0.000148253
-0.000149682
-0.000153571
-0.000156512
-0.000163016
-0.000136956
-0.000139982
-0.000145392
-0.000150156
-0.000159025
-0.000131489
-0.000135636
-0.000143725
-0.000150051
-0.000162858
-0.000101011
-0.000112064
-0.000123324
-0.000135554
-0.000152815
-8.45472e-05
-9.94832e-05
-0.00011758
-0.000132519
-0.000156435
4.24083e-06
-4.52962e-05
-7.10028e-05
-0.00010431
-0.000134581
4.87732e-05
-1.32449e-05
-6.09691e-05
-9.93713e-05
-0.000145233
0.000360651
0.000105925
3.47494e-05
-5.63907e-05
-0.000108941
0.00071375
0.000227962
4.30857e-05
-6.80662e-05
-0.000150164
0.00328517
0.000867729
0.000138071
-5.50183e-05
-9.8068e-05
0.000711581
-0.000141406
-0.000206198
-0.000174678
-0.000187224
-0.00260396
-0.000432782
-0.000153251
-0.000150036
-0.000141186
0.000768938
4.88144e-05
-0.000142255
-0.000178545
-0.000185701
0.00269812
0.000505358
-0.000310974
-0.00021156
-0.000165974
-0.00255699
-0.00105632
-0.000436456
-0.000298075
-0.000245971
-0.00108277
-0.000469892
-0.000287905
-0.000221732
-0.000156263
-0.00052292
-0.0004072
-0.000322794
-0.000271185
-0.000221915
-0.000147074
-0.00014535
-0.000119872
-0.000116216
-9.75157e-05
-0.000196455
-0.00016201
-0.000119997
-9.64972e-05
-5.92093e-05
0.00109292
0.00182869
0.00231675
0.00028145
0.000188236
0.000241529
0.000504393
-0.00114673
-0.00260223
-0.000110551
-0.000260973
-0.000785777
-0.00106747
-0.000334299
-0.000284347
-0.000238365
-0.000176014
-0.000211556
0.000336007
0.000915747
0.00451482
-5.3065e-05
1.19569e-05
0.000321884
0.00128755
-0.0024367
-0.0014562
-9.63874e-05
-0.000406755
-0.000734354
-0.0019254
-0.00087217
-0.0015879
-0.000551248
-0.000512201
-0.000821675
-0.000954819
-0.000543998
-0.000650892
0.000518671
-0.000591226
-0.000507597
0.000208925
-0.000277489
-0.000359659
-0.0018811
-0.000976076
-0.00119673
0.00252137
0.000794208
0.000986898
0.000131397
5.64892e-05
-0.000259724
-0.00250088
-0.00294828
-0.00359804
-0.000803776
-0.000772325
-0.00115177
0.0010888
0.0027331
0.00136991
0.00451837
0.00433043
0.00201855
-0.00158437
-0.000751539
0.000157722
-0.00210238
-0.00144188
-0.00184941
-0.00155925
-0.00156227
-0.00254078
-0.000530368
-0.000453349
-0.000411479
-0.000505231
-0.000874014
-0.00169377
0.00203691
0.00158613
0.000710127
0.00245246
0.00220923
0.00300614
0.00139447
0.000247557
0.0019313
-0.00138474
-0.000658127
-0.000910756
-0.000339179
-0.00044384
-0.00146445
-0.000451603
-0.000381486
-0.00078869
-0.0014116
-0.00233185
-0.00222436
-0.00128865
-0.00176776
-0.0013549
-0.00227314
-0.00209962
-0.00135258
0.000437325
0.00102268
0.00149232
0.00265741
0.00328348
0.00447237
0.00151688
0.00272685
0.00184108
0.000831198
0.000502936
0.000517916
)
;
    }
}


// ************************************************************************* //
