/*--------------------------------*- C++ -*----------------------------------*\
| =========                 |                                                 |
| \\      /  F ield         | OpenFOAM: The Open Source CFD Toolbox           |
|  \\    /   O peration     | Version:  5.x                                   |
|   \\  /    A nd           | Web:      www.OpenFOAM.org                      |
|    \\/     M anipulation  |                                                 |
\*---------------------------------------------------------------------------*/
FoamFile
{
    version     2.0;
    format      ascii;
    class       volVectorField;
    location    "0.018";
    object      U;
}
// * * * * * * * * * * * * * * * * * * * * * * * * * * * * * * * * * * * * * //

dimensions      [0 1 -1 0 0 0 0];

internalField   nonuniform List<vector> 
1560
(
(4.61599e-08 4.54842e-08 0.000363033)
(5.27679e-07 4.49369e-08 0.000362974)
(5.79467e-07 5.04956e-08 0.000363233)
(8.97174e-07 5.07227e-08 0.000363098)
(7.92723e-07 5.5209e-08 0.000363651)
(4.5617e-08 5.27022e-07 0.000362974)
(5.26984e-07 5.2632e-07 0.000362912)
(5.79229e-07 5.27622e-07 0.000363171)
(8.96824e-07 5.26717e-07 0.000363036)
(7.92864e-07 5.25538e-07 0.00036359)
(5.11681e-08 5.78903e-07 0.000363233)
(5.2828e-07 5.78661e-07 0.000363171)
(5.79863e-07 5.79295e-07 0.000363429)
(8.95088e-07 5.78501e-07 0.000363294)
(7.91562e-07 5.76158e-07 0.000363845)
(5.1391e-08 8.96635e-07 0.000363098)
(5.27378e-07 8.96288e-07 0.000363036)
(5.79069e-07 8.94553e-07 0.000363294)
(8.93685e-07 8.93149e-07 0.000363159)
(7.90523e-07 8.87723e-07 0.00036371)
(5.58688e-08 7.9241e-07 0.000363651)
(5.26199e-07 7.92551e-07 0.000363589)
(5.76727e-07 7.9125e-07 0.000363845)
(8.88259e-07 7.9021e-07 0.000363709)
(7.8611e-07 7.85798e-07 0.000364254)
(8.41634e-08 8.34901e-08 -7.70332e-05)
(4.26341e-07 8.8061e-08 -7.69918e-05)
(5.12892e-07 9.14393e-08 -7.68536e-05)
(6.83354e-07 9.29723e-08 -7.67775e-05)
(5.11441e-07 9.32591e-08 -7.65918e-05)
(8.87437e-08 4.25709e-07 -7.69918e-05)
(4.29112e-07 4.28474e-07 -7.69506e-05)
(5.14015e-07 4.28001e-07 -7.68135e-05)
(6.83309e-07 4.28005e-07 -7.67376e-05)
(5.10741e-07 4.24178e-07 -7.65532e-05)
(9.212e-08 5.12352e-07 -7.68537e-05)
(4.28633e-07 5.13469e-07 -7.68136e-05)
(5.12423e-07 5.11878e-07 -7.66798e-05)
(6.79529e-07 5.10944e-07 -7.66051e-05)
(5.07593e-07 5.06208e-07 -7.64248e-05)
(9.36536e-08 6.82875e-07 -7.67777e-05)
(4.2864e-07 6.82838e-07 -7.67377e-05)
(5.1149e-07 6.79059e-07 -7.66051e-05)
(6.77635e-07 6.77166e-07 -7.65309e-05)
(5.05972e-07 6.70108e-07 -7.63522e-05)
(9.3933e-08 5.11181e-07 -7.6592e-05)
(4.24818e-07 5.10489e-07 -7.65533e-05)
(5.06755e-07 5.0734e-07 -7.64248e-05)
(6.70578e-07 5.0572e-07 -7.63523e-05)
(5.00478e-07 5.00226e-07 -7.61792e-05)
(9.40306e-08 9.32668e-08 0.000196124)
(7.11924e-07 9.29351e-08 0.000196167)
(7.99693e-07 9.56407e-08 0.000196594)
(1.16689e-06 9.52534e-08 0.000196671)
(9.86854e-07 9.68717e-08 0.000197378)
(9.37118e-08 7.11172e-07 0.000196167)
(7.10022e-07 7.09271e-07 0.000196208)
(7.98147e-07 7.0627e-07 0.000196634)
(1.16498e-06 7.03981e-07 0.00019671)
(9.85615e-07 6.9733e-07 0.000197415)
(9.64062e-08 7.99043e-07 0.000196594)
(7.07022e-07 7.97505e-07 0.000196634)
(7.94405e-07 7.93761e-07 0.000197055)
(1.15795e-06 7.91314e-07 0.000197128)
(9.80167e-07 7.83197e-07 0.000197826)
(9.60164e-08 1.16626e-06 0.00019667)
(7.04739e-07 1.16439e-06 0.00019671)
(7.91956e-07 1.15735e-06 0.000197128)
(1.15442e-06 1.15382e-06 0.000197202)
(9.77438e-07 1.14113e-06 0.000197896)
(9.75937e-08 9.86476e-07 0.000197377)
(6.98121e-07 9.85274e-07 0.000197415)
(7.83837e-07 9.7982e-07 0.000197826)
(1.14173e-06 9.77096e-07 0.000197896)
(9.67369e-07 9.67026e-07 0.000198579)
(1.24045e-07 1.23167e-07 7.2146e-05)
(8.96348e-07 1.27078e-07 7.22349e-05)
(1.01648e-06 1.30261e-07 7.27751e-05)
(1.46709e-06 1.31143e-07 7.29395e-05)
(1.22615e-06 1.30908e-07 7.37926e-05)
(1.27959e-07 8.95507e-07 7.22348e-05)
(8.95812e-07 8.94967e-07 7.23229e-05)
(1.0154e-06 8.88609e-07 7.28609e-05)
(1.46462e-06 8.85775e-07 7.30247e-05)
(1.2239e-06 8.72849e-07 7.38747e-05)
(1.31137e-07 1.01577e-06 7.27749e-05)
(8.89449e-07 1.01468e-06 7.28608e-05)
(1.00729e-06 1.00657e-06 7.339e-05)
(1.45133e-06 1.00298e-06 7.35504e-05)
(1.21312e-06 9.87721e-07 7.43871e-05)
(1.32012e-07 1.46639e-06 7.29392e-05)
(8.86621e-07 1.46397e-06 7.30245e-05)
(1.0037e-06 1.45067e-06 7.35503e-05)
(1.44577e-06 1.44511e-06 7.37097e-05)
(1.20851e-06 1.42285e-06 7.45413e-05)
(1.31751e-07 1.22575e-06 7.37921e-05)
(8.73724e-07 1.22353e-06 7.38743e-05)
(9.88432e-07 1.21274e-06 7.43869e-05)
(1.42351e-06 1.20813e-06 7.45412e-05)
(1.19066e-06 1.19029e-06 7.53526e-05)
(1.86704e-07 1.85705e-07 8.44321e-05)
(1.34101e-06 1.85459e-07 8.4564e-05)
(1.50429e-06 1.84901e-07 8.54324e-05)
(2.18436e-06 1.83692e-07 8.56769e-05)
(1.85036e-06 1.81278e-07 8.70624e-05)
(1.86493e-07 1.33997e-06 8.45638e-05)
(1.33616e-06 1.33514e-06 8.46941e-05)
(1.4999e-06 1.32109e-06 8.5559e-05)
(2.17874e-06 1.31481e-06 8.58024e-05)
(1.846e-06 1.29188e-06 8.71829e-05)
(1.85915e-07 1.50341e-06 8.5432e-05)
(1.32213e-06 1.49905e-06 8.55588e-05)
(1.48397e-06 1.48311e-06 8.64091e-05)
(2.15514e-06 1.47627e-06 8.66468e-05)
(1.82722e-06 1.4498e-06 8.80047e-05)
(1.84708e-07 2.18356e-06 8.56764e-05)
(1.31585e-06 2.17796e-06 8.58021e-05)
(1.47712e-06 2.15434e-06 8.66467e-05)
(2.14544e-06 2.14463e-06 8.68825e-05)
(1.81928e-06 2.10662e-06 8.82315e-05)
(1.82305e-07 1.8499e-06 8.70618e-05)
(1.29291e-06 1.84555e-06 8.71824e-05)
(1.45064e-06 1.82676e-06 8.80044e-05)
(2.10742e-06 1.81882e-06 8.82314e-05)
(1.78883e-06 1.78837e-06 8.95448e-05)
(2.58711e-07 2.57444e-07 0.000142332)
(1.89672e-06 2.59985e-07 0.000142527)
(2.12949e-06 2.59022e-07 0.000143764)
(3.09722e-06 2.58354e-07 0.00014413)
(2.62843e-06 2.53085e-07 0.000146104)
(2.6125e-07 1.89551e-06 0.000142527)
(1.89106e-06 1.88985e-06 0.000142721)
(2.12369e-06 1.86536e-06 0.000143954)
(3.0886e-06 1.85568e-06 0.000144318)
(2.62114e-06 1.81509e-06 0.000146283)
(2.60282e-07 2.12846e-06 0.000143764)
(1.86657e-06 2.12267e-06 0.000143953)
(2.09531e-06 2.09429e-06 0.000145163)
(3.04696e-06 2.08315e-06 0.000145519)
(2.58745e-06 2.03634e-06 0.000147447)
(2.59611e-07 3.09625e-06 0.000144129)
(1.85689e-06 3.08766e-06 0.000144318)
(2.08417e-06 3.046e-06 0.000145518)
(3.03065e-06 3.0297e-06 0.000145871)
(2.57386e-06 2.96304e-06 0.000147785)
(2.54337e-07 2.62788e-06 0.000146103)
(1.81632e-06 2.6206e-06 0.000146283)
(2.03736e-06 2.5869e-06 0.000147447)
(2.964e-06 2.57331e-06 0.000147785)
(2.52013e-06 2.51959e-06 0.00014964)
(3.85434e-07 3.83957e-07 3.83609e-05)
(2.77363e-06 3.83911e-07 3.86507e-05)
(3.10746e-06 3.77809e-07 4.0488e-05)
(4.52367e-06 3.75247e-07 4.10287e-05)
(3.84834e-06 3.63972e-07 4.3954e-05)
(3.85409e-07 2.77212e-06 3.86504e-05)
(2.763e-06 2.7615e-06 3.89385e-05)
(3.09718e-06 2.71958e-06 4.07668e-05)
(4.50873e-06 2.7033e-06 4.13048e-05)
(3.83567e-06 2.63511e-06 4.42156e-05)
(3.79301e-07 3.10623e-06 4.04874e-05)
(2.72109e-06 3.09595e-06 4.07665e-05)
(3.04926e-06 3.04803e-06 4.25523e-05)
(4.43919e-06 3.02963e-06 4.30744e-05)
(3.77944e-06 2.95116e-06 4.59189e-05)
(3.76736e-07 4.52249e-06 4.10278e-05)
(2.7048e-06 4.50756e-06 4.13043e-05)
(3.03086e-06 4.43801e-06 4.30742e-05)
(4.41186e-06 4.41069e-06 4.35911e-05)
(3.75636e-06 4.29945e-06 4.64097e-05)
(3.65464e-07 3.84767e-06 4.3953e-05)
(2.63661e-06 3.83501e-06 4.42149e-05)
(2.95239e-06 3.77878e-06 4.59185e-05)
(4.30063e-06 3.7557e-06 4.64094e-05)
(3.66704e-06 3.66638e-06 4.91252e-05)
(5.54698e-07 5.52869e-07 0.000154219)
(4.02383e-06 5.53754e-07 0.000154646)
(4.50746e-06 5.42597e-07 0.000157305)
(6.56344e-06 5.38709e-07 0.000158103)
(5.59068e-06 5.18227e-07 0.000162353)
(5.5561e-07 4.02201e-06 0.000154645)
(4.00751e-06 4.00569e-06 0.000155069)
(4.49002e-06 3.92962e-06 0.000157715)
(6.53764e-06 3.90149e-06 0.000158509)
(5.5686e-06 3.78e-06 0.000162734)
(5.44457e-07 4.50596e-06 0.000157305)
(3.93145e-06 4.48852e-06 0.000157715)
(4.40327e-06 4.40176e-06 0.000160296)
(6.41382e-06 4.36946e-06 0.000161064)
(5.46791e-06 4.23038e-06 0.000165184)
(5.40565e-07 6.562e-06 0.000158102)
(3.90331e-06 6.53621e-06 0.000158508)
(4.37097e-06 6.41238e-06 0.000161064)
(6.36627e-06 6.36483e-06 0.000161823)
(5.42804e-06 6.16944e-06 0.000165899)
(5.20081e-07 5.58986e-06 0.000162351)
(3.78183e-06 5.5678e-06 0.000162733)
(4.23189e-06 5.4671e-06 0.000165184)
(6.17087e-06 5.42724e-06 0.000165899)
(5.27048e-06 5.26967e-06 0.000169808)
(8.18317e-07 8.16032e-07 2.7648e-05)
(5.85985e-06 8.13896e-07 2.82776e-05)
(6.56461e-06 7.93041e-07 3.21796e-05)
(9.57132e-06 7.86089e-07 3.33501e-05)
(8.15263e-06 7.49753e-07 3.95715e-05)
(8.16172e-07 5.85758e-06 2.8277e-05)
(5.83268e-06 5.83042e-06 2.89027e-05)
(6.53631e-06 5.71041e-06 3.27795e-05)
(9.52804e-06 5.66455e-06 3.39427e-05)
(8.11523e-06 5.46672e-06 4.01204e-05)
(7.95319e-07 6.56275e-06 3.21786e-05)
(5.71268e-06 6.53446e-06 3.27791e-05)
(6.39874e-06 6.39688e-06 3.65316e-05)
(9.32762e-06 6.34454e-06 3.76507e-05)
(7.95265e-06 6.11647e-06 4.36364e-05)
(7.88357e-07 9.56954e-06 3.33488e-05)
(5.66681e-06 9.52626e-06 3.39419e-05)
(6.34639e-06 9.32584e-06 3.76503e-05)
(9.24762e-06 9.24584e-06 3.87544e-05)
(7.88457e-06 8.92356e-06 4.46638e-05)
(7.52027e-07 8.15163e-06 3.95697e-05)
(5.46899e-06 8.11423e-06 4.01192e-05)
(6.11833e-06 7.95166e-06 4.36356e-05)
(8.92534e-06 7.88358e-06 4.46634e-05)
(7.62674e-06 7.62575e-06 5.028e-05)
(1.19443e-06 1.19159e-06 0.00013245)
(8.55543e-06 1.18805e-06 0.000133406)
(9.58006e-06 1.15062e-06 0.000139069)
(1.39558e-05 1.13863e-06 0.000140827)
(1.18931e-05 1.07361e-06 0.00014989)
(1.19087e-06 8.55261e-06 0.000133405)
(8.51003e-06 8.50723e-06 0.000134349)
(9.53003e-06 8.28166e-06 0.000139966)
(1.3879e-05 8.2021e-06 0.000141709)
(1.18268e-05 7.84487e-06 0.000150699)
(1.15346e-06 9.57775e-06 0.000139068)
(8.28449e-06 9.52775e-06 0.000139965)
(9.27493e-06 9.27264e-06 0.0001454)
(1.3519e-05 9.18126e-06 0.000147068)
(1.15319e-05 8.77381e-06 0.00015576)
(1.14144e-06 1.39536e-05 0.000140825)
(8.20492e-06 1.38768e-05 0.000141708)
(9.18354e-06 1.35168e-05 0.000147068)
(1.33801e-05 1.33779e-05 0.000148711)
(1.14148e-05 1.28134e-05 0.000157271)
(1.07643e-06 1.18919e-05 0.000149887)
(7.84769e-06 1.18255e-05 0.000150698)
(8.77609e-06 1.15307e-05 0.000155759)
(1.28156e-05 1.14136e-05 0.00015727)
(1.09613e-05 1.096e-05 0.000165355)
(1.78597e-06 1.78242e-06 2.2991e-05)
(1.24793e-05 1.76731e-06 2.43498e-05)
(1.39854e-05 1.69908e-06 3.26017e-05)
(2.03922e-05 1.67766e-06 3.51179e-05)
(1.73352e-05 1.56726e-06 4.83589e-05)
(1.77079e-06 1.24758e-05 2.43487e-05)
(1.23935e-05 1.239e-05 2.5706e-05)
(1.38965e-05 1.2041e-05 3.3892e-05)
(2.02619e-05 1.19063e-05 3.64029e-05)
(1.72238e-05 1.13372e-05 4.95163e-05)
(1.70258e-06 1.39826e-05 3.26e-05)
(1.20446e-05 1.38937e-05 3.38915e-05)
(1.35017e-05 1.34989e-05 4.1728e-05)
(1.96883e-05 1.33465e-05 4.4137e-05)
(1.67599e-05 1.26882e-05 5.67e-05)
(1.68114e-06 2.03894e-05 3.51156e-05)
(1.19098e-05 2.02591e-05 3.64018e-05)
(1.33493e-05 1.96855e-05 4.41363e-05)
(1.94512e-05 1.94484e-05 4.65162e-05)
(1.6558e-05 1.85189e-05 5.88587e-05)
(1.57073e-06 1.73337e-05 4.8356e-05)
(1.13407e-05 1.72223e-05 4.95144e-05)
(1.26911e-05 1.67584e-05 5.66987e-05)
(1.85217e-05 1.65565e-05 5.8858e-05)
(1.582e-05 1.58185e-05 7.0376e-05)
(2.57085e-06 2.56641e-06 8.76552e-05)
(1.81662e-05 2.55923e-06 8.97054e-05)
(2.03482e-05 2.455e-06 0.000101567)
(2.97141e-05 2.43702e-06 0.000105482)
(2.53127e-05 2.24331e-06 0.000124838)
(2.56357e-06 1.81617e-05 8.9704e-05)
(1.80534e-05 1.8049e-05 9.17579e-05)
(2.0227e-05 1.74081e-05 0.00010357)
(2.95042e-05 1.72212e-05 0.000107466)
(2.51169e-05 1.61859e-05 0.000126598)
(2.45938e-06 2.03447e-05 0.000101564)
(1.74126e-05 2.02235e-05 0.000103569)
(1.95205e-05 1.9517e-05 0.00011498)
(2.84919e-05 1.92946e-05 0.000118677)
(2.42655e-05 1.81162e-05 0.000136961)
(2.44135e-06 2.97106e-05 0.000105479)
(1.72257e-05 2.95007e-05 0.000107464)
(1.92981e-05 2.84884e-05 0.000118676)
(2.81034e-05 2.80999e-05 0.000122311)
(2.39248e-05 2.64902e-05 0.0001402)
(2.24765e-06 2.53109e-05 0.000124834)
(1.61904e-05 2.51151e-05 0.000126596)
(1.81197e-05 2.42637e-05 0.00013696)
(2.64936e-05 2.3923e-05 0.000140199)
(2.26374e-05 2.26355e-05 0.000156751)
(3.85721e-06 3.85173e-06 -5.77994e-07)
(2.63906e-05 3.83788e-06 2.80958e-06)
(2.97617e-05 3.72015e-06 2.09051e-05)
(4.36647e-05 3.6783e-06 2.63369e-05)
(3.69545e-05 3.34322e-06 5.44438e-05)
(3.84319e-06 2.63849e-05 2.80748e-06)
(2.62593e-05 2.62537e-05 6.12006e-06)
(2.96042e-05 2.5454e-05 2.3723e-05)
(4.32917e-05 2.51014e-05 2.91521e-05)
(3.66171e-05 2.34608e-05 5.69364e-05)
(3.72553e-06 2.97573e-05 2.09024e-05)
(2.54597e-05 2.95999e-05 2.37224e-05)
(2.86094e-05 2.86051e-05 3.99478e-05)
(4.16714e-05 2.81919e-05 4.52159e-05)
(3.52962e-05 2.62896e-05 7.15052e-05)
(3.68363e-06 4.36603e-05 2.6333e-05)
(2.51071e-05 4.32873e-05 2.91503e-05)
(2.81962e-05 4.1667e-05 4.52148e-05)
(4.0976e-05 4.09716e-05 5.04532e-05)
(3.4693e-05 3.83096e-05 7.61267e-05)
(3.34853e-06 3.69522e-05 5.44389e-05)
(2.34666e-05 3.66149e-05 5.69337e-05)
(2.62938e-05 3.52939e-05 7.15031e-05)
(3.8314e-05 3.46907e-05 7.61257e-05)
(3.26036e-05 3.26013e-05 9.94708e-05)
(5.99003e-06 5.98283e-06 6.46551e-06)
(3.96493e-05 5.89695e-06 1.18301e-05)
(4.38755e-05 5.29869e-06 3.78831e-05)
(6.32549e-05 5.27808e-06 4.78208e-05)
(5.38131e-05 4.7618e-06 8.96969e-05)
(5.90387e-06 3.96421e-05 1.18273e-05)
(3.8969e-05 3.89618e-05 1.7047e-05)
(4.3259e-05 3.64507e-05 4.29319e-05)
(6.27197e-05 3.61003e-05 5.27314e-05)
(5.32897e-05 3.32473e-05 9.38154e-05)
(5.30549e-06 4.38701e-05 3.78791e-05)
(3.6458e-05 4.32537e-05 4.29311e-05)
(4.1014e-05 4.10087e-05 6.79242e-05)
(6.00513e-05 4.05957e-05 7.65925e-05)
(5.09255e-05 3.73065e-05 0.000115217)
(5.28475e-06 6.32492e-05 4.78151e-05)
(3.61076e-05 6.27141e-05 5.2729e-05)
(4.0601e-05 6.00457e-05 7.6591e-05)
(5.90172e-05 5.90116e-05 8.50945e-05)
(4.99597e-05 5.44574e-05 0.000122525)
(4.76842e-06 5.38102e-05 8.96902e-05)
(3.32547e-05 5.32869e-05 9.38118e-05)
(3.73118e-05 5.09227e-05 0.000115214)
(5.4463e-05 4.99569e-05 0.000122524)
(4.63173e-05 4.63144e-05 0.000156475)
(9.2625e-06 9.25371e-06 -7.25178e-05)
(5.78083e-05 9.09058e-06 -6.48799e-05)
(6.57525e-05 8.80644e-06 -2.78808e-05)
(9.54815e-05 8.62407e-06 -1.44343e-05)
(7.94148e-05 7.49305e-06 4.60282e-05)
(9.09881e-06 5.77985e-05 -6.48834e-05)
(5.73639e-05 5.73547e-05 -5.73684e-05)
(6.52886e-05 5.54951e-05 -2.06806e-05)
(9.41782e-05 5.3873e-05 -7.45502e-06)
(7.82759e-05 4.89809e-05 5.20695e-05)
(8.81484e-06 6.57451e-05 -2.78856e-05)
(5.55048e-05 6.52818e-05 -2.06816e-05)
(6.22708e-05 6.22641e-05 1.41322e-05)
(8.8967e-05 6.0555e-05 2.74802e-05)
(7.44685e-05 5.4999e-05 8.24359e-05)
(8.63243e-06 9.54745e-05 -1.4441e-05)
(5.38829e-05 9.41711e-05 -7.45777e-06)
(6.05617e-05 8.896e-05 2.74783e-05)
(8.69127e-05 8.69056e-05 3.99094e-05)
(7.26548e-05 7.95703e-05 9.30496e-05)
(7.50127e-06 7.94115e-05 4.60197e-05)
(4.89906e-05 7.82726e-05 5.20651e-05)
(5.50056e-05 7.44651e-05 8.24325e-05)
(7.95774e-05 7.26512e-05 9.3048e-05)
(6.7044e-05 6.70405e-05 0.000139505)
(1.36737e-05 1.36622e-05 -0.000137868)
(8.42864e-05 1.34499e-05 -0.000124177)
(9.4321e-05 1.25465e-05 -6.88151e-05)
(0.000137169 1.23072e-05 -4.68936e-05)
(0.000115142 1.08575e-05 3.66456e-05)
(1.34604e-05 8.42743e-05 -0.000124182)
(8.31718e-05 8.31602e-05 -0.000110964)
(9.31723e-05 7.84638e-05 -5.71083e-05)
(0.000135474 7.80149e-05 -3.61246e-05)
(0.000113665 6.9655e-05 4.66996e-05)
(1.2557e-05 9.43124e-05 -6.88215e-05)
(7.84758e-05 9.31643e-05 -5.71096e-05)
(8.91757e-05 8.91676e-05 -8.00658e-06)
(0.000128359 8.79601e-05 1.10906e-05)
(0.000106683 7.82865e-05 9.13928e-05)
(1.23173e-05 0.000137159 -4.6902e-05)
(7.80269e-05 0.000135465 -3.61278e-05)
(8.79681e-05 0.00012835 1.10883e-05)
(0.000124593 0.000124584 3.08966e-05)
(0.000103873 0.00011153 0.000107463)
(1.08674e-05 0.000115138 3.66335e-05)
(6.96675e-05 0.00011366 4.66936e-05)
(7.82946e-05 0.000106679 9.13887e-05)
(0.000111539 0.000103868 0.000107461)
(9.34748e-05 9.34704e-05 0.000176023)
(2.30137e-05 2.29999e-05 -0.000249566)
(0.000126861 2.23629e-05 -0.000228063)
(0.000143036 2.05674e-05 -0.000145427)
(0.000200949 1.94499e-05 -0.000108922)
(0.000164242 1.76074e-05 1.43345e-05)
(2.23753e-05 0.000126845 -0.000228068)
(0.000124438 0.000124422 -0.000207475)
(0.000140128 0.000116304 -0.000126818)
(0.000197993 0.000111857 -9.17124e-05)
(0.000162363 0.000103728 2.87635e-05)
(2.058e-05 0.000143025 -0.000145435)
(0.00011632 0.000140118 -0.00012682)
(0.000130471 0.000130461 -5.15493e-05)
(0.000188373 0.000127576 -2.14357e-05)
(0.000155956 0.000115762 9.24681e-05)
(1.94622e-05 0.000200937 -0.000108933)
(0.000111873 0.000197981 -9.17173e-05)
(0.000127586 0.000188362 -2.14383e-05)
(0.000183294 0.000183282 7.04867e-06)
(0.000150355 0.000164207 0.000115896)
(1.76201e-05 0.000164235 1.43211e-05)
(0.000103746 0.000162357 2.87554e-05)
(0.000115773 0.000155951 9.24627e-05)
(0.000164218 0.000150349 0.000115893)
(0.000136614 0.000136609 0.000213659)
(3.52471e-05 3.52289e-05 -0.000453067)
(0.000188426 3.41045e-05 -0.000413925)
(0.000213461 3.12268e-05 -0.000290395)
(0.000296941 2.95885e-05 -0.000229211)
(0.000240268 2.53635e-05 -4.5781e-05)
(3.41206e-05 0.000188406 -0.000413931)
(0.000184423 0.000184403 -0.000377947)
(0.000208935 0.000172342 -0.000258648)
(0.000291066 0.000165501 -0.000201047)
(0.000235969 0.000147789 -2.38326e-05)
(3.12431e-05 0.000213447 -0.000290404)
(0.000172362 0.000208922 -0.000258651)
(0.000194559 0.000194547 -0.000147086)
(0.000272386 0.000186721 -9.54084e-05)
(0.000222291 0.000165419 6.8869e-05)
(2.9604e-05 0.000296926 -0.000229223)
(0.000165522 0.000291051 -0.000201052)
(0.000186734 0.000272372 -9.54114e-05)
(0.000261937 0.000261922 -5.00125e-05)
(0.000214342 0.00023273 0.00010785)
(2.5378e-05 0.000240261 -4.57942e-05)
(0.000147809 0.000235961 -2.3841e-05)
(0.000165432 0.000222284 6.88629e-05)
(0.000232744 0.000214334 0.000107847)
(0.000192668 0.000192661 0.000249754)
(6.21989e-05 6.21769e-05 -0.000657282)
(0.000289534 5.83932e-05 -0.000595143)
(0.000327749 5.23491e-05 -0.000413124)
(0.00044558 4.76598e-05 -0.000317571)
(0.000350423 3.95811e-05 -4.72785e-05)
(5.84126e-05 0.000289509 -0.000595151)
(0.000279721 0.000279697 -0.000537212)
(0.000317027 0.000259613 -0.000364242)
(0.000432825 0.00024566 -0.000274378)
(0.000342257 0.000218378 -1.4874e-05)
(5.23687e-05 0.000327733 -0.000413136)
(0.000259638 0.000317012 -0.000364245)
(0.000293713 0.000293697 -0.000206033)
(0.000404343 0.00027861 -0.000127846)
(0.000322742 0.000247445 0.00011067)
(4.76785e-05 0.000445563 -0.000317587)
(0.000245685 0.000432807 -0.000274386)
(0.000278625 0.000404326 -0.000127851)
(0.000386569 0.000386551 -5.71188e-05)
(0.000310584 0.000345103 0.000164675)
(3.95998e-05 0.000350415 -4.72996e-05)
(0.000218403 0.000342248 -1.48865e-05)
(0.00024746 0.000322734 0.000110661)
(0.000345121 0.000310575 0.00016467)
(0.000280631 0.000280622 0.000355269)
(9.75259e-05 9.74969e-05 -0.00120804)
(0.000432583 9.21595e-05 -0.00107596)
(0.000491032 8.0243e-05 -0.000789103)
(0.000662812 7.29051e-05 -0.000604307)
(0.000514637 5.79033e-05 -0.000197329)
(9.21852e-05 0.000432552 -0.00107597)
(0.000415333 0.000415302 -0.000961051)
(0.000471767 0.000379434 -0.000691103)
(0.000640458 0.000355226 -0.000525014)
(0.00049941 0.000305737 -0.000137475)
(8.0269e-05 0.00049101 -0.000789118)
(0.000379466 0.000471746 -0.000691108)
(0.000430957 0.000430936 -0.000450469)
(0.000589111 0.000403979 -0.000306602)
(0.000464443 0.000344967 4.25565e-05)
(7.29298e-05 0.000662788 -0.000604328)
(0.000355258 0.000640434 -0.000525024)
(0.000403999 0.000589088 -0.000306607)
(0.000554482 0.000554459 -0.000185626)
(0.000439536 0.000477347 0.0001372)
(5.79277e-05 0.000514625 -0.000197353)
(0.00030577 0.000499398 -0.000137491)
(0.000344988 0.000464432 4.25458e-05)
(0.00047737 0.000439524 0.000137194)
(0.000386213 0.000386201 0.000406059)
(0.000194382 0.000194345 -0.00164104)
(0.000708477 0.000173424 -0.00144259)
(0.000799402 0.000150407 -0.00101459)
(0.00103739 0.000127037 -0.000741462)
(0.000763659 9.94698e-05 -0.000152793)
(0.000173457 0.000708437 -0.0014426)
(0.000664591 0.000664552 -0.00126103)
(0.000753063 0.000598248 -0.000871566)
(0.000986491 0.000543366 -0.000621096)
(0.000735744 0.000458265 -7.21515e-05)
(0.00015044 0.000799374 -0.00101461)
(0.000598288 0.000753037 -0.000871573)
(0.000678216 0.000678191 -0.000526582)
(0.000897403 0.000617995 -0.000321034)
(0.000677319 0.000522118 0.000170643)
(0.000127068 0.00103737 -0.000741488)
(0.000543406 0.000986463 -0.000621109)
(0.000618021 0.000897375 -0.000321041)
(0.000830408 0.000830379 -0.0001437)
(0.000638454 0.000708632 0.000295847)
(9.94996e-05 0.000763648 -0.000152827)
(0.000458303 0.00073573 -7.21735e-05)
(0.000522144 0.000677305 0.000170628)
(0.00070866 0.000638439 0.000295839)
(0.000553701 0.000553686 0.000657036)
(0.000296236 0.00029619 -0.00311396)
(0.00105904 0.000273912 -0.00262742)
(0.00119215 0.000223509 -0.0019444)
(0.00152467 0.000193477 -0.00138106)
(0.00111267 0.000138799 -0.00047168)
(0.000273954 0.00105899 -0.00262743)
(0.000986365 0.000986316 -0.00224393)
(0.00111169 0.000867442 -0.00163082)
(0.00143993 0.000775654 -0.00115216)
(0.0010571 0.000629173 -0.000313547)
(0.000223551 0.00119211 -0.00194443)
(0.000867493 0.00111166 -0.00163083)
(0.000981489 0.000981455 -0.0010991)
(0.00128639 0.000881368 -0.000696927)
(0.000963962 0.000712961 3.94574e-05)
(0.000193517 0.00152463 -0.00138109)
(0.000775705 0.00143989 -0.00115218)
(0.000881402 0.00128635 -0.000696936)
(0.00117141 0.00117138 -0.000382459)
(0.000886081 0.000963777 0.000268108)
(0.000138837 0.00111265 -0.000471724)
(0.000629225 0.00105708 -0.000313576)
(0.000712996 0.000963942 3.94377e-05)
(0.000963815 0.00088606 0.000268098)
(0.000753175 0.000753155 0.000765939)
(0.00068113 0.000681071 -0.00418878)
(0.00187805 0.000557217 -0.00347974)
(0.00204576 0.000464073 -0.00238364)
(0.00251022 0.000356042 -0.00157331)
(0.00168784 0.00025758 -0.000264791)
(0.000557271 0.00187799 -0.00347976)
(0.00166121 0.00166115 -0.00284673)
(0.00184482 0.00144356 -0.00193977)
(0.00230386 0.0012275 -0.00122317)
(0.00158795 0.000969407 -6.82333e-05)
(0.000464127 0.00204572 -0.00238367)
(0.00144362 0.00184478 -0.00193978)
(0.00161212 0.00161207 -0.00116502)
(0.00203604 0.00138769 -0.000611026)
(0.00142559 0.00110377 0.00038525)
(0.000356094 0.00251017 -0.00157335)
(0.00122756 0.00230381 -0.00122319)
(0.00138774 0.00203599 -0.000611037)
(0.00179552 0.00179547 -0.000167286)
(0.00129942 0.00143516 0.00066673)
(0.000257629 0.00168782 -0.000264847)
(0.00096947 0.00158792 -6.82684e-05)
(0.00110381 0.00142557 0.000385227)
(0.00143521 0.00129939 0.000666716)
(0.00105963 0.0010596 0.00131185)
(0.00100568 0.0010056 -0.00847377)
(0.00286419 0.000907137 -0.00641763)
(0.00309856 0.000667783 -0.00464737)
(0.00364368 0.000543958 -0.00286293)
(0.00244271 0.000335915 -0.00090107)
(0.000907203 0.00286411 -0.00641765)
(0.00252636 0.00252628 -0.00503357)
(0.00273522 0.00208606 -0.00357388)
(0.0033116 0.00173794 -0.00219732)
(0.00223121 0.00127921 -0.000465001)
(0.000667849 0.0030985 -0.00464741)
(0.00208614 0.00273517 -0.0035739)
(0.00231022 0.00231016 -0.00238507)
(0.00283677 0.00193723 -0.00127706)
(0.00197678 0.00144791 0.000186276)
(0.00054402 0.00364361 -0.00286298)
(0.00173802 0.00331153 -0.00219735)
(0.00193729 0.00283671 -0.00127708)
(0.00244927 0.00244921 -0.000486832)
(0.00173384 0.00189045 0.000715173)
(0.000335972 0.00244267 -0.000901149)
(0.00127929 0.00223117 -0.000465056)
(0.00144796 0.00197675 0.000186239)
(0.00189051 0.0017338 0.000715153)
(0.00140905 0.00140902 0.00157591)
(0.00273773 0.00273763 -0.0115791)
(0.00570456 0.00194203 -0.0087617)
(0.00560057 0.00153769 -0.00554818)
(0.00625678 0.00102183 -0.00309942)
(0.00368368 0.000693414 -0.000195663)
(0.00194211 0.00570446 -0.00876172)
(0.00450504 0.00450493 -0.00628857)
(0.0046811 0.00370589 -0.00409465)
(0.00541297 0.00281336 -0.00204007)
(0.00335018 0.00205677 0.000272722)
(0.00153778 0.0056005 -0.00554824)
(0.003706 0.00468102 -0.00409468)
(0.00390896 0.00390889 -0.00228464)
(0.00460757 0.00309816 -0.00083944)
(0.00291399 0.00228394 0.00109511)
(0.00102192 0.0062567 -0.00309949)
(0.00281346 0.00541288 -0.00204011)
(0.00309823 0.00460749 -0.000839456)
(0.00378789 0.00378781 0.00023802)
(0.00252148 0.0028249 0.0016752)
(0.000693495 0.00368364 -0.000195759)
(0.00205688 0.00335013 0.000272664)
(0.00228402 0.00291394 0.00109506)
(0.00282499 0.00252144 0.00167518)
(0.00193503 0.00193498 0.00272045)
(0.0038249 0.00382479 -0.0260933)
(0.00889478 0.00338038 -0.0161116)
(0.00876083 0.00212189 -0.0108913)
(0.00899644 0.00160359 -0.00523013)
(0.00539576 0.000805145 -0.00112849)
(0.00338048 0.00889464 -0.0161116)
(0.00719327 0.00719314 -0.0108394)
(0.00698368 0.0053495 -0.00715957)
(0.0076792 0.00399789 -0.00338057)
(0.00458423 0.00256995 -1.94858e-05)
(0.002122 0.00876073 -0.0108914)
(0.00534964 0.00698359 -0.0071596)
(0.00556536 0.00556527 -0.00447048)
(0.00621673 0.00421527 -0.00157739)
(0.00394432 0.00285033 0.00104206)
(0.00160369 0.00899633 -0.00523022)
(0.00399802 0.0076791 -0.00338062)
(0.00421536 0.00621663 -0.00157741)
(0.00496408 0.00496397 0.000177235)
(0.00319593 0.0035159 0.00213393)
(0.000805237 0.0053957 -0.00112863)
(0.00257009 0.00458417 -1.95734e-05)
(0.00285042 0.00394426 0.00104199)
(0.003516 0.00319587 0.00213389)
(0.0024726 0.00247254 0.00339901)
(0.0127243 0.0127242 -0.03612)
(0.0209079 0.00721801 -0.0237251)
(0.0164831 0.00527038 -0.01238)
(0.0160206 0.00287196 -0.00514847)
(0.00786149 0.00180235 0.000945328)
(0.00721815 0.0209077 -0.0237251)
(0.0134567 0.0134565 -0.0128286)
(0.0121405 0.0101269 -0.00751625)
(0.0125537 0.00646621 -0.00203175)
(0.00677223 0.00422728 0.00196379)
(0.00527052 0.0164829 -0.0123801)
(0.0101271 0.0121403 -0.00751631)
(0.00949149 0.00949136 -0.00331676)
(0.0101205 0.00665601 7.83322e-05)
(0.00558035 0.00443737 0.00327235)
(0.0028721 0.0160204 -0.00514857)
(0.00646638 0.0125535 -0.00203181)
(0.00665614 0.0101204 7.8311e-05)
(0.00749945 0.00749931 0.00225913)
(0.00451293 0.00518204 0.00430461)
(0.00180249 0.00786139 0.000945155)
(0.00422747 0.00677215 0.00196368)
(0.00443751 0.00558027 0.00327227)
(0.00518218 0.00451285 0.00430456)
(0.00322345 0.00322337 0.00561326)
(0.0162721 0.0162719 -0.0962328)
(0.0326211 0.0142827 -0.0410629)
(0.0273363 0.00698776 -0.0227345)
(0.0223203 0.00472004 -0.00662877)
(0.0115968 0.00182445 0.000732624)
(0.0142828 0.0326209 -0.0410629)
(0.0233978 0.0233976 -0.0210023)
(0.0177806 0.0144104 -0.0110627)
(0.0171589 0.00922413 -0.00239258)
(0.00865422 0.00489697 0.00298047)
(0.00698795 0.0273362 -0.0227346)
(0.0144107 0.0177804 -0.0110627)
(0.0131596 0.0131595 -0.00520573)
(0.0128059 0.00850606 0.000741454)
(0.00719538 0.00519104 0.00439085)
(0.00472019 0.0223201 -0.00662888)
(0.00922434 0.0171587 -0.00239264)
(0.00850621 0.0128057 0.00074143)
(0.00919055 0.00919038 0.00363025)
(0.00527987 0.00585683 0.00603483)
(0.00182461 0.0115967 0.000732412)
(0.0048972 0.00865411 0.00298033)
(0.00519121 0.00719526 0.00439075)
(0.00585701 0.00527977 0.00603477)
(0.0038055 0.00380539 0.00723929)
(0.068905 0.0689047 -0.130885)
(0.0949088 0.0273746 -0.0715005)
(0.0509263 0.0169564 -0.0220725)
(0.0394898 0.00711152 -0.00302511)
(0.015374 0.00405054 0.00669795)
(0.0273748 0.0949085 -0.0715005)
(0.0434558 0.0434555 -0.0173696)
(0.0307554 0.0276557 -0.00657766)
(0.0265978 0.013836 0.00406625)
(0.0122504 0.00788559 0.00839774)
(0.0169566 0.0509261 -0.0220728)
(0.027656 0.0307552 -0.00657775)
(0.0212977 0.0212975 0.00119515)
(0.0197179 0.0126795 0.006363)
(0.00930294 0.00749208 0.0095106)
(0.00711172 0.0394895 -0.00302524)
(0.0138362 0.0265976 0.00406618)
(0.0126797 0.0197177 0.00636297)
(0.0127935 0.0127933 0.0090415)
(0.00696373 0.00803093 0.0104131)
(0.00405077 0.0153738 0.00669758)
(0.00788588 0.0122502 0.00839753)
(0.0074923 0.00930278 0.00951044)
(0.00803118 0.00696359 0.010413)
(0.00445374 0.0044536 0.0109676)
(0.10955 0.10955 -0.526575)
(0.199208 0.0714439 -0.0928785)
(0.0958838 0.0225677 -0.0154872)
(0.0510705 0.0118172 0.00721443)
(0.0215094 0.00352461 0.0119254)
(0.0714441 0.199207 -0.0928785)
(0.0890652 0.0890649 -0.0275141)
(0.0391876 0.0376611 0.000632264)
(0.0321317 0.0186086 0.00934631)
(0.013084 0.00770862 0.0136078)
(0.0225681 0.0958836 -0.0154875)
(0.0376616 0.0391874 0.000632197)
(0.0261 0.0260997 0.00831536)
(0.0211198 0.0134804 0.0126785)
(0.0104078 0.00720596 0.0139436)
(0.0118174 0.0510702 0.00721434)
(0.0186089 0.0321314 0.00934625)
(0.0134806 0.0211194 0.0126785)
(0.0132399 0.0132396 0.0138387)
(0.00668352 0.00731371 0.0144247)
(0.00352492 0.021509 0.011925)
(0.00770905 0.0130838 0.0136076)
(0.00720626 0.0104075 0.0139434)
(0.00731406 0.00668333 0.0144247)
(0.00437434 0.00437416 0.0139935)
(0.325029 0.325029 -2.08697)
(0.561463 0.135142 -0.168911)
(0.101273 0.033537 0.0678344)
(0.066308 0.00925032 0.0412756)
(0.0202318 0.00573592 0.028116)
(0.135143 0.561462 -0.168911)
(0.118561 0.11856 0.0586869)
(0.0666006 0.0512809 0.0480368)
(0.0395441 0.0192926 0.0310297)
(0.0166117 0.00990414 0.0257769)
(0.0335375 0.101272 0.0678335)
(0.0512815 0.0666003 0.0480367)
(0.0333164 0.0333161 0.0363001)
(0.0253428 0.0171714 0.0284332)
(0.0106074 0.00830978 0.0227166)
(0.00925056 0.0663077 0.0412757)
(0.0192929 0.0395437 0.0310297)
(0.0171716 0.0253424 0.0284332)
(0.0145395 0.0145391 0.0237254)
(0.00756671 0.00808107 0.0209402)
(0.00573631 0.0202313 0.0281152)
(0.00990464 0.0166114 0.0257766)
(0.00831011 0.0106071 0.0227164)
(0.00808149 0.00756649 0.0209401)
(0.00402011 0.00401989 0.0183044)
(0.00383101 0.00383073 -3.58429)
(0.848112 0.00698233 0.326956)
(0.00949043 0.0018688 0.122086)
(0.0104342 0.00159694 0.0594231)
(0.0081862 0.00117573 0.0395129)
(0.00698293 0.848112 0.326956)
(0.0591835 0.059183 0.264419)
(0.0159221 0.00515643 0.0770501)
(0.00978919 0.00581237 0.0490813)
(0.00776243 0.00231376 0.0329321)
(0.00186972 0.00948958 0.122085)
(0.00515783 0.0159216 0.0770501)
(0.00640521 0.00640478 0.0555178)
(0.00756556 0.00620045 0.0386056)
(0.00461646 0.00237225 0.0289051)
(0.00159723 0.0104341 0.0594234)
(0.00581262 0.00978876 0.0490812)