FoamFile
{version 2.0; format ascii;class Cloud<passiveParticle>; location 0;object  positions;}
2
(
( 0.499972 0.499971 3.13877 ) 0 
( 0.499967 0.499965 2.79903 ) 0 
)
