/*--------------------------------*- C++ -*----------------------------------*\
| =========                 |                                                 |
| \\      /  F ield         | OpenFOAM: The Open Source CFD Toolbox           |
|  \\    /   O peration     | Version:  5.x                                   |
|   \\  /    A nd           | Web:      www.OpenFOAM.org                      |
|    \\/     M anipulation  |                                                 |
\*---------------------------------------------------------------------------*/
FoamFile
{
    version     2.0;
    format      ascii;
    class       volScalarField;
    location    "0.078";
    object      interFace;
}
// * * * * * * * * * * * * * * * * * * * * * * * * * * * * * * * * * * * * * //

dimensions      [0 0 0 0 0 0 0];

internalField   nonuniform List<scalar> 
1546
(
0
0
0
0
0
0
0
0
0
0
0
0
0
0
0
0
0
0
0
0
0
0
0
0
0
0
0
0
0
0
0
0
0
0
0
0
0
0
0
0
0
0
0
0
0
0
0
0
0
0
0
0
0
0
0
0
0
0
0
0
0
0
0
0
0
0
0
0
0
0
0
0
0
0
0
0
0
0
0
0
0
0
0
0
0
0
0
0
0
0
0
0
0
0
0
0
0
0
0
0
0
0
0
0
0
0
0
0
0
0
0
0
0
0
0
0
0
0
0
0
0
0
0
0
0
0
0
0
0
0
0
0
0
0
0
0
0
0
0
0
0
0
0
0
0
0
0
0
0
0
0
0
0
0
0
0
0
0
0
0
0
0
0
0
0
0
0
0
0
0
0
0
0
0
0
0
0
0
0
0
0
0
0
0
0
0
0
0
0
0
0
0
0
0
0
0
0
0
0
0
0
0
0
0
0
0
0
0
0
0
0
0
0
0
0
0
0
0
0
0
0
0
0
0
0
0
0
0
0
0
0
0
0
0
0
0
0
0
0
0
0
0
0
0
0
0
0
0
0
0
0
0
0
0
0
0
0
0
0
0
0
0
0
0
0
0
0
0
0
0
0
0
0
0
0
0
0
0
0
0
0
0
0
0
0
0
0
0
0
0
0
0
0
0
0
0
0
0
0
0
0
0
0
0
0
0
0
0
0
0
0
0
0
0
0
0
0
0
0
0
0
0
0
0
0
0
0
0
0
0
0
0
0
0
0
0
0
0
0
0
0
0
0
0
0
0
0
0
0
0
0
0
0
0
0
0
0
0
0
0
0
0
0
0
0
0
0
0
0
0
0
0
0
0
0
0
0
0
0
0
0
0
0
0
0
0
0
0
0
0
0
0
0
0
0
0
0
0
0
0
0
0
0
0
0
0
0
0
0
0
0
0
0
0
0
0
0
0
0
0
0
0
0
0
0
0
0
0
0
0
0
0
0
0
0
0
0
0
0
0
0
0
0
0
0
0
0
0
0
0
0
0
0
0
0
0
0
0
0
0
0
0
0
0
0
0
0
0
0
0
0
0
0
0
0
0
0
0
0
0
0
0
0
0
0
0
0
0
0
0
0
0
0
0
0
0
0
0
0
0
0
0
0
0
0
0
0
0
0
0
0
0
0
0
0
0
0
0
0
0
0
0
0
0
0
0
0
0
0
0
0
0
0
0
0
0
0
0
0
0
0
0
0
0
0
0
0
0
0
0
0
0
0
0
0
0
0
0
0
0
0
0
0
0
0
0
0
0
0
0
0
0
0
0
0
0
0
0
0
0
0
0
0
0
0
0
0
0
0
0
0
0
0
0
0
0
0
0
0
0
0
0
0
0
0
0
0
0
0
0
0
0
0
0
0
0
0
0
0
0
0
0
0
0
0
0
0
0
0
0
0
0
0
0
0
0
0
0
0
0
0
0
0
0
0
0
0
0
0
0
0
0
0
0
0
0
0
0
0
0
0
0
0
0
0
0
0
0
0
0
0
0
0
0
0
0
0
0
0
0
0
0
0
0
0
0
0
0
0
0
0
0
0
0
0
0
0
0
0
0.554928
0
0
0
0
0
0
0
0
0
0
0
0
0
0
0
0
0
0
0
0
0
0
0
0
0.817943
0
0
0
0
0
0
0
0
0
0
0
0
0
0
0
0
0
0
0
0
0
0
0
0
0
0
0
0
0
0
0
0
0
0
0
0
0
0
0
0
0
0
0
0
0
0
0
0
0
0.642903
0
0
0
0
0
0
0
0
0
0
0
0
0
0
0
0
0
0
0
0
0
0
0
0
0.633917
0
0
0
0
0
0
0
0
0
0
0
0
0
0
0
0
0
0
0
0
0
0
0
0
0
0
0
0
0
0
0
0
0
0
0
0
0
0
0
0
0
0
0
0
0
0
0
0
0
0
0
0
0
0
0
0
0
0
0
0
0
0
0
0
0
0
0
0
0
0
0
0
0
0
0
0
0
0
0
0
0
0
0
0
0
0
0
0
0
0
0
0
0
0
0
0
0
0
0
0
0
0
0
0
0
0
0
0
0
0
0
0
0
0
0
0
0
0
0
0
0
0
0
0
0
0
0
0
0
0
0
0
0
0
0
0
0
0
0
0
0
0
0
0
0
0
0
0
0
0
0
0
0
0
0
0
0
0
0
0
0
0
0
0
0
0
0
0
0
0
0
0
0
0
0
0
0
0
0
0
0
0
0
0
0
0
0
0
0
0
0
0
0
0
0
0
0
0
0
0
0.374123
0.374128
0.105347
0.568933
0.300152
0.300158
0.0313768
0.365136
0.365142
0.096361
0
0.829012
0.829018
0.560237
0
0
0.977011
0
0
0
0
0.914231
0.914234
0.735047
0.757201
0.488421
0.488426
0.219645
0.549225
0.549234
0.280516
0
0
0
0.842612
0
0
0.934922
0
0
0
0
0
0
0.934934
0
0
0
0
0.450335
0.360791
0.605008
0.60501
0.649781
0.405562
0.405564
0
0.896064
0.544369
0
0
0
0
0.896068
0
0.544376
0
0
0
0
0.539927
0.629566
0.873785
0.6946
0.674339
0.739373
0.495154
0.539929
0.629572
0.873789
0.694603
0.674343
0.739375
0.495158
0.28621
0.286219
0.0175008
0.684958
0.41624
0.416249
0.147531
0.547822
0.325265
0.325268
0.458321
0.370017
0.50307
0.503073
0.637392
0.593977
0.414835
0.72703
0.459587
0.771782
0.59264
0.637395
0.593983
0.41484
0.727039
0.45959
0.771788
0.592645
0.629521
0.898347
0.963379
0.963381
0.763933
0.763935
0.828966
0.726964
0.68355
0.683552
0.995748
0.549159
0.861355
0.861358
0.29571
0.141132
0.141134
0.206166
0.185905
0.250937
0.250939
0.385302
0.409909
0.230724
0.474941
0.275497
0.519714
0.340529
0.385304
0.409913
0.230728
0.474947
0.275499
0.519718
0.340532
0.19228
0.192283
0.237032
0.148868
0.0593672
0.104116
0.104119
0
0.734139
0.465421
0
0
0.848098
0.595451
0.734141
0
0.465432
0
0.848104
0
0.595463
0.460992
0.28185
0.326602
0.238438
0.328076
0.372828
0.193686
0.460998
0.281856
0.326605
0.238441
0.328085
0.372834
0.193692
0.474895
0.499503
0.499505
0.743722
0.365091
0.609308
0.60931
0.550565
0.550568
0.416175
0.328011
0.596794
0.462401
0.462404
0.100757
0.0112131
0.076148
0.0761498
0.120921
0.0559843
0.0559862
0
0.81541
0.553356
0
0
0.748166
0.479385
0.815413
0
0.553363
0
0.748168
0
0.479392
0.190349
0.279988
0.344925
0.16574
0.324761
0.210513
0.145576
0.190351
0.279994
0.344929
0.165743
0.324765
0.210515
0.14558
0.768422
0.589142
0.654174
0.813196
0.698947
0.923
0.878227
0.589148
0.768432
0.654181
0.813203
0.698952
0.923008
0.878236
0.740324
0.740332
0.471614
0.601225
0.332508
0.332516
0.0637984
0.105525
0.0622499
0.0622529
0.0160237
0.107002
0.0607729
0.0607758
0.195095
0.330962
0.15182
0.284733
0.196572
0.329485
0.150343
0.195098
0.330968
0.151825
0.284742
0.196575
0.329491
0.150348
0.640203
0.819482
0.864234
0.507287
0.552039
0.77607
0.731318
0.640212
0.819497
0.864246
0.507299
0.552048
0.776082
0.731333
0.279943
0.548769
0.434519
0.434521
0.414355
0.414357
0.300106
0.284667
0.420535
0.420538
0.553451
0.286144
0.419058
0.41906
0
0
0
0
0
0
0
0.125414
0.150119
0.15012
0.03587
0.194892
0.0806412
0.080643
0.215006
0.418896
0.23971
0.304645
0.284483
0.349418
0.170233
0.215008
0.418899
0.239714
0.304651
0.284485
0.349422
0.170237
0.459221
0.703438
0.524158
0.503994
0.748211
0.728048
0.683275
0.459229
0.524163
0.703447
0.504
0.748219
0.728055
0.683284
0.108548
0.10855
0.1533
0.244418
0.154917
0.199666
0.199669
0
0
0.946739
0
0
0.854007
0.511718
0
0
0.94675
0
0.854012
0
0.51173
0.510173
0.463944
0.508696
0.732727
0.689452
0.734204
0.687975
0.510182
0.463955
0.508704
0.732739
0.689467
0.734216
0.68799
0.37726
0.198117
0.242869
0.333988
0.423626
0.468378
0.289235
0.377265
0.198123
0.242872
0.33399
0.423634
0.468384
0.289241
0.3046
0.508489
0.508491
0.573426
0.374077
0.439012
0.439014
0.466832
0.466835
0.332442
0.42356
0.692344
0.55795
0.557953
0
0
0
0
0
0
0
0.728002
0.972219
0.613752
0.593588
0.837805
0.817641
0.952055
0.728004
0.972223
0.613755
0.593592
0.83781
0.817647
0.952059
0.264417
0.264418
0.30919
0.468308
0.378764
0.423535
0.423537
0.599745
0.732661
0.598268
0.8223
0.95817
0.823777
0.956693
0.599751
0.732664
0.598274
0.822308
0.958176
0.823785
0.956699
0
0
0
0
0
0
0.864818
0
0
0
0
0
0
0.864826
0.533194
0.354008
0.398781
0.5579
0.647539
0.692312
0.513127
0.533197
0.354012
0.398783
0.557902
0.647545
0.692316
0.51313
0.777409
0.598129
0.483878
0.822182
0.528651
0.752705
0.707931
0.598134
0.777418
0.483885
0.822189
0.528657
0.752712
0.707941
0
0
0
0
0
0
0.860337
0.380356
0.516364
0.516367
0.290855
0.561116
0.335604
0.335607
0.622787
0.622789
0.488375
0.647493
0.91632
0.781906
0.781908
0.469926
0.785076
0.605933
0.559564
0.650685
0.604316
0.425174
0.469929
0.785082
0.605939
0.559573
0.650688
0.604322
0.42518
0.55647
0.73575
0.780502
0.602836
0.647589
0.87162
0.826868
0.556479
0.735764
0.780513
0.602848
0.647597
0.871632
0.826882
0.559499
0.874648
0.874651
0.828282
0.740258
0.693889
0.693892
)
;

boundaryField
{
    inlet
    {
        type            calculated;
        value           uniform 0;
    }
    wall
    {
        type            calculated;
        value           uniform 0;
    }
    outlet
    {
        type            calculated;
        value           uniform 0;
    }
    procBoundary0to1
    {
        type            processor;
        value           uniform 0;
    }
    procBoundary0to2
    {
        type            processor;
        value           uniform 0;
    }
}


// ************************************************************************* //
