/*--------------------------------*- C++ -*----------------------------------*\
| =========                 |                                                 |
| \\      /  F ield         | OpenFOAM: The Open Source CFD Toolbox           |
|  \\    /   O peration     | Version:  5.x                                   |
|   \\  /    A nd           | Web:      www.OpenFOAM.org                      |
|    \\/     M anipulation  |                                                 |
\*---------------------------------------------------------------------------*/
FoamFile
{
    version     2.0;
    format      ascii;
    class       volVectorField;
    location    "0.078";
    object      U;
}
// * * * * * * * * * * * * * * * * * * * * * * * * * * * * * * * * * * * * * //

dimensions      [0 1 -1 0 0 0 0];

internalField   nonuniform List<vector> 
1546
(
(-3.1424e-05 -3.15871e-05 0.0332196)
(-3.14213e-05 -3.69512e-05 0.0332044)
(-2.20749e-05 -3.87569e-05 0.0332108)
(-2.26454e-05 -4.08021e-05 0.033201)
(-5.98488e-06 -4.16424e-05 0.033204)
(-3.6788e-05 -3.163e-05 0.0332043)
(-3.83733e-05 -3.8582e-05 0.0331759)
(-2.58202e-05 -4.11706e-05 0.0331772)
(-2.54537e-05 -4.38557e-05 0.033167)
(-7.71252e-06 -4.50548e-05 0.0331694)
(-3.85938e-05 -2.22688e-05 0.0332107)
(-4.0962e-05 -2.60138e-05 0.0331772)
(-2.73503e-05 -2.75434e-05 0.0331756)
(-2.65302e-05 -2.9353e-05 0.0331651)
(-8.43688e-06 -3.02407e-05 0.0331673)
(-4.06387e-05 -2.28589e-05 0.0332009)
(-4.36462e-05 -2.56674e-05 0.033167)
(-2.91594e-05 -2.6744e-05 0.0331651)
(-2.81511e-05 -2.83654e-05 0.0331548)
(-9.58891e-06 -2.91662e-05 0.0331571)
(-4.14795e-05 -6.19652e-06 0.0332039)
(-4.48464e-05 -7.92312e-06 0.0331694)
(-3.00483e-05 -8.64573e-06 0.0331673)
(-2.89524e-05 -9.79771e-06 0.0331571)
(-1.02426e-05 -1.04506e-05 0.0331595)
(-1.36279e-05 -1.36684e-05 -0.0173169)
(-1.8973e-05 -8.38899e-06 -0.0173174)
(-1.61845e-05 -6.78321e-06 -0.0173199)
(-1.55818e-05 -5.19348e-06 -0.0173207)
(-1.01164e-05 -4.67033e-06 -0.0173222)
(-8.34858e-06 -1.90601e-05 -0.0173174)
(-1.2356e-05 -1.24432e-05 -0.0173149)
(-1.31135e-05 -1.02275e-05 -0.0173163)
(-1.35548e-05 -8.30332e-06 -0.0173164)
(-9.20586e-06 -7.63804e-06 -0.0173177)
(-6.74286e-06 -1.62942e-05 -0.0173199)
(-1.01404e-05 -1.32236e-05 -0.0173163)
(-1.20487e-05 -1.21594e-05 -0.0173172)
(-1.29953e-05 -1.12335e-05 -0.017317)
(-9.01373e-06 -1.09916e-05 -0.0173182)
(-5.15348e-06 -1.57227e-05 -0.0173207)
(-8.21706e-06 -1.36953e-05 -0.0173164)
(-1.11234e-05 -1.31355e-05 -0.017317)
(-1.23871e-05 -1.25266e-05 -0.0173167)
(-8.87417e-06 -1.24774e-05 -0.0173178)
(-4.62956e-06 -1.02589e-05 -0.0173222)
(-7.5503e-06 -9.34977e-06 -0.0173177)
(-1.088e-05 -9.15908e-06 -0.0173182)
(-1.23371e-05 -9.0197e-06 -0.0173178)
(-9.02103e-06 -9.16775e-06 -0.0173189)
(-3.29802e-05 -3.31263e-05 0.0251969)
(-3.55418e-05 -3.5196e-05 0.0251788)
(-2.60842e-05 -3.58546e-05 0.0251788)
(-2.56001e-05 -3.71995e-05 0.0251668)
(-7.87436e-06 -3.77691e-05 0.025167)
(-3.50499e-05 -3.57409e-05 0.0251787)
(-3.81921e-05 -3.83911e-05 0.0251565)
(-2.80354e-05 -3.93021e-05 0.0251552)
(-2.74666e-05 -4.10577e-05 0.0251419)
(-9.18347e-06 -4.18554e-05 0.0251415)
(-3.57085e-05 -2.62837e-05 0.0251788)
(-3.9103e-05 -2.82349e-05 0.0251552)
(-2.87512e-05 -2.89505e-05 0.0251533)
(-2.81537e-05 -3.03894e-05 0.0251396)
(-9.73297e-06 -3.11047e-05 0.025139)
(-3.70534e-05 -2.58265e-05 0.0251667)
(-4.08584e-05 -2.7693e-05 0.0251418)
(-3.01899e-05 -2.838e-05 0.0251395)
(-2.96208e-05 -2.9847e-05 0.0251252)
(-1.08842e-05 -3.05968e-05 0.0251244)
(-3.76229e-05 -8.09994e-06 0.0251668)
(-4.16562e-05 -9.40903e-06 0.0251414)
(-3.09052e-05 -9.9582e-06 0.0251389)
(-3.03704e-05 -1.11096e-05 0.0251244)
(-1.15571e-05 -1.17823e-05 0.0251234)
(-3.25125e-05 -3.26099e-05 -0.00985747)
(-3.71246e-05 -3.15492e-05 -0.00987317)
(-2.81291e-05 -3.13155e-05 -0.00987599)
(-2.74431e-05 -3.10352e-05 -0.00988646)
(-1.09658e-05 -3.10531e-05 -0.00988832)
(-3.14518e-05 -3.72782e-05 -0.00987319)
(-3.58928e-05 -3.60462e-05 -0.00988853)
(-2.76494e-05 -3.57528e-05 -0.00989124)
(-2.7208e-05 -3.55132e-05 -0.00990178)
(-1.10255e-05 -3.55801e-05 -0.00990369)
(-3.12178e-05 -2.82899e-05 -0.00987602)
(-3.55991e-05 -2.78102e-05 -0.00989125)
(-2.75974e-05 -2.77586e-05 -0.0098939)
(-2.72715e-05 -2.78445e-05 -0.00990448)
(-1.11977e-05 -2.80617e-05 -0.00990639)
(-3.09378e-05 -2.76376e-05 -0.00988651)
(-3.53602e-05 -2.74021e-05 -0.00990182)
(-2.76837e-05 -2.74657e-05 -0.0099045)
(-2.75111e-05 -2.77043e-05 -0.00991531)
(-1.15903e-05 -2.80213e-05 -0.00991733)
(-3.0955e-05 -1.11586e-05 -0.0098884)
(-3.54261e-05 -1.12187e-05 -0.00990375)
(-2.78996e-05 -1.13909e-05 -0.00990644)
(-2.78272e-05 -1.17862e-05 -0.00991736)
(-1.19918e-05 -1.21888e-05 -0.00991945)
(-4.94204e-05 -4.95837e-05 0.0191752)
(-5.40266e-05 -5.13674e-05 0.019145)
(-3.93953e-05 -5.1923e-05 0.0191416)
(-3.79585e-05 -5.33627e-05 0.0191217)
(-1.05906e-05 -5.39777e-05 0.0191198)
(-5.12041e-05 -5.42587e-05 0.0191449)
(-5.62998e-05 -5.65317e-05 0.0191126)
(-4.13393e-05 -5.72783e-05 0.0191086)
(-3.99634e-05 -5.91629e-05 0.0190873)
(-1.20334e-05 -6.00132e-05 0.019085)
(-5.17593e-05 -3.9631e-05 0.0191416)
(-5.70461e-05 -4.15748e-05 0.0191086)
(-4.20262e-05 -4.22619e-05 0.0191044)
(-4.06931e-05 -4.39607e-05 0.0190827)
(-1.2653e-05 -4.47985e-05 0.0190802)
(-5.31992e-05 -3.82315e-05 0.0191215)
(-5.89311e-05 -4.0236e-05 0.0190873)
(-4.37252e-05 -4.09657e-05 0.0190827)
(-4.25e-05 -4.2772e-05 0.0190601)
(-1.41011e-05 -4.36969e-05 0.0190572)
(-5.38136e-05 -1.08629e-05 0.0191196)
(-5.97807e-05 -1.23056e-05 0.0190849)
(-4.45622e-05 -1.29252e-05 0.0190801)
(-4.34242e-05 -1.43732e-05 0.0190572)
(-1.49573e-05 -1.52296e-05 0.0190541)
(-6.41188e-05 -6.4271e-05 -0.00477451)
(-7.07467e-05 -6.53649e-05 -0.00481186)
(-5.14236e-05 -6.57631e-05 -0.00481719)
(-4.92491e-05 -6.67827e-05 -0.00484166)
(-1.38225e-05 -6.72898e-05 -0.00484489)
(-6.52127e-05 -7.09776e-05 -0.0048119)
(-7.22018e-05 -7.24322e-05 -0.0048504)
(-5.28114e-05 -7.2977e-05 -0.00485608)
(-5.07467e-05 -7.43873e-05 -0.00488157)
(-1.49156e-05 -7.51086e-05 -0.00488516)
(-6.56104e-05 -5.16584e-05 -0.00481726)
(-7.27461e-05 -5.30457e-05 -0.00485611)
(-5.33785e-05 -5.36134e-05 -0.00486189)
(-5.13806e-05 -5.49932e-05 -0.0048877)
(-1.54814e-05 -5.57682e-05 -0.00489141)
(-6.66301e-05 -4.95288e-05 -0.00484178)
(-7.4157e-05 -5.10255e-05 -0.00488164)
(-5.47588e-05 -5.16597e-05 -0.00488775)
(-5.29014e-05 -5.31794e-05 -0.00491444)
(-1.67547e-05 -5.40672e-05 -0.00491851)
(-6.71362e-05 -1.41009e-05 -0.00484506)
(-7.48771e-05 -1.51936e-05 -0.00488528)
(-5.55325e-05 -1.57597e-05 -0.00489151)
(-5.37881e-05 -1.70325e-05 -0.00491855)
(-1.76134e-05 -1.78924e-05 -0.00492279)
(-8.84902e-05 -8.86976e-05 0.0149646)
(-9.66666e-05 -9.17957e-05 0.0149076)
(-6.9235e-05 -9.27244e-05 0.0148996)
(-6.5703e-05 -9.52302e-05 0.0148621)
(-1.50896e-05 -9.62174e-05 0.0148576)
(-9.15883e-05 -9.69734e-05 0.0149075)
(-0.000100573 -0.000100879 0.0148479)
(-7.25746e-05 -0.000102091 0.0148391)
(-6.91056e-05 -0.00010533 0.0147998)
(-1.72911e-05 -0.000106667 0.0147945)
(-9.25162e-05 -6.95452e-05 0.0148995)
(-0.000101784 -7.28841e-05 0.014839)
(-7.3685e-05 -7.39953e-05 0.01483)
(-7.02777e-05 -7.68945e-05 0.0147901)
(-1.82176e-05 -7.8211e-05 0.0147845)
(-9.50221e-05 -6.60689e-05 0.014862)
(-0.000105024 -6.947e-05 0.0147997)
(-7.6585e-05 -7.06426e-05 0.01479)
(-7.33213e-05 -7.36847e-05 0.0147486)
(-2.04829e-05 -7.51362e-05 0.0147425)
(-9.60077e-05 -1.54533e-05 0.0148574)
(-0.000106359 -1.7654e-05 0.0147944)
(-7.78997e-05 -1.85807e-05 0.0147844)
(-7.47713e-05 -2.0845e-05 0.0147424)
(-2.17866e-05 -2.215e-05 0.014736)
(-0.000123887 -0.000124106 -0.00120219)
(-0.000135895 -0.00012777 -0.00127783)
(-9.68272e-05 -0.000128982 -0.00128888)
(-9.11991e-05 -0.000131901 -0.00133809)
(-1.96342e-05 -0.000133129 -0.00134439)
(-0.000127551 -0.000136235 -0.0012779)
(-0.00014061 -0.000140948 -0.00135707)
(-0.000100834 -0.000142559 -0.00136919)
(-9.52316e-05 -0.000146426 -0.00142116)
(-2.22035e-05 -0.000148112 -0.00142837)
(-0.000128761 -9.71691e-05 -0.00128901)
(-0.000142219 -0.000101175 -0.00136925)
(-0.000102303 -0.000102644 -0.0013817)
(-9.67507e-05 -0.000106098 -0.0014345)
(-2.33451e-05 -0.00010776 -0.00144202)
(-0.00013168 -9.16097e-05 -0.00133828)
(-0.000146087 -9.56399e-05 -0.00142128)
(-0.000105757 -9.71596e-05 -0.00143457)
(-0.000100348 -0.000100754 -0.00148958)
(-2.60368e-05 -0.000102573 -0.00149788)
(-0.000132906 -2.00416e-05 -0.00134467)
(-0.000147771 -2.26091e-05 -0.00142858)
(-0.000107417 -2.37511e-05 -0.00144218)
(-0.000102165 -2.6441e-05 -0.00149797)
(-2.76376e-05 -2.80436e-05 -0.00150662)
(-0.000167666 -0.000167944 0.0120603)
(-0.000183342 -0.000174869 0.0119491)
(-0.000129543 -0.000176918 0.0119316)
(-0.000121266 -0.000182291 0.011859)
(-2.28915e-05 -0.000184216 0.0118492)
(-0.000174591 -0.000183776 0.011949)
(-0.000192026 -0.000192457 0.0118327)
(-0.000136741 -0.000195092 0.0118133)
(-0.000128357 -0.000201941 0.0117371)
(-2.68222e-05 -0.000204503 0.0117257)
(-0.000176637 -0.000129978 0.0119314)
(-0.000194658 -0.000137174 0.0118132)
(-0.000139024 -0.000139459 0.011793)
(-0.000130674 -0.000145398 0.0117154)
(-2.84085e-05 -0.000147812 0.0117035)
(-0.00018201 -0.00012179 0.0118587)
(-0.00020151 -0.000128877 0.0117369)
(-0.000144965 -0.000131195 0.0117153)
(-0.00013671 -0.000137227 0.0116349)
(-3.23649e-05 -0.000139813 0.0116217)
(-0.00018393 -2.34094e-05 0.0118488)
(-0.000204065 -2.73368e-05 0.0117254)
(-0.000147374 -2.89235e-05 0.0117033)
(-0.000139292 -3.28765e-05 0.0116216)
(-3.45313e-05 -3.5046e-05 0.0116077)
(-0.000240483 -0.000240791 0.00130204)
(-0.000264852 -0.000249543 0.00115379)
(-0.00018687 -0.000252733 0.00112978)
(-0.000173532 -0.000259382 0.00103388)
(-3.09408e-05 -0.00026219 0.00102058)
(-0.000249236 -0.000265353 0.00115369)
(-0.00027636 -0.000276859 0.000996375)
(-0.000196377 -0.00028109 0.000969433)
(-0.000182688 -0.000290006 0.000866667)
(-3.62774e-05 -0.000293808 0.000851133)
(-0.000252423 -0.000187372 0.00112957)
(-0.000280589 -0.000196875 0.000969334)
(-0.000200011 -0.000200512 0.000941296)
(-0.000186245 -0.000208154 0.00083642)
(-3.84947e-05 -0.000211706 0.000820003)
(-0.000259071 -0.000174147 0.00103358)
(-0.000289506 -0.000183296 0.000866473)
(-0.000207656 -0.000186855 0.000836322)
(-0.000193882 -0.000194486 0.000725961)
(-4.38199e-05 -0.00019824 0.000707794)
(-0.000261874 -3.15477e-05 0.00102011)
(-0.000293302 -3.68785e-05 0.000850783)
(-0.000211201 -3.90963e-05 0.000819749)
(-0.00019763 -4.44161e-05 0.000707647)
(-4.67672e-05 -4.73681e-05 0.00068874)
(-0.000322954 -0.000323335 0.0101324)
(-0.000355632 -0.000339864 0.00991418)
(-0.000249518 -0.000344982 0.00987506)
(-0.000230548 -0.000357471 0.00973332)
(-3.7593e-05 -0.000361701 0.00971159)
(-0.000339483 -0.00035627 0.00991407)
(-0.000376542 -0.000377173 0.00968453)
(-0.000266555 -0.000383868 0.00963966)
(-0.000246754 -0.000399711 0.00949013)
(-4.52454e-05 -0.000405394 0.0094642)
(-0.000344594 -0.000250152 0.00987481)
(-0.00038323 -0.000267181 0.00963953)
(-0.000272046 -0.000272678 0.00959242)
(-0.000252066 -0.000286217 0.00943871)
(-4.82991e-05 -0.000291265 0.00941123)
(-0.000357082 -0.000231333 0.00973296)
(-0.000399078 -0.000247525 0.00948989)
(-0.00028559 -0.000252841 0.00943861)
(-0.000265341 -0.000266103 0.00927969)
(-5.56468e-05 -0.000271182 0.00924888)
(-0.000361298 -3.83612e-05 0.00971102)
(-0.000404745 -4.60013e-05 0.00946375)
(-0.000290624 -4.9056e-05 0.00941091)
(-0.000270407 -5.63928e-05 0.00924868)
(-5.9436e-05 -6.01903e-05 0.00921618)
(-0.000469107 -0.00046953 0.00307646)
(-0.000522481 -0.000489932 0.00278833)
(-0.000367652 -0.000499027 0.00273388)
(-0.000336907 -0.000513806 0.00254835)
(-5.41238e-05 -0.000520934 0.00251805)
(-0.000489509 -0.000523234 0.00278819)
(-0.000550845 -0.000551591 0.00247768)
(-0.000390659 -0.000563775 0.00241463)
(-0.000358045 -0.000584655 0.00221191)
(-6.57513e-05 -0.000594213 0.00217556)
(-0.000498598 -0.000368401 0.00273355)
(-0.000563022 -0.000391399 0.00241445)
(-0.000400699 -0.000401444 0.00234732)
(-0.000367331 -0.000418464 0.00213897)
(-7.03408e-05 -0.000426891 0.00209939)
(-0.000513373 -0.000337849 0.0025479)
(-0.000583904 -0.000358971 0.00221162)
(-0.000417724 -0.000368259 0.00213884)
(-0.000383492 -0.000384409 0.00191549)
(-8.13004e-05 -0.000393166 0.00187135)
(-0.000520489 -5.50478e-05 0.00251729)
(-0.000593446 -6.66584e-05 0.00217498)
(-0.000426136 -7.12485e-05 0.00209898)
(-0.000392237 -8.21927e-05 0.0018711)
(-8.71296e-05 -8.80333e-05 0.00182518)
(-0.000624921 -0.000625443 0.00895747)
(-0.000698337 -0.000665496 0.00853185)
(-0.000489576 -0.000679589 0.00844158)
(-0.000446493 -0.000709881 0.00816555)
(-6.84463e-05 -0.000720376 0.0081148)
(-0.000664973 -0.000699305 0.0085317)
(-0.000750559 -0.000751505 0.00807904)
(-0.000532453 -0.00077094 0.00797042)
(-0.000485951 -0.000809621 0.00767693)
(-8.47768e-05 -0.000824594 0.00761314)
(-0.000679045 -0.000490525 0.00844118)
(-0.000769972 -0.000533376 0.00797017)
(-0.000547665 -0.000548608 0.00785376)
(-0.000500125 -0.000582787 0.00754674)
(-9.19452e-05 -0.000595626 0.0074781)
(-0.000709333 -0.00044771 0.00816501)
(-0.000808669 -0.000487122 0.00767655)
(-0.000581864 -0.000501314 0.00754661)
(-0.000532971 -0.000534119 0.0072316)
(-0.000106757 -0.00054554 0.00715369)
(-0.000719785 -6.96209e-05 0.00811385)
(-0.000823598 -8.59101e-05 0.00761237)
(-0.00059466 -9.30836e-05 0.00747758)
(-0.000544351 -0.000107861 0.00715332)
(-0.000113682 -0.000114811 0.00706871)
(-0.000915161 -0.000915736 0.00442872)
(-0.00103895 -0.000964181 0.00387256)
(-0.000733844 -0.000992177 0.00374546)
(-0.000663558 -0.00102527 0.00338803)
(-0.000105667 -0.00104583 0.00331477)
(-0.000963605 -0.0010401 0.00387237)
(-0.00111238 -0.00111353 0.00326262)
(-0.000792598 -0.00115179 0.00310846)
(-0.000715177 -0.00120367 0.00270785)
(-0.000133888 -0.00123112 0.00261566)
(-0.000991589 -0.000734986 0.00374492)
(-0.00115064 -0.000793715 0.00310815)
(-0.00082394 -0.000825068 0.00293866)
(-0.000742846 -0.00086359 0.00252336)
(-0.000144747 -0.000886139 0.00241835)
(-0.00102467 -0.000665047 0.00338734)
(-0.00120252 -0.000716623 0.0027074)
(-0.000862473 -0.000744291 0.00252318)
(-0.000776252 -0.000777669 0.0020613)
(-0.000169195 -0.000802389 0.001939)
(-0.00104519 -0.000107112 0.00331349)
(-0.00122992 -0.000135287 0.00261471)
(-0.000884982 -0.000146144 0.00241765)
(-0.000800944 -0.000170546 0.00193857)
(-0.000183638 -0.000185019 0.00181166)
(-0.00120811 -0.00120882 0.00842989)
(-0.00138196 -0.00130502 0.00761052)
(-0.000974182 -0.0013473 0.00739618)
(-0.000877337 -0.00142235 0.00686221)
(-0.000139842 -0.00145246 0.00673619)
(-0.0013043 -0.00138347 0.00761031)
(-0.00151527 -0.00151672 0.0067256)
(-0.0010874 -0.00157865 0.00645199)
(-0.000978937 -0.00167526 0.00587869)
(-0.000179825 -0.00172201 0.00571041)
(-0.00134652 -0.000975629 0.00739552)
(-0.00157714 -0.00108877 0.00645155)
(-0.00113264 -0.00113407 0.00614958)
(-0.00102064 -0.00122954 0.00552755)
(-0.000200952 -0.00127249 0.00534055)
(-0.00142155 -0.000879294 0.00686137)
(-0.0016738 -0.000980746 0.00587809)
(-0.00122817 -0.00102252 0.00552736)
(-0.00111736 -0.00111911 0.00490788)
(-0.000238186 -0.00115245 0.00470279)
(-0.00145153 -0.000141683 0.00673459)
(-0.00172043 -0.000181541 0.00570911)
(-0.00127101 -0.000202696 0.0053397)
(-0.00115056 -0.000239829 0.0047022)
(-0.000251234 -0.000252947 0.00447367)
(-0.00177434 -0.00177512 0.00566805)
(-0.00207371 -0.00189187 0.00461075)
(-0.001482 -0.00198111 0.00430592)
(-0.00132337 -0.00205568 0.00361665)
(-0.000230569 -0.00211985 0.00343389)
(-0.00189109 -0.00207553 0.00461049)
(-0.00227137 -0.00227316 0.00342866)
(-0.0016392 -0.00239898 0.00303237)
(-0.00145654 -0.00253892 0.00223825)
(-0.000306602 -0.00262736 0.00198708)
(-0.00198029 -0.00148379 0.00430502)
(-0.00239716 -0.00164091 0.00303185)
(-0.0017476 -0.00174936 0.00257457)
(-0.00155164 -0.00183404 0.00174947)
(-0.00033878 -0.00189339 0.00145897)
(-0.00205483 -0.00132581 0.00361562)
(-0.00253711 -0.00145884 0.00223758)
(-0.00183233 -0.00155394 0.00174925)
(-0.00160052 -0.00160271 0.000794523)
(-0.000388892 -0.00166897 0.000421392)
(-0.00211891 -0.000232896 0.00343167)
(-0.00262541 -0.000308803 0.00198554)
(-0.00189152 -0.000340953 0.00145777)
(-0.00166667 -0.000390921 0.000420654)
(-0.000430216 -0.000432338 1.22122e-05)
(-0.00231774 -0.00231872 0.00866031)
(-0.0027449 -0.00254533 0.00710432)
(-0.00196824 -0.00268279 0.00657596)
(-0.00174955 -0.00286673 0.00554634)
(-0.000315051 -0.0029676 0.00521508)
(-0.00254435 -0.00274731 0.00710402)
(-0.00309482 -0.00309704 0.00540507)
(-0.00227793 -0.00331165 0.00469158)
(-0.0020244 -0.00354415 0.00355991)
(-0.000432626 -0.00369861 0.00309525)
(-0.00268163 -0.00197046 0.00657487)
(-0.00330924 -0.00227997 0.00469084)
(-0.00241508 -0.00241725 0.00388878)
(-0.00213637 -0.00267316 0.00257188)
(-0.000494697 -0.00283805 0.00198574)
(-0.00286557 -0.00175282 0.00554499)
(-0.00354187 -0.00202723 0.00355904)
(-0.00267112 -0.00213945 0.00257154)
(-0.00244534 -0.00244805 0.00117854)
(-0.000627068 -0.00259938 0.000493128)
(-0.00296599 -0.000317973 0.00521222)
(-0.00369601 -0.000435206 0.00309312)
(-0.00283576 -0.000497395 0.00198409)
(-0.00259629 -0.000629454 0.000492174)
(-0.00067549 -0.000678039 -0.000289707)
(-0.00340632 -0.00340741 0.00725248)
(-0.00416001 -0.0036749 0.00531786)
(-0.00303976 -0.00395591 0.00454989)
(-0.00268406 -0.00413799 0.00316695)
(-0.000556365 -0.00434031 0.00266444)
(-0.00367381 -0.00416292 0.00531744)
(-0.00468537 -0.00468819 0.00311733)
(-0.00348382 -0.0050877 0.00205766)
(-0.00305268 -0.00551502 0.000509945)
(-0.000778613 -0.00585856 -0.000239633)
(-0.00395473 -0.00304259 0.00454834)
(-0.00508479 -0.0034864 0.00205688)
(-0.00386605 -0.00386888 0.00073341)
(-0.00345462 -0.00421502 -0.00105727)
(-0.000933387 -0.00449524 -0.00202128)
(-0.00413665 -0.00268826 0.00316546)
(-0.0055122 -0.00305637 0.000508909)
(-0.00421243 -0.00345857 -0.00105761)
(-0.00367916 -0.00368265 -0.00292743)
(-0.00109447 -0.00394481 -0.0040924)
(-0.00433863 -0.000560279 0.00266048)
(-0.0058554 -0.000782187 -0.000242242)
(-0.0044922 -0.000936878 -0.0020232)
(-0.00394086 -0.00109761 -0.00409348)
(-0.00123474 -0.00123812 -0.00550092)
(-0.00434838 -0.00434979 0.0103684)
(-0.00544891 -0.00485496 0.0074772)
(-0.00411851 -0.00529599 0.00628999)
(-0.00363497 -0.00565341 0.0043488)
(-0.000798705 -0.00600902 0.00351427)
(-0.00485355 -0.00545287 0.00747692)
(-0.00635678 -0.0063602 0.00445208)
(-0.00488497 -0.00713083 0.00272936)
(-0.00432205 -0.00777176 0.000452284)
(-0.0011767 -0.00838819 -0.000822298)
(-0.00529404 -0.00412179 0.00628829)
(-0.00712687 -0.00488805 0.00272843)
(-0.00552909 -0.00553239 0.000416764)
(-0.00489169 -0.00611056 -0.00221898)
(-0.00145128 -0.00669091 -0.00397504)
(-0.00565178 -0.00364066 0.00434706)
(-0.00776834 -0.00432672 0.000451093)
(-0.00610748 -0.00489669 -0.0022195)
(-0.00548061 -0.00548475 -0.00516833)
(-0.00180339 -0.00607956 -0.00739611)
(-0.00600604 -0.000803326 0.00350936)
(-0.00838354 -0.00118048 -0.000825391)
(-0.00668709 -0.00145519 -0.00397813)
(-0.00607456 -0.00180662 -0.00739737)
(-0.00209025 -0.00209368 -0.0101618)
(-0.00644136 -0.00644275 0.0105617)
(-0.00824217 -0.00685349 0.00683171)
(-0.00616765 -0.00769143 0.00500806)
(-0.00545995 -0.00822129 0.00234499)
(-0.00137846 -0.00887811 0.000980846)
(-0.0068521 -0.00824678 0.0068313)
(-0.00943628 -0.00944031 0.00288353)
(-0.00748277 -0.0109649 0.000214037)
(-0.0066044 -0.0120872 -0.00268467)
(-0.00205855 -0.0133527 -0.00488353)
(-0.00768947 -0.00617194 0.00500609)
(-0.0109603 -0.00748655 0.000212953)
(-0.00881301 -0.0088173 -0.0033635)
(-0.00784681 -0.00983538 -0.00723059)
(-0.00269635 -0.011069 -0.0104777)
(-0.00821939 -0.00546736 0.00234257)
(-0.0120831 -0.00661026 -0.00268611)
(-0.0098316 -0.00785384 -0.00723135)
(-0.00885597 -0.00886125 -0.0114447)
(-0.00335058 -0.0101319 -0.0158061)
(-0.00887458 -0.00138452 0.000975785)
(-0.0133477 -0.00206381 -0.00488678)
(-0.0110641 -0.00270166 -0.0104806)
(-0.0101249 -0.00335492 -0.0158074)
(-0.00403237 -0.00403726 -0.0216553)
(-0.0082678 -0.00826964 0.0153255)
(-0.0110063 -0.00900948 0.0104791)
(-0.00860375 -0.010326 0.00776953)
(-0.00766227 -0.0109357 0.00409487)
(-0.00213196 -0.0121522 0.00202573)
(-0.00900764 -0.0110122 0.0104785)
(-0.0129785 -0.0129834 0.00497026)
(-0.0104524 -0.0155083 0.000851969)
(-0.00941977 -0.0173537 -0.00336862)
(-0.00337352 -0.0198538 -0.00698942)
(-0.0103231 -0.00860904 0.00776719)
(-0.0155024 -0.0104569 0.000851035)
(-0.0129722 -0.0129773 -0.00504921)
(-0.0120062 -0.0148705 -0.0109157)
(-0.00468664 -0.0176142 -0.0165762)
(-0.0109331 -0.00767106 0.0040924)
(-0.0173487 -0.00942661 -0.00337028)
(-0.014866 -0.0120142 -0.0109167)
(-0.0140556 -0.0140618 -0.0175549)
(-0.0061946 -0.0172582 -0.0252736)
(-0.0121473 -0.00214032 0.00201897)
(-0.019847 -0.00337971 -0.00699295)
(-0.0176084 -0.00469252 -0.0165813)
(-0.0172503 -0.00619881 -0.0252742)
(-0.00794591 -0.00794987 -0.0356704)
(-0.011548 -0.0115501 0.0171675)
(-0.0158055 -0.0126571 0.0113385)
(-0.0125508 -0.0149585 0.00749962)
(-0.0112039 -0.0160622 0.00273765)
(-0.00342528 -0.0183256 -0.000872309)
(-0.012655 -0.0158124 0.0113377)
(-0.0190684 -0.0190741 0.00505753)
(-0.0158199 -0.023791 -0.0015134)
(-0.0144446 -0.0271045 -0.00681042)
(-0.00568631 -0.0319631 -0.0135295)
(-0.0149551 -0.0125569 0.00749768)
(-0.0237841 -0.0158254 -0.00151444)
(-0.0205791 -0.0205854 -0.0113353)
(-0.0193729 -0.0240225 -0.0200896)
(-0.00836484 -0.0293567 -0.0319384)
(-0.0160595 -0.0112158 0.00273408)
(-0.0270991 -0.0144531 -0.00681292)
(-0.024017 -0.0193851 -0.0200911)
(-0.0232115 -0.0232184 -0.0299262)
(-0.0111181 -0.0292258 -0.047691)
(-0.0183188 -0.00343462 -0.000878468)
(-0.0319565 -0.00569376 -0.0135343)
(-0.0293489 -0.00837203 -0.0319429)
(-0.0292136 -0.0111237 -0.0476937)
(-0.0144914 -0.0144965 -0.0774239)
(-0.0144217 -0.0144244 0.0264005)
(-0.0206801 -0.0156633 0.0193724)
(-0.0172005 -0.0198097 0.0146494)
(-0.016034 -0.0210007 0.00876359)
(-0.00569205 -0.0254282 0.00408163)
(-0.0156607 -0.0206879 0.0193716)
(-0.0258354 -0.0258422 0.0112815)
(-0.0223187 -0.0343521 0.00253998)
(-0.0214324 -0.0401871 -0.004812)
(-0.010086 -0.0509255 -0.0146098)
(-0.0198059 -0.0172086 0.014648)
(-0.0343442 -0.0223257 0.00253992)
(-0.0315468 -0.0315544 -0.0113148)
(-0.0326042 -0.0379908 -0.024235)
(-0.0165124 -0.0517906 -0.0423583)
(-0.0209969 -0.016047 0.00876177)
(-0.0401799 -0.021443 -0.00481401)
(-0.0379838 -0.0326167 -0.0242364)
(-0.0416458 -0.0416561 -0.0402825)
(-0.0240214 -0.0627284 -0.0698166)
(-0.025422 -0.00570658 0.00407702)
(-0.0509171 -0.0100957 -0.0146104)
(-0.0517827 -0.0165214 -0.0423652)
(-0.0627159 -0.0240258 -0.0698119)
(-0.0377186 -0.0377208 -0.111671)
(-0.0190113 -0.0190143 0.0303631)
(-0.0275678 -0.0212449 0.0230821)
(-0.0231568 -0.0277466 0.016738)
(-0.02177 -0.0304002 0.0099332)
(-0.00807129 -0.0379842 0.002383)
(-0.0212419 -0.0275761 0.0230804)
(-0.0359046 -0.0359112 0.0153719)
(-0.0319165 -0.0497648 0.00299159)
(-0.0315886 -0.060105 -0.00507098)
(-0.0155107 -0.0784023 -0.0231735)
(-0.0277418 -0.0231638 0.0167366)
(-0.0497564 -0.0319239 0.00299051)
(-0.0473625 -0.0473703 -0.0195984)
(-0.0503963 -0.059518 -0.0383271)
(-0.0265393 -0.0846173 -0.0778751)
(-0.0303976 -0.021785 0.00992724)
(-0.0600991 -0.0315975 -0.00507646)
(-0.0595106 -0.0504153 -0.0383303)
(-0.0687407 -0.0687443 -0.0603411)
(-0.0409272 -0.0984272 -0.132742)
(-0.0379733 -0.00808342 0.0023786)
(-0.0783979 -0.0155208 -0.0231827)
(-0.0846042 -0.0265443 -0.0778824)
(-0.0984082 -0.0409363 -0.132749)
(-0.0570945 -0.0570885 -0.299725)
(-0.0222074 -0.0222118 0.0483495)
(-0.0343062 -0.0239416 0.0412052)
(-0.0303376 -0.034401 0.0362498)
(-0.0303781 -0.0369741 0.0284983)
(-0.0131748 -0.052329 0.0208619)
(-0.0239371 -0.0343155 0.0412039)
(-0.0459151 -0.0459246 0.0334103)
(-0.0427689 -0.0706818 0.0204262)
(-0.0475634 -0.0884162 0.0105039)
(-0.0282033 -0.131107 -0.0124737)
(-0.0343968 -0.03035 0.0362522)
(-0.0706725 -0.0427814 0.0204281)
(-0.0728825 -0.0728944 -0.0040097)
(-0.0907723 -0.0932839 -0.0308322)
(-0.0561561 -0.161428 -0.0885553)
(-0.0369698 -0.0303941 0.0284995)
(-0.0884062 -0.0475822 0.0105005)
(-0.0932715 -0.0907921 -0.0308306)
(-0.135787 -0.135809 -0.0688997)
(-0.0972357 -0.284665 -0.200049)
(-0.0523275 -0.0132007 0.0208733)
(-0.131101 -0.0282209 -0.0124664)
(-0.161418 -0.0561745 -0.0885525)
(-0.284645 -0.0972297 -0.200031)
(-0.207937 -0.207932 -0.386297)
(-0.0267598 -0.0267642 0.0538824)
(-0.0396749 -0.0297058 0.0506951)
(-0.0358632 -0.0446681 0.0472954)
(-0.0371461 -0.0496996 0.0425701)
(-0.0156977 -0.0733594 0.0352204)
(-0.0297014 -0.0396808 0.0506924)
(-0.0566839 -0.0566899 0.0482373)
(-0.0548706 -0.0900267 0.0375372)
(-0.0644305 -0.119415 0.031868)
(-0.0387004 -0.18766 0.00606445)
(-0.0446636 -0.0358678 0.0472963)
(-0.0900207 -0.0548815 0.0375366)
(-0.0987195 -0.0987238 0.0137364)
(-0.134648 -0.138977 -0.0133615)
(-0.0851215 -0.272863 -0.0865997)
(-0.0497016 -0.0371522 0.0425615)
(-0.119409 -0.0644341 0.0318552)
(-0.138966 -0.134664 -0.0133712)
(-0.238432 -0.238416 -0.0570023)
(-0.181046 -0.563897 -0.316558)
(-0.0733523 -0.0157056 0.0352228)
(-0.187664 -0.0387179 0.00605151)
(-0.272839 -0.0851071 -0.0866176)
(-0.563891 -0.181095 -0.316542)
(-0.249334 -0.249445 -0.885325)
(-0.0259381 -0.0259453 0.0827371)
(-0.0408853 -0.0269835 0.0826287)
(-0.0384736 -0.045215 0.0880154)
(-0.0424166 -0.0489381 0.0863693)
(-0.020557 -0.0838041 0.0921883)
(-0.0269762 -0.0408936 0.0826247)
(-0.0590114 -0.0590242 0.0859211)
(-0.0591401 -0.104149 0.0863378)
(-0.078703 -0.144114 0.0901808)
(-0.0545392 -0.251307 0.0863267)
(-0.0452121 -0.0384919 0.0880203)
(-0.104141 -0.0591654 0.0863395)
(-0.123805 -0.123827 0.0913799)
(-0.189923 -0.179443 0.0804964)
(-0.132719 -0.398012 0.07324)
(-0.0489379 -0.0424312 0.0863697)
(-0.144105 -0.0787343 0.0901703)
(-0.179418 -0.189961 0.0805153)
(-0.388173 -0.388235 0.0502256)
(-0.334942 -0.790952 -0.135268)
(-0.0838177 -0.0206007 0.0922296)
(-0.251322 -0.0545833 0.0863262)
(-0.397957 -0.132789 0.0733132)
(-0.791068 -0.334898 -0.135451)
(-1.15174 -1.15142 -0.952664)
(-0.0272447 -0.0272533 0.0809671)
(-0.0343834 -0.026867 0.0904012)
(-0.0321329 -0.0473465 0.104424)
(-0.0329227 -0.047043 0.116285)
(-0.00999841 -0.0816162 0.136941)
(-0.0268584 -0.0343844 0.0903975)
(-0.0529084 -0.0529168 0.104165)
(-0.0505651 -0.0864832 0.126372)
(-0.0637667 -0.123526 0.145886)
(-0.0430598 -0.195553 0.17438)
(-0.0473451 -0.0321331 0.104427)
(-0.0864821 -0.0505866 0.126371)
(-0.103176 -0.103159 0.176903)
(-0.144286 -0.139494 0.229792)
(-0.0944156 -0.293192 0.338012)
(-0.0470557 -0.0328925 0.116276)
(-0.123501 -0.0637726 0.145862)
(-0.139498 -0.144222 0.229771)
(-0.324166 -0.324138 0.30655)
(-0.342117 -0.738194 0.425778)
(-0.0816506 -0.00998639 0.136963)
(-0.195522 -0.0431067 0.174344)
(-0.293205 -0.0942927 0.338033)
(-0.738095 -0.341861 0.425426)
(-1.4506 -1.45106 0.284989)
(-0.0164605 -0.0164716 0.109471)
(-0.0173828 -0.0131865 0.121131)
(-0.0125165 -0.0235894 0.138873)
(-0.00976779 -0.0198605 0.151743)
(0.000269174 -0.0477195 0.175114)
(-0.0131754 -0.0173885 0.121117)
(-0.0232005 -0.0232181 0.136526)
(-0.0178206 -0.0321842 0.16154)
(-0.0313406 -0.0326098 0.177773)
(-0.0267188 -0.0437289 0.202299)
(-0.02359 -0.0125405 0.138859)
(-0.0321785 -0.01787 0.161555)
(-0.0221566 -0.0221997 0.219554)
(-0.0220811 -0.0130649 0.265506)
(-0.0217551 -0.109122 0.370374)
(-0.0198748 -0.00976297 0.151701)
(-0.0326107 -0.0314051 0.177773)
(-0.0130321 -0.0220777 0.265427)
(0.0226583 0.0226335 0.324551)
(-0.0565229 0.000884369 0.271683)
(-0.047789 0.000216781 0.175073)
(-0.0437294 -0.0268526 0.202332)
(-0.109177 -0.0218697 0.370317)
(0.00117637 -0.0564818 0.27133)
(0.259877 0.25937 -1.00226)
(-0.0151012 -0.0151242 0.0757393)
(-0.00505295 -0.0107718 0.0877748)
(-0.00154608 -0.0238993 0.0983043)
(0.00328805 -0.0199348 0.10677)
(0.0136887 -0.0536172 0.11556)
(-0.0107488 -0.00506782 0.0877703)
(-0.0125772 -0.0125841 0.105346)
(-0.00935266 -0.0058573 0.122812)
(-0.023968 -0.0122032 0.13932)
(-0.0187349 0.0049529 0.16751)
(-0.0238678 -0.00157416 0.0982961)
(-0.00584249 -0.00937376 0.122815)
(-0.00159674 -0.00164335 0.14894)
(0.0144516 -0.0111921 0.165933)
(0.0225006 -0.10235 0.184797)
(-0.0199046 0.00329097 0.106761)
(-0.0122143 -0.0239563 0.13933)
(-0.0111717 0.0144708 0.165933)
(0.00737932 0.00752979 0.138481)
(-0.0309966 0.222282 -0.218899)
(-0.0535761 0.0136585 0.115533)
(0.00498052 -0.0187419 0.167534)
(-0.10223 0.0224883 0.184767)
(0.222236 -0.0307705 -0.218797)
(0.539568 0.539621 -2.64129)
(-0.00362369 -0.00363946 0.104985)
(0.00507165 0.00544983 0.119534)
(0.00630851 0.00260376 0.12756)
(0.00719495 0.0146634 0.141373)
(0.00928915 0.0069108 0.146887)
(0.00546559 0.00505775 0.119534)
(0.0117119 0.0116928 0.140374)
(0.0160331 0.0178918 0.161002)
(0.0123906 0.0234191 0.183709)
(0.0017672 0.0316877 0.217643)
(0.00261481 0.00627993 0.127552)
(0.0179057 0.0159941 0.160989)
(0.0180303 0.0179921 0.186625)
(0.0216654 0.0484854 0.233775)
(0.0120919 0.0423125 0.255148)
(0.0146689 0.00718112 0.141371)
(0.0234286 0.0123487 0.183704)
(0.0485176 0.021639 0.233804)
(0.0106017 0.0105618 0.221798)
(-0.0267356 -0.0663772 -0.148598)
(0.00689436 0.00923567 0.146857)
(0.0316876 0.00169638 0.2176)
(0.0423436 0.0120221 0.255118)
(-0.0663879 -0.0268982 -0.148601)
(-0.433577 -0.433501 -1.58222)
(0.000579016 0.000555936 0.0462158)
(0.0175982 0.0116348 0.0570668)
(0.0204293 0.0119832 0.0665572)
(0.0227403 0.0254532 0.0778899)
(0.019816 0.0222176 0.0889976)
(0.0116578 0.0175753 0.0570657)
(0.0288667 0.0288475 0.0741904)
(0.0340264 0.0531268 0.0927552)
(0.0330139 0.0792917 0.112151)
(0.0160692 0.12526 0.138853)
(0.0120103 0.0203992 0.0665507)
(0.0531496 0.0340002 0.0927545)
(0.0709372 0.0709085 0.127361)
(0.0964996 0.115281 0.17646)
(0.0653114 0.166421 0.234798)
(0.0254805 0.0227209 0.0778895)
(0.0793125 0.032995 0.112162)
(0.11531 0.0964812 0.176469)
(0.207964 0.207923 0.269538)
(0.091615 0.268769 0.180791)
(0.0222458 0.0197741 0.0889781)
(0.125285 0.0160349 0.138863)
(0.166432 0.0652753 0.234793)
(0.268775 0.0915583 0.180798)
(0.305825 0.305817 -0.177136)
(0.00826501 0.00824814 0.0875244)
(0.0253208 0.0243507 0.0975387)