/*--------------------------------*- C++ -*----------------------------------*\
| =========                 |                                                 |
| \\      /  F ield         | OpenFOAM: The Open Source CFD Toolbox           |
|  \\    /   O peration     | Version:  5.x                                   |
|   \\  /    A nd           | Web:      www.OpenFOAM.org                      |
|    \\/     M anipulation  |                                                 |
\*---------------------------------------------------------------------------*/
FoamFile
{
    version     2.0;
    format      ascii;
    class       surfaceScalarField;
    location    "0.006";
    object      phi;
}
// * * * * * * * * * * * * * * * * * * * * * * * * * * * * * * * * * * * * * //

dimensions      [0 3 -1 0 0 0 0];

internalField   nonuniform List<scalar> 
4381
(
-7.73436e-10
5.75074e-11
2.84106e-11
-7.11795e-10
1.26004e-10
-3.4081e-10
-6.44089e-10
1.24322e-10
-3.73744e-10
-3.96977e-10
1.67717e-10
-5.47533e-10
1.82467e-10
-5.87907e-10
-7.51175e-10
3.16058e-10
6.43023e-11
-6.99442e-10
3.6842e-10
-2.93607e-10
-6.25808e-10
3.80582e-10
-3.2853e-10
-3.75056e-10
4.12242e-10
-4.92813e-10
4.31471e-10
-5.35112e-10
-7.15657e-10
4.30854e-10
2.02184e-10
-6.73003e-10
4.68645e-10
-1.42755e-10
-5.96393e-10
4.81674e-10
-1.77215e-10
-3.53382e-10
5.06645e-10
-3.3668e-10
5.23626e-10
-3.77499e-10
-6.94284e-10
4.87098e-10
2.54394e-10
-6.55951e-10
5.15996e-10
-8.59833e-11
-5.78299e-10
5.27752e-10
-1.24019e-10
-3.39268e-10
5.49887e-10
-2.82855e-10
5.63636e-10
-3.2482e-10
-6.72984e-10
5.47438e-10
-6.37397e-10
2.17324e-10
-5.62462e-10
1.82373e-10
-3.25461e-10
2.89387e-11
-1.02907e-11
-5.91901e-10
1.78738e-11
-1.78463e-10
-7.02426e-10
8.87263e-11
-5.85559e-10
-6.24242e-10
1.19643e-10
-7.91134e-10
-3.97482e-10
1.59285e-10
-1.08844e-09
1.84763e-10
-1.19294e-09
-5.67317e-10
3.30637e-10
-5.79377e-11
-6.72486e-10
3.66588e-10
-4.6616e-10
-5.96956e-10
3.85327e-10
-6.69072e-10
-3.7219e-10
4.11617e-10
-9.68904e-10
4.28537e-10
-1.07519e-09
-5.42389e-10
4.6404e-10
2.5231e-10
-6.45602e-10
4.85204e-10
-1.58428e-10
-5.73032e-10
4.97527e-10
-3.62265e-10
-3.51692e-10
5.1557e-10
-6.62625e-10
5.27425e-10
-7.70325e-10
-5.31763e-10
4.31465e-10
4.67579e-10
-6.32225e-10
4.42571e-10
5.65403e-11
-5.60959e-10
4.4894e-10
-1.47615e-10
-3.41111e-10
4.59322e-10
-4.48058e-10
4.65837e-10
-5.56575e-10
-5.22916e-10
8.74628e-10
-6.21485e-10
4.68734e-10
-5.50339e-10
2.66173e-10
-3.3209e-10
-3.10123e-11
-1.38841e-10
-1.08092e-09
2.43028e-10
-2.54204e-10
-1.04502e-09
2.95147e-10
-1.06365e-09
-8.81918e-10
2.97113e-10
-1.40422e-09
-5.21251e-10
3.2915e-10
-1.89309e-09
3.3956e-10
-2.0822e-09
-1.06454e-09
6.20572e-10
-5.79936e-11
-1.0309e-09
6.61844e-10
-8.67077e-10
-8.66763e-10
6.68846e-10
-1.20577e-09
-5.08404e-10
6.95138e-10
-1.69476e-09
7.06204e-10
-1.883e-09
-1.03748e-09
8.11507e-10
4.34947e-10
-1.00652e-09
8.43839e-10
-3.71814e-10
-8.43875e-10
8.52269e-10
-7.09109e-10
-4.90462e-10
8.73976e-10
-1.19623e-09
8.84324e-10
-1.38443e-09
-1.02406e-09
8.7369e-10
7.77377e-10
-9.94314e-10
8.96753e-10
-2.64085e-11
-8.32891e-10
9.05006e-10
-3.62401e-10
-4.81558e-10
9.21459e-10
-8.47888e-10
9.30444e-10
-1.03559e-09
-1.00334e-09
1.57566e-09
-9.73428e-10
7.8071e-10
-8.1275e-10
4.48826e-10
-4.65347e-10
-3.08557e-11
-2.16437e-10
-1.27173e-09
3.71414e-10
-4.86271e-10
-1.3351e-09
4.22836e-10
-1.63083e-09
-1.15923e-09
4.40323e-10
-2.2063e-09
-6.78477e-10
4.75659e-10
-2.98785e-09
4.92115e-10
-3.29403e-09
-1.24357e-09
8.90419e-10
-1.60563e-10
-1.30822e-09
9.28471e-10
-1.30868e-09
-1.13531e-09
9.42496e-10
-1.8823e-09
-6.60524e-10
9.69915e-10
-2.66645e-09
9.83395e-10
-2.97152e-09
-1.21601e-09
1.09954e-09
6.36202e-10
-1.28093e-09
1.12973e-09
-5.08274e-10
-1.11087e-09
1.14151e-09
-1.07879e-09
-6.41476e-10
1.16356e-09
-1.86034e-09
1.17476e-09
-2.16514e-09
-1.20242e-09
1.07552e-09
1.20956e-09
-1.26709e-09
1.09819e-09
7.00708e-11
-1.09865e-09
1.10786e-09
-4.97129e-10
-6.32087e-10
1.12504e-09
-1.27575e-09
1.13398e-09
-1.57911e-09
-1.18191e-09
2.35179e-09
-1.24601e-09
1.22637e-09
-1.07923e-09
6.66079e-10
-6.17213e-10
-1.03332e-10
-4.03637e-10
-2.11021e-09
7.52109e-10
-6.89044e-10
-2.08476e-09
7.93824e-10
-2.58664e-09
-1.76039e-09
8.03723e-10
-3.46802e-09
-9.98196e-10
8.31372e-10
-4.68707e-09
8.42202e-10
-5.16497e-09
-2.09033e-09
1.51888e-09
-2.00327e-10
-2.06686e-09
1.55883e-09
-2.09703e-09
-1.74382e-09
1.57235e-09
-2.9748e-09
-9.86369e-10
1.5997e-09
-4.19402e-09
1.612e-09
-4.66911e-09
-2.06092e-09
1.86171e-09
1.01387e-09
-2.03929e-09
1.89856e-09
-8.69025e-10
-1.71883e-09
1.91276e-09
-1.73939e-09
-9.68159e-10
1.93841e-09
-2.94939e-09
1.95052e-09
-3.42208e-09
-2.04395e-09
1.90976e-09
1.8785e-09
-2.02287e-09
1.94125e-09
7.30504e-12
-1.70424e-09
1.95503e-09
-8.56955e-10
-9.57862e-10
1.97794e-09
-2.05997e-09
1.98912e-09
-2.52927e-09
-2.01407e-09
3.74227e-09
-1.99294e-09
1.89822e-09
-1.67718e-09
1.04732e-09
-9.38552e-10
-1.37573e-10
-6.00514e-10
-2.97844e-09
1.1971e-09
-1.05339e-09
-3.0173e-09
1.24143e-09
-3.92773e-09
-2.57344e-09
1.25917e-09
-5.2984e-09
-1.44905e-09
1.29067e-09
-7.20044e-09
1.3063e-09
-7.94002e-09
-2.95358e-09
2.31646e-09
-3.12677e-10
-2.99312e-09
2.36492e-09
-3.17984e-09
-2.55096e-09
2.38692e-09
-4.54417e-09
-1.43291e-09
2.42166e-09
-6.44285e-09
2.43901e-09
-7.17808e-09
-2.91602e-09
2.77481e-09
1.55187e-09
-2.95673e-09
2.82323e-09
-1.28516e-09
-2.51827e-09
2.84574e-09
-2.63518e-09
-1.41009e-09
2.88002e-09
-4.51387e-09
2.8965e-09
-5.24322e-09
-2.89222e-09
2.7602e-09
2.88277e-09
-2.93278e-09
2.80462e-09
6.81964e-11
-2.49671e-09
2.82585e-09
-1.27107e-09
-1.39573e-09
2.85788e-09
-3.13592e-09
2.87279e-09
-3.85919e-09
-2.84916e-09
5.67079e-09
-2.88973e-09
2.90706e-09
-2.45891e-09
1.59195e-09
-1.37103e-09
-2.39069e-10
-9.50286e-10
-4.673e-09
1.95695e-09
-1.53437e-09
-4.65947e-09
2.00535e-09
-6.04604e-09
-3.94255e-09
2.02685e-09
-8.13532e-09
-2.19451e-09
2.062e-09
-1.10824e-08
2.07983e-09
-1.22199e-08
-4.64527e-09
3.66218e-09
-4.22741e-10
-4.63187e-09
3.72896e-09
-4.91506e-09
-3.91623e-09
3.76192e-09
-6.99322e-09
-2.17658e-09
3.80984e-09
-9.92865e-09
3.83331e-09
-1.10584e-08
-4.59179e-09
4.37793e-09
2.41469e-09
-4.57982e-09
4.45104e-09
-2.01716e-09
-3.86978e-09
4.48689e-09
-4.06781e-09
-2.14641e-09
4.53812e-09
-6.96252e-09
4.56169e-09
-8.07872e-09
-4.55518e-09
4.40827e-09
4.41907e-09
-4.54281e-09
4.47928e-09
2.9824e-11
-3.83657e-09
4.51412e-09
-2.00192e-09
-2.12584e-09
4.56427e-09
-4.86964e-09
4.58636e-09
-5.97481e-09
-4.48509e-09
8.73854e-09
-4.47337e-09
4.44389e-09
-3.77671e-09
2.45615e-09
-2.08945e-09
-3.48406e-10
-1.43034e-09
-7.03553e-09
3.04025e-09
-2.29064e-09
-7.04392e-09
3.10679e-09
-9.22808e-09
-5.9684e-09
3.14078e-09
-1.24275e-08
-3.30522e-09
3.18987e-09
-1.69921e-08
3.21414e-09
-1.87409e-08
-6.99562e-09
5.61022e-09
-6.16971e-10
-7.00296e-09
5.71475e-09
-7.51407e-09
-5.92989e-09
5.7696e-09
-1.06934e-08
-3.28103e-09
5.84472e-09
-1.52311e-08
5.88033e-09
-1.69663e-08
-6.90996e-09
6.66462e-09
3.70754e-09
-6.91877e-09
6.78421e-09
-3.07578e-09
-5.85583e-09
6.84459e-09
-6.20336e-09
-3.23615e-09
6.92787e-09
-1.06629e-08
6.96478e-09
-1.23698e-08
-6.8499e-09
6.66993e-09
6.74008e-09
-6.85767e-09
6.78918e-09
3.48488e-11
-5.80139e-09
6.8479e-09
-3.05918e-09
-3.20419e-09
6.93094e-09
-7.46758e-09
6.96587e-09
-9.15439e-09
-6.73128e-09
1.32984e-08
-6.74068e-09
6.76546e-09
-5.70198e-09
3.75058e-09
-3.14679e-09
-5.42124e-10
-2.18555e-09
-1.08519e-08
4.70814e-09
-3.40459e-09
-1.08139e-08
4.81123e-09
-1.41386e-08
-9.14302e-09
4.86573e-09
-1.90197e-08
-5.04055e-09
4.94104e-09
-2.60766e-08
4.97527e-09
-2.87608e-08
-1.07895e-08
8.62507e-09
-8.87172e-10
-1.07495e-08
8.80132e-09
-1.15436e-08
-9.0839e-09
8.89491e-09
-1.63875e-08
-5.00648e-09
9.02114e-09
-2.33894e-08
9.07806e-09
-2.6049e-08
-1.06435e-08
1.02394e-08
5.68974e-09
-1.06054e-08
1.04456e-08
-4.75705e-09
-8.95837e-09
1.05501e-08
-9.50413e-09
-4.93411e-09
1.06935e-08
-1.63585e-08
1.0755e-08
-1.89622e-08
-1.05406e-08
1.02858e-08
1.02534e-08
-1.05005e-08
1.0494e-08
-5.2368e-11
-8.86527e-09
1.05959e-08
-4.73904e-09
-4.88129e-09
1.07401e-08
-1.14974e-08
1.07991e-08
-1.40637e-08
-1.03328e-08
2.02731e-08
-1.02959e-08
1.0278e-08
-8.6925e-09
5.73328e-09
-4.78414e-09
-8.1434e-10
-3.30056e-09
-1.66056e-08
7.2009e-09
-5.09386e-09
-1.65345e-08
7.37453e-09
-2.1629e-08
-1.39801e-08
7.46798e-09
-2.90823e-08
-7.69178e-09
7.59506e-09
-3.99892e-08
7.65053e-09
-4.41093e-08
-1.65006e-08
1.31466e-08
-1.30827e-09
-1.64252e-08
1.34541e-08
-1.76996e-08
-1.38813e-08
1.36185e-08
-2.50829e-08
-7.63632e-09
1.38407e-08
-3.5883e-08
1.39381e-08
-3.99578e-08
-1.62442e-08
1.55882e-08
8.68273e-09
-1.61702e-08
1.59507e-08
-7.32811e-09
-1.36595e-08
1.61344e-08
-1.45309e-08
-7.51126e-09
1.63885e-08
-2.50555e-08
1.64958e-08
-2.90228e-08
-1.60654e-08
1.5667e-08
1.55442e-08
-1.59863e-08
1.60337e-08
-2.14739e-10
-1.34957e-08
1.62119e-08
-7.30769e-09
-7.41936e-09
1.64668e-08
-1.76526e-08
1.65696e-08
-2.155e-08
-1.56989e-08
3.07733e-08
-1.56249e-08
1.5568e-08
-1.31905e-08
8.7278e-09
-7.24975e-09
-1.23599e-09
-4.98759e-09
-2.55106e-08
1.09646e-08
-7.61229e-09
-2.5346e-08
1.12697e-08
-3.30902e-08
-2.14255e-08
1.14348e-08
-4.44617e-08
-1.17757e-08
1.16609e-08
-6.13166e-08
1.17596e-08
-6.76496e-08
-2.53268e-08
1.99902e-08
-1.92863e-09
-2.51532e-08
2.05382e-08
-2.71443e-08
-2.12512e-08
2.08319e-08
-3.83845e-08
-1.16769e-08
2.12338e-08
-5.50343e-08
2.14079e-08
-6.12798e-08
-2.48685e-08
2.37045e-08
1.32098e-08
-2.4693e-08
2.43508e-08
-1.13184e-08
-2.08491e-08
2.46774e-08
-2.22221e-08
-1.14518e-08
2.51368e-08
-3.83579e-08
2.53291e-08
-4.43974e-08
-2.45538e-08
2.3884e-08
2.34911e-08
-2.43665e-08
2.45368e-08
-5.89975e-10
-2.05558e-08
2.48515e-08
-1.1294e-08
-1.12875e-08
2.53087e-08
-2.70943e-08
2.5492e-08
-3.30023e-08
-2.39011e-08
4.66142e-08
-2.37207e-08
2.3514e-08
-2.00091e-08
1.32582e-08
-1.09845e-08
-1.85409e-09
-7.4979e-09
-3.91115e-08
1.66159e-08
-1.13837e-08
-3.87922e-08
1.71546e-08
-5.05744e-08
-3.27948e-08
1.74458e-08
-6.7913e-08
-1.80144e-08
1.78507e-08
-9.39504e-08
1.80278e-08
-1.03694e-07
-3.87892e-08
3.02785e-08
-2.8641e-09
-3.84507e-08
3.12511e-08
-4.15828e-08
-3.24853e-08
3.17706e-08
-5.86773e-08
-1.78374e-08
3.24953e-08
-8.433e-08
3.28056e-08
-9.3903e-08
-3.79745e-08
3.5911e-08
2.00108e-08
-3.76242e-08
3.70562e-08
-1.74768e-08
-3.17601e-08
3.76316e-08
-3.39495e-08
-1.74325e-08
3.84572e-08
-5.865e-08
3.87993e-08
-6.78377e-08
-3.74246e-08
3.62737e-08
3.53614e-08
-3.70491e-08
3.74239e-08
-1.33567e-09
-3.12409e-08
3.79741e-08
-1.74465e-08
-1.71415e-08
3.87881e-08
-4.15261e-08
3.91108e-08
-5.04701e-08
-3.62744e-08
7.03686e-08
-3.59039e-08
3.53847e-08
-3.02688e-08
2.00658e-08
-1.66034e-08
-2.78254e-09
-1.12531e-08
-5.9913e-08
2.50751e-08
-1.70302e-08
-5.92851e-08
2.60327e-08
-7.72199e-08
-5.01113e-08
2.65319e-08
-1.03602e-07
-2.75097e-08
2.72525e-08
-1.43785e-07
2.75569e-08
-1.58768e-07
-5.93478e-08
4.56827e-08
-4.27169e-09
-5.86883e-08
4.74136e-08
-6.36258e-08
-4.95716e-08
4.83128e-08
-8.95764e-08
-2.72052e-08
4.96123e-08
-1.29057e-07
5.01527e-08
-1.43729e-07
-5.78961e-08
5.42106e-08
3.01657e-08
-5.72103e-08
5.62458e-08
-2.69971e-08
-4.82714e-08
5.72429e-08
-5.18201e-08
-2.64843e-08
5.87197e-08
-8.95465e-08
5.93174e-08
-1.03514e-07
-5.69405e-08
5.49224e-08
5.29915e-08
-5.62139e-08
5.69571e-08
-2.77526e-09
-4.73729e-08
5.79135e-08
-2.69593e-08
-2.59853e-08
5.93642e-08
-6.35596e-08
5.99302e-08
-7.70941e-08
-5.49055e-08
1.05812e-07
-5.41781e-08
5.30172e-08
-4.56419e-08
3.02313e-08
-2.50279e-08
-4.17754e-09
-1.68726e-08
-9.14976e-08
3.77007e-08
-2.56321e-08
-9.01877e-08
3.93548e-08
-1.17838e-07
-7.61056e-08
4.01348e-08
-1.57774e-07
-4.17015e-08
4.13305e-08
-2.19474e-07
4.17874e-08
-2.42268e-07
-9.05456e-08
6.86767e-08
-6.52377e-09
-8.92169e-08
7.16805e-08
-9.72811e-08
-7.52535e-08
7.31253e-08
-1.3653e-07
-4.12442e-08
7.53298e-08
-1.97064e-07
7.61825e-08
-2.1941e-07
-8.80289e-08
8.1547e-08
4.51606e-08
-8.66804e-08
8.50979e-08
-4.17639e-08
-7.3048e-08
8.67425e-08
-7.90706e-08
-4.00476e-08
8.9277e-08
-1.36495e-07
9.02491e-08
-1.57669e-07
-8.64032e-08
8.29025e-08
7.89538e-08
-8.5037e-08
8.64405e-08
-5.4845e-09
-7.16043e-08
8.80674e-08
-4.17174e-08
-3.92679e-08
9.05829e-08
-9.72026e-08
9.15366e-08
-1.17687e-07
-8.28647e-08
1.58296e-07
-8.14848e-08
7.89847e-08
-6.86002e-08
4.52418e-08
-3.7613e-08
-6.41115e-09
-2.54411e-08
-1.39398e-07
5.64957e-08
-3.8988e-08
-1.36484e-07
5.93326e-08
-1.80007e-07
-1.14195e-07
6.03233e-08
-2.40313e-07
-6.22393e-08
6.19279e-08
-3.33288e-07
6.23645e-08
-3.66884e-07
-1.37834e-07
1.0288e-07
-1.02736e-08
-1.35083e-07
1.0806e-07
-1.48759e-07
-1.13283e-07
1.10086e-07
-2.08093e-07
-6.18038e-08
1.13395e-07
-3.00008e-07
1.14312e-07
-3.33221e-07
-1.33493e-07
1.22269e-07
6.70547e-08
-1.30891e-07
1.28464e-07
-6.47695e-08
-1.0997e-07
1.30985e-07
-1.20891e-07
-6.01961e-08
1.35172e-07
-2.08046e-07
1.36579e-07
-2.40187e-07
-1.30777e-07
1.24603e-07
1.17096e-07
-1.28373e-07
1.30837e-07
-1.02609e-08
-1.07947e-07
1.33555e-07
-6.4714e-08
-5.92063e-08
1.37894e-07
-1.48665e-07
1.39463e-07
-1.79829e-07
-1.24542e-07
2.35367e-07
-1.22175e-07
1.17136e-07
-1.02766e-07
6.71572e-08
-5.63668e-08
-1.01345e-08
-3.87537e-08
-2.11368e-07
8.43255e-08
-6.01687e-08
-2.05408e-07
8.90402e-08
-2.74894e-07
-1.71795e-07
9.00152e-08
-3.63835e-07
-9.3718e-08
9.31443e-08
-5.04409e-07
9.38916e-08
-5.54507e-07
-2.08875e-07
1.53671e-07
-1.70529e-08
-2.03387e-07
1.62259e-07
-2.27466e-07
-1.70076e-07
1.64552e-07
-3.15942e-07
-9.29731e-08
1.70236e-07
-4.542e-07
1.71961e-07
-5.04346e-07
-2.01671e-07
1.83153e-07
9.81958e-08
-1.96673e-07
1.9346e-07
-1.00969e-07
-1.64386e-07
1.96808e-07
-1.85436e-07
-8.98382e-08
2.03516e-07
-3.15874e-07
2.05545e-07
-3.63685e-07
-1.97495e-07
1.87235e-07
1.72847e-07
-1.9333e-07
1.97585e-07
-1.8551e-08
-1.62098e-07
2.01768e-07
-1.00907e-07
-8.88649e-08
2.08968e-07
-2.2735e-07
2.11472e-07
-2.74691e-07
-1.87142e-07
3.48792e-07
-1.83018e-07
1.72903e-07
-1.53506e-07
9.83279e-08
-8.41449e-08
-1.68728e-08
-5.98777e-08
-3.19588e-07
1.25613e-07
-9.45774e-08
-3.07065e-07
1.3321e-07
-4.20475e-07
-2.47157e-07
1.3381e-07
-5.5741e-07
-1.32843e-07
1.33654e-07
-7.52245e-07
1.33066e-07
-8.20417e-07
-3.15998e-07
2.29042e-07
-2.9366e-08
-3.05359e-07
2.43014e-07
-3.47912e-07
-2.48801e-07
2.4487e-07
-4.83561e-07
-1.33439e-07
2.49011e-07
-6.84918e-07
2.47384e-07
-7.52206e-07
-3.04353e-07
2.74299e-07
1.41786e-07
-2.95558e-07
2.91749e-07
-1.585e-07
-2.44647e-07
2.95741e-07
-2.87219e-07
-1.33582e-07
3.05527e-07
-4.83455e-07
3.07259e-07
-5.57238e-07
-2.98132e-07
2.79189e-07
2.56906e-07
-2.91578e-07
2.98258e-07
-3.16159e-08
-2.42801e-07
3.04492e-07
-1.58436e-07
-1.32984e-07
3.16127e-07
-3.47769e-07
3.19739e-07
-4.20244e-07
-2.79059e-07
5.14729e-07
-2.74119e-07
2.56989e-07
-2.28823e-07
1.41958e-07
-1.2538e-07
-2.91251e-08
-9.42146e-08
-4.80836e-07
1.86864e-07
-1.51359e-07
-4.56008e-07
1.9944e-07
-6.44539e-07
-3.61758e-07
1.94622e-07
-8.4609e-07
-1.95853e-07
1.94838e-07
-1.11281e-06
1.96147e-07
-1.2124e-06
-4.75677e-07
3.42196e-07
-5.3218e-08
-4.54352e-07
3.63899e-07
-5.33696e-07
-3.65749e-07
3.59628e-07
-7.37171e-07
-1.94561e-07
3.66032e-07
-1.0273e-06
3.6207e-07
-1.11282e-06
-4.58169e-07
4.17896e-07
1.96417e-07
-4.41458e-07
4.41094e-07
-2.52408e-07
-3.59326e-07
4.41708e-07
-4.51431e-07
-1.94334e-07
4.5458e-07
-7.36995e-07
4.5628e-07
-8.45905e-07
-4.5349e-07
4.38331e-07
3.72865e-07
-4.40866e-07
4.53672e-07
-5.68196e-08
-3.63616e-07
4.58377e-07
-2.52356e-07
-1.99163e-07
4.7587e-07
-5.33513e-07
4.81076e-07
-6.44313e-07
-4.38143e-07
7.90487e-07
-4.1765e-07
3.72993e-07
-3.41898e-07
1.96647e-07
-1.86564e-07
-5.28775e-08
-1.50901e-07
-7.23894e-07
2.79586e-07
-2.42916e-07
-6.85858e-07
2.94425e-07
-9.76733e-07
-5.63493e-07
2.92322e-07
-1.26053e-06
-3.34353e-07
3.16788e-07
-1.6585e-06
3.34738e-07
-1.88143e-06
-7.1752e-07
5.1017e-07
-9.1214e-08
-6.86288e-07
5.40288e-07
-8.1079e-07
-5.43293e-07
5.33746e-07
-1.12159e-06
-3.1643e-07
5.43644e-07
-1.48101e-06
5.63881e-07
-1.65856e-06
-6.91392e-07
6.27774e-07
2.72595e-07
-6.70348e-07
6.67609e-07
-4.00773e-07
-5.33355e-07
6.70683e-07
-7.25361e-07
-2.9197e-07
6.8658e-07
-1.12132e-06
6.86239e-07
-1.26037e-06
-6.87116e-07
6.75026e-07
5.36106e-07
-6.67321e-07
6.87377e-07
-9.63833e-08
-5.39929e-07
6.91684e-07
-4.00749e-07
-2.94075e-07
7.17775e-07
-8.10561e-07
7.24219e-07
-9.76492e-07
-6.74756e-07
1.27769e-06
-6.27476e-07
5.36346e-07
-5.09796e-07
2.72893e-07
-2.79223e-07
-9.07421e-08
-2.42343e-07
-1.08427e-06
4.21639e-07
-4.08557e-07
-1.12213e-06
4.44247e-07
-1.38277e-06
-9.65712e-07
4.87003e-07
-1.90361e-06
-5.65512e-07
5.38099e-07
-2.59648e-06
5.65983e-07
-3.01289e-06
-1.07832e-06
7.63701e-07
-1.56925e-07
-1.07029e-06
8.06189e-07
-1.18076e-06
-9.19353e-07
8.24964e-07
-1.61048e-06
-5.37696e-07
9.19818e-07
-2.24439e-06
9.66304e-07
-2.59679e-06
-1.04162e-06
9.52499e-07
3.74647e-07
-1.01588e-06
1.0145e-06
-6.34824e-07
-8.24414e-07
1.01635e-06
-1.10821e-06
-4.86522e-07
1.07066e-06
-1.61004e-06
1.12262e-06
-1.9034e-06
-1.04067e-06
9.60017e-07
8.55457e-07
-1.01412e-06
1.04107e-06
-1.49501e-07
-8.05719e-07
1.04207e-06
-6.34868e-07
-4.4382e-07
1.0787e-06
-1.1805e-06
1.08479e-06
-1.38263e-06
-9.59621e-07
1.94068e-06
-9.52122e-07
8.5592e-07
-7.63194e-07
3.74998e-07
-4.21185e-07
-1.56254e-07
-4.07856e-07
-1.7371e-06
6.57574e-07
-6.12608e-07
-1.85164e-06
7.37194e-07
-2.005e-06
-1.59448e-06
8.06719e-07
-2.96708e-06
-9.55886e-07
8.93822e-07
-4.12853e-06
9.56456e-07
-4.9252e-06
-1.68112e-06
1.16181e-06
-2.12582e-07
-1.7644e-06
1.25475e-06
-1.61504e-06
-1.50653e-06
1.37017e-06
-2.4318e-06
-8.93335e-07
1.50706e-06
-3.47081e-06
1.59516e-06
-4.12905e-06
-1.59826e-06
1.40684e-06
5.91743e-07
-1.5987e-06
1.54498e-06
-9.24603e-07
-1.36952e-06
1.59931e-06
-1.56653e-06
-8.06156e-07
1.76485e-06
-2.4312e-06
1.85226e-06
-2.96685e-06
-1.56572e-06
1.33895e-06
1.42884e-06
-1.54449e-06
1.56617e-06
-1.91928e-07
-1.25423e-06
1.5988e-06
-9.24615e-07
-7.3672e-07
1.68157e-06
-1.61472e-06
1.73773e-06
-2.00496e-06
-1.33852e-06
2.808e-06
-1.40637e-06
1.42943e-06
-1.16127e-06
5.92188e-07
-6.57113e-07
-2.11695e-07
-6.11849e-07
-2.75261e-06
9.89678e-07
-8.12394e-07
-2.99164e-06
1.15615e-06
-2.92156e-06
-2.60863e-06
1.30639e-06
-4.65596e-06
-1.62231e-06
1.47529e-06
-6.58965e-06
1.62296e-06
-8.17042e-06
-2.6175e-06
1.74786e-06
-2.11765e-07
-2.80147e-06
1.95547e-06
-2.23039e-06
-2.41481e-06
2.16683e-06
-3.67891e-06
-1.4749e-06
2.41549e-06
-5.35091e-06
2.60971e-06
-6.59099e-06
-2.43501e-06
1.96539e-06
1.1164e-06
-2.5242e-06
2.30165e-06
-1.18158e-06
-2.16584e-06
2.52508e-06
-2.28314e-06
-1.30574e-06
2.802e-06
-3.67782e-06
2.99265e-06
-4.65577e-06
-2.27288e-06
1.8823e-06
2.23917e-06
-2.30106e-06
2.27349e-06
-1.35592e-07
-1.95475e-06
2.43593e-06
-1.18178e-06
-1.15566e-06
2.61821e-06
-2.23001e-06
2.75376e-06
-2.92191e-06
-1.88161e-06
3.97472e-06
-1.96466e-06
2.23986e-06
-1.74703e-06
1.11695e-06
-9.89079e-07
-2.10567e-07
-8.11594e-07
-4.3831e-06
1.512e-06
-9.6595e-07
-4.88646e-06
1.82069e-06
-4.23827e-06
-4.34096e-06
2.14479e-06
-7.34566e-06
-2.81085e-06
2.4736e-06
-1.05929e-05
2.81161e-06
-1.37927e-05
-4.10878e-06
2.55184e-06
1.63068e-08
-4.48545e-06
3.00958e-06
-3.04261e-06
-3.92144e-06
3.44648e-06
-5.54461e-06
-2.47299e-06
3.92204e-06
-8.24779e-06
4.34181e-06
-1.05944e-05
-3.72888e-06
2.84952e-06
1.99597e-06
-3.97468e-06
3.50353e-06
-1.42973e-06
-3.44564e-06
3.97555e-06
-3.34125e-06
-2.14411e-06
4.48603e-06
-5.54334e-06
4.88747e-06
-7.3457e-06
-3.33558e-06
2.67546e-06
3.46785e-06
-3.50293e-06
3.3362e-06
1.99087e-07
-3.00889e-06
3.72969e-06
-1.42996e-06
-1.82012e-06
4.10936e-06
-3.04211e-06
4.38411e-06
-4.23876e-06
-2.6747e-06
5.56433e-06
-2.84884e-06
3.46865e-06
-2.55104e-06
1.99643e-06
-1.51151e-06
1.77732e-08
-9.65409e-07
-6.88147e-06
2.23563e-06
-9.0497e-07
-7.98412e-06
2.84106e-06
-5.97578e-06
-7.34657e-06
3.54213e-06
-1.15246e-05
-5.07314e-06
4.23972e-06
-1.71053e-05
5.07405e-06
-2.39398e-05
-6.28627e-06
3.55485e-06
7.73989e-07
-7.09236e-06
4.52336e-06
-3.91882e-06
-6.36639e-06
5.43901e-06
-8.16746e-06
-4.2398e-06
6.36711e-06
-1.25018e-05
7.34874e-06
-1.71092e-05
-5.5435e-06
4.00091e-06
3.36039e-06
-6.13616e-06
5.21587e-06
-1.52958e-06
-5.43719e-06
6.13776e-06
-4.73896e-06
-3.54123e-06
7.09291e-06
-8.16511e-06
7.9862e-06
-1.15247e-05
-4.66443e-06
3.67184e-06
5.23758e-06
-5.21514e-06
4.66543e-06
1.30023e-06
-4.5223e-06
5.54527e-06
-1.53032e-06
-2.84067e-06
6.2876e-06
-3.91843e-06
6.88404e-06
-5.97743e-06
-3.67045e-06
7.6302e-06
-3.99945e-06
5.2382e-06
-3.55287e-06
3.36032e-06
-2.23486e-06
7.76388e-07
-9.04707e-07
-1.09423e-05
3.39887e-06
-3.88002e-07
-1.32265e-05
4.48072e-06
-8.17156e-06
-1.2677e-05
5.94643e-06
-1.80196e-05
-9.25242e-06
7.32436e-06
-2.78541e-05
9.253e-06
-4.24446e-05
-9.82355e-06
5.09652e-06
2.51601e-06
-1.14037e-05
6.90465e-06
-4.76264e-06
-1.05442e-05
8.74196e-06
-1.18224e-05
-7.32339e-06
1.05446e-05
-1.89428e-05
1.2677e-05
-2.78564e-05
-8.37937e-06
5.73442e-06
5.5826e-06
-9.59393e-06
7.8397e-06
-1.25007e-06
-8.74179e-06
9.59481e-06
-6.44395e-06
-5.94601e-06
1.14043e-05
-1.18206e-05
1.32275e-05
-1.80209e-05
-6.80105e-06
5.15021e-06
7.95613e-06
-7.83899e-06
6.80177e-06
3.3761e-06
-6.90419e-06
8.38004e-06
-1.25035e-06
-4.47998e-06
9.82353e-06
-4.76189e-06
1.09429e-05
-8.17252e-06
-5.14934e-06
1.05751e-05
-5.73392e-06
7.95693e-06
-5.0963e-06
5.58238e-06
-3.39859e-06
2.51768e-06
-3.88767e-07
-1.72629e-05
4.77212e-06
1.55589e-06
-2.21837e-05
7.07884e-06
-1.0328e-05
-2.29286e-05
1.02685e-05
-2.75421e-05
-1.8518e-05
1.33967e-05
-4.56603e-05
1.852e-05
-7.94812e-05
-1.45893e-05
7.12956e-06
5.58015e-06
-1.80098e-05
1.02904e-05
-4.55372e-06
-1.76257e-05
1.4047e-05
-1.59851e-05
-1.33988e-05
1.76253e-05
-2.73983e-05
2.29335e-05
-4.56692e-05
-1.20932e-05
7.94204e-06
9.03042e-06
-1.47081e-05
1.12312e-05
4.24052e-07
-1.40432e-05
1.47114e-05
-7.77319e-06
-1.02663e-05
1.80094e-05
-1.59817e-05
2.21887e-05
-2.75427e-05
-9.36948e-06
7.15497e-06
1.17446e-05
-1.12306e-05
9.37069e-06
7.09769e-06
-1.02892e-05
1.20969e-05
4.22766e-07
-7.07875e-06
1.45903e-05
-4.55319e-06
1.72682e-05
-1.03309e-05
-7.15264e-06
1.48777e-05
-7.93937e-06
1.17441e-05
-7.12635e-06
9.02906e-06
-4.76963e-06
5.58015e-06
1.55446e-06
-2.72167e-05
7.01864e-06
5.77528e-06
-3.70647e-05
1.11559e-05
-1.1635e-05
-4.15786e-05
1.74721e-05
-4.04989e-05
-3.63137e-05
2.3861e-05
-7.47879e-05
3.63106e-05
-0.000152103
-2.2153e-05
1.03611e-05
1.07499e-05
-2.87751e-05
1.59808e-05
-2.75641e-06
-2.99124e-05
2.29076e-05
-2.02832e-05
-2.38595e-05
2.99131e-05
-3.95033e-05
4.1575e-05
-7.4791e-05
-1.7509e-05
1.14651e-05
1.43182e-05
-2.29359e-05
1.63309e-05
5.5008e-06
-2.29111e-05
2.29352e-05
-7.82559e-06
-1.7475e-05
2.87764e-05
-2.02811e-05
3.70638e-05
-4.05045e-05
-1.3511e-05
9.89698e-06
1.78326e-05
-1.633e-05
1.35115e-05
1.27361e-05
-1.59806e-05
1.75082e-05
5.50035e-06
-1.11548e-05
2.21526e-05
-2.75515e-06
2.72145e-05
-1.16347e-05
-9.89701e-06
2.13574e-05
-1.14659e-05
1.78328e-05
-1.03631e-05
1.43177e-05
-7.02146e-06
1.07515e-05
5.77177e-06
-4.1515e-05
1.03565e-05
1.3939e-05
-6.29392e-05
1.78679e-05
-8.07615e-06
-8.1226e-05
3.10378e-05
-5.32491e-05
-7.9614e-05
4.63871e-05
-0.000122786
7.96195e-05
-0.000311325
-3.08543e-05
1.44545e-05
1.93549e-05
-4.43562e-05
2.23094e-05
6.30402e-06
-5.091e-05
3.64394e-05
-1.9131e-05
-4.6397e-05
5.09045e-05
-4.85336e-05
8.12377e-05
-0.000122804
-2.46125e-05
1.51168e-05
2.32633e-05
-3.3705e-05
2.22982e-05
1.46045e-05
-3.64304e-05
3.37134e-05
-2.37423e-06
-3.10295e-05
4.43539e-05
-1.91315e-05
6.29528e-05
-5.32499e-05
-1.78593e-05
1.25405e-05
2.69311e-05
-2.22972e-05
1.78604e-05
2.16119e-05
-2.23094e-05
2.46187e-05
1.46072e-05
-1.78699e-05
3.08533e-05
6.30597e-06
4.15251e-05
-8.07596e-06
-1.25368e-05
2.99421e-05
-1.51119e-05
2.69281e-05
-1.44489e-05
2.32606e-05
-1.03506e-05
1.93496e-05
1.39332e-05
-6.36066e-05
1.47523e-05
2.90971e-05
-0.000106029
2.61431e-05
8.20432e-06
-0.000160022
5.15291e-05
-5.07819e-05
-0.000180487
8.40695e-05
-0.000186395
0.000180469
-0.000159686
-0.000195815
-0.000157097
-0.000159671
-4.60075e-05
1.9518e-05
3.44254e-05
-6.98931e-05
3.28051e-05
2.35277e-05
-8.85822e-05
5.85122e-05
-7.42506e-06
-8.40729e-05
8.85857e-05
-5.75591e-05
0.000160015
-0.000186416
-3.44848e-05
1.9596e-05
3.73382e-05
-4.88582e-05
3.1229e-05
3.05539e-05
-5.85255e-05
4.88532e-05
1.69521e-05
-5.15469e-05
6.98952e-05
-7.41955e-06
0.000106025
-5.08015e-05
-2.37291e-05
1.56899e-05
3.98687e-05
-3.12274e-05
2.37292e-05
3.66101e-05
-3.28025e-05
3.44798e-05
3.05557e-05
-2.61386e-05
4.60059e-05
2.35314e-05
6.36008e-05
8.21366e-06
-1.56925e-05
4.11484e-05
-1.96001e-05
3.98685e-05
-1.95254e-05
3.73397e-05
-1.47626e-05
3.44279e-05
2.90932e-05
-8.95902e-05
1.85408e-05
5.73308e-05
-0.000171207
3.64868e-05
5.33374e-05
-0.000345281
8.36555e-05
3.9635e-05
-8.79572e-05
0.000168745
-4.14066e-05
-0.000123012
-2.55612e-05
-7.1668e-05
-9.80591e-05
-0.000140397
-0.000112369
-6.9247e-05
7.11942e-05
-0.000249601
-5.68148e-05
2.2684e-05
5.70786e-05
-9.17142e-05
4.10361e-05
5.38778e-05
-0.000146234
8.23978e-05
4.83522e-05
-0.0001688
0.000146214
-1.24621e-05
0.000345281
-7.17529e-05
-0.000123123
-2.54943e-05
-4.12878e-05
-9.80631e-05
-8.7954e-05
-0.000112382
-0.000140405
-4.10698e-05
2.16187e-05
5.66303e-05
-6.24151e-05
3.59627e-05
5.69726e-05
-8.23816e-05
6.24269e-05
5.68894e-05
-8.36246e-05
9.17093e-05
4.83284e-05
0.000171234
3.96143e-05
-2.61444e-05
1.66458e-05
5.53285e-05
-3.59609e-05
2.61441e-05
5.62452e-05
-4.1038e-05
4.10769e-05
5.69828e-05
-3.64934e-05
5.68097e-05
5.38863e-05
8.96034e-05
5.33557e-05
-1.66427e-05
5.35934e-05
-2.16132e-05
5.53251e-05
-2.26757e-05
5.66292e-05
-1.85263e-05
5.70688e-05
5.73267e-05
-0.000117595
2.08494e-05
0.00010017
-0.000246301
4.45325e-05
0.000137514
-0.000138444
0.00011386
0.000243436
-0.000108993
-0.000185873
-0.000130651
-0.000235861
4.72664e-05
8.69551e-06
0.00037119
0.000203294
-0.000174587
-9.65614e-05
-8.08556e-05
-0.000212091
0.000340691
-9.22186e-05
-7.91106e-05
-8.53208e-05
-9.4568e-05
-7.40396e-05
2.51209e-05
8.89089e-05
-0.000138928
5.15839e-05
0.000111715
-0.000253498
0.000113384
0.000163397
-0.000110567
0.000253483
7.3124e-05
-6.43076e-05
-0.000110583
-7.78952e-05
-0.00016054
-6.43639e-05
-0.000160589
-7.78228e-05
9.75545e-05
6.34131e-05
7.31345e-05
-0.000228731
-9.31887e-05
0.000168152
-2.85526e-05
-4.75509e-05
2.26167e-05
8.05202e-05
-7.85161e-05
4.22314e-05
9.72903e-05
-0.000113417
7.85153e-05
0.000126659
-0.000113927
0.000138933
0.000163388
0.000246277
0.000243461
-0.000108927
-0.000138381
-0.000130729
-0.000186008
-2.88949e-05
1.67819e-05
7.30518e-05
-4.22279e-05
2.88984e-05
8.29112e-05
-5.15725e-05
4.75478e-05
9.72949e-05
-4.45121e-05
7.40393e-05
0.000111719
0.000117604
0.000137522
-1.67823e-05
6.63041e-05
-2.26191e-05
7.30535e-05
-2.51315e-05
8.05305e-05
-2.08719e-05
8.89154e-05
0.000100191
-5.35458e-05
1.08694e-05
0.000113765
-9.36984e-05
2.10828e-05
0.000156593
-0.000115756
4.2439e-05
0.000254293
-8.08195e-05
3.32982e-05
1.62785e-05
-0.000135788
3.79949e-05
0.00022418
-4.03688e-05
-8.33413e-05
-7.79495e-05
-4.04903e-05
0.000129946
0.000219944
-0.000129272
8.6804e-05
-0.000307419
-3.89842e-05
1.3879e-05
0.000101859
-6.46064e-05
2.7348e-05
0.000131072
-5.48664e-05
4.80943e-05
0.000183997
-3.54293e-05
3.59392e-06
-4.15936e-06
-5.07997e-05
-8.46348e-05
4.68848e-05
0.000106807
-4.18267e-05
-8.30371e-05
4.60726e-05
-5.81989e-05
6.33117e-05
7.36785e-05
-2.65171e-05
1.33821e-05
9.16309e-05
-3.93276e-05
2.44085e-05
0.00011304
-4.80956e-05
3.93181e-05
0.000144204
-4.24245e-05
6.45898e-05
0.000184016
-3.54345e-05
-5.48699e-05
-4.17427e-06
3.59008e-06
9.36988e-05
0.000254341
-8.08179e-05
-0.000115739
1.62579e-05
3.32782e-05
-1.78362e-05
1.04382e-05
8.2555e-05
-2.43988e-05
1.78387e-05
9.60435e-05
-2.73384e-05
2.65178e-05
0.000113035
-2.10845e-05
3.89852e-05
0.00013107
5.35549e-05
0.000156586
-1.04383e-05
7.36778e-05
-1.33839e-05
8.25667e-05
-1.38771e-05
9.16472e-05
-1.08585e-05
0.000101883
0.000113802
2.25852e-05
-2.67587e-06
9.36603e-05
7.77322e-05
-6.61813e-06
0.000108069
9.47659e-05
-4.16602e-05
8.26109e-05
7.55997e-05
7.33724e-05
4.73411e-05
-0.000152432
-3.88485e-05
7.52802e-06
6.58542e-05
7.32249e-05
6.75887e-05
7.18513e-05
0.000223505
-0.000237419
0.000198709
-7.10273e-05
-0.000113769
4.70312e-06
-9.70186e-07
9.17715e-05
2.42589e-05
-2.61647e-06
0.000107515
8.88803e-05
-2.96932e-05
0.000107408
0.000106139
-8.88758e-05
4.8329e-05
-8.35735e-05
-0.000116757
-6.75908e-05
-8.35727e-05
4.30267e-05
0.000106136
2.61575e-05
6.51261e-05
4.30254e-05
6.51418e-05
2.61678e-05
-5.15968e-05
7.91582e-05
-0.000182478
-2.99415e-05
-5.67255e-05
-4.97912e-05
-5.26674e-05
0.000138979
7.20666e-05
0.000115387
2.09589e-05
4.08388e-05
2.07416e-05
4.12095e-05
2.73481e-07
1.2794e-06
8.63824e-05
9.97933e-06
1.5905e-06
9.91274e-05
2.97041e-05
-9.96765e-06
0.000104753
4.16576e-05
-2.42533e-05
0.00010744
-7.77141e-05
8.26363e-05
7.56129e-05
9.47685e-05
4.73245e-05
7.33716e-05
-3.36799e-06
2.08003e-06
8.15774e-05
-1.58438e-06
3.37684e-06
9.24736e-05
2.62009e-06
-2.57203e-07
9.91199e-05
6.623e-06
-4.69341e-06
0.000107507
-2.25704e-05
0.000108067
-2.06851e-06
7.40148e-05
-1.26861e-06
8.15913e-05
9.82487e-07
8.64011e-05
2.67689e-06
9.18044e-05
9.36937e-05
-1.28291e-05
3.42019e-07
0.000102191
-3.92041e-05
2.58099e-06
0.000131869
-1.00984e-05
1.80948e-05
0.000167345
-7.20919e-06
-7.65582e-05
-4.8165e-05
6.08931e-05
-9.66911e-06
2.31933e-06
-6.3641e-05
0.000135998
1.29476e-05
-1.37157e-05
9.05065e-06
0.000174534
0.000127307
0.000165131
-0.000168273
-0.000136593
-0.00012661
-0.000179772
-5.94772e-06
-7.73661e-07
9.53672e-05
-2.12128e-05
3.63922e-06
0.000121722
-5.42504e-05
1.40071e-05
0.000144534
-8.37353e-06
5.42714e-05
4.0529e-05
-4.75201e-06
-8.37482e-06
-2.59486e-05
-7.14211e-05
-4.75378e-06
-7.14556e-05
-2.59266e-05
4.24968e-05
3.72783e-05
4.05093e-05
0.000117087
-6.92702e-06
-5.43127e-06
5.35739e-06
-0.00011846
-5.747e-07
-1.89202e-06
8.78712e-05
-4.37992e-06
6.96469e-07
0.000105875
-1.3986e-05
4.39876e-06
0.000123968
-1.80759e-05
2.12236e-05
0.000144578
3.92178e-05
0.000167397
-7.19328e-06
-1.00922e-05
-4.81748e-05
-7.66035e-05
5.59901e-07
-1.82678e-06
8.1048e-05
-6.85716e-07
-5.44445e-07
9.49601e-05
-3.62933e-06
5.97937e-07
0.000105864
-2.57506e-06
5.9684e-06
0.000121708
1.28588e-05
0.000131851