/*--------------------------------*- C++ -*----------------------------------*\
| =========                 |                                                 |
| \\      /  F ield         | OpenFOAM: The Open Source CFD Toolbox           |
|  \\    /   O peration     | Version:  5.x                                   |
|   \\  /    A nd           | Web:      www.OpenFOAM.org                      |
|    \\/     M anipulation  |                                                 |
\*---------------------------------------------------------------------------*/
FoamFile
{
    version     2.0;
    format      ascii;
    class       volScalarField;
    location    "0.12";
    object      p;
}
// * * * * * * * * * * * * * * * * * * * * * * * * * * * * * * * * * * * * * //

dimensions      [0 2 -2 0 0 0 0];

internalField   nonuniform List<scalar> 
160
(
-2.22537e-07
-1.50524e-07
-1.50937e-07
-1.59107e-07
-5.39955e-07
-3.79466e-07
-4.00882e-07
-4.13633e-07
-7.98234e-07
-8.54813e-07
-7.35083e-07
-6.7766e-07
-6.49307e-07
-3.13518e-08
-3.01506e-07
-7.66158e-07
-3.13792e-07
-1.39705e-06
-9.51992e-07
-1.20321e-06
5.97233e-08
-2.12341e-06
-1.74619e-06
-1.66082e-06
-1.2015e-06
-8.77986e-07
-9.8862e-07
-1.29727e-06
-2.24016e-06
-2.22047e-06
-2.28193e-06
-2.00368e-06
-2.64696e-06
-2.84583e-06
-2.77745e-06
-2.57199e-06
-3.20645e-06
-3.31499e-06
-3.24787e-06
-3.00862e-06
-1.50524e-07
5.12992e-07
2.66042e-07
1.57296e-07
-3.79466e-07
2.23263e-06
1.10866e-06
5.46451e-07
-8.54813e-07
5.11967e-06
2.46225e-06
1.07362e-06
-3.13518e-08
2.3041e-05
1.14454e-05
2.42359e-06
-1.39705e-06
4.75575e-06
1.25926e-06
5.53126e-07
-2.12341e-06
-2.5909e-05
-1.21884e-05
-3.35187e-06
-8.77986e-07
-9.0417e-06
-6.17729e-06
-3.19122e-06
-2.22047e-06
-4.02492e-06
-3.61426e-06
-3.34276e-06
-2.84583e-06
-4.78157e-06
-3.76185e-06
-3.73782e-06
-3.31499e-06
-4.817e-06
-4.06569e-06
-4.03259e-06
-1.50937e-07
2.66042e-07
1.60989e-07
8.4388e-08
-4.00882e-07
1.10866e-06
6.7886e-07
2.66445e-07
-7.35083e-07
2.46225e-06
1.45945e-06
4.47785e-07
-3.01506e-07
1.14454e-05
7.42741e-06
1.16061e-06
-9.51992e-07
1.25926e-06
4.35759e-07
-3.67616e-07
-1.74619e-06
-1.21884e-05
-8.48575e-06
-2.88609e-06
-9.8862e-07
-6.17729e-06
-4.94896e-06
-2.24914e-06
-2.28193e-06
-3.61426e-06
-3.34847e-06
-2.98711e-06
-2.77745e-06
-3.76185e-06
-3.35259e-06
-3.26258e-06
-3.24787e-06
-4.06569e-06
-3.76117e-06
-3.72236e-06
-1.59107e-07
1.57296e-07
8.4388e-08
9.91375e-08
-4.13633e-07
5.46451e-07
2.66445e-07
2.34614e-07
-6.7766e-07
1.07362e-06
4.47785e-07
3.44502e-07
-7.66158e-07
2.42359e-06
1.16061e-06
5.94522e-07
-1.20321e-06
5.53126e-07
-3.67616e-07
-1.54963e-07
-1.66082e-06
-3.35187e-06
-2.88609e-06
-1.3872e-06
-1.29727e-06
-3.19122e-06
-2.24914e-06
-2.34625e-06
-2.00368e-06
-3.34276e-06
-2.98711e-06
-3.10077e-06
-2.57199e-06
-3.73782e-06
-3.26258e-06
-3.54979e-06
-3.00862e-06
-4.03259e-06
-3.72236e-06
-3.88224e-06
)
;

boundaryField
{
    inlet
    {
        type            zeroGradient;
    }
    outlet
    {
        type            totalPressure;
        rho             rho;
        psi             none;
        gamma           1;
        p0              uniform 0;
        value           nonuniform List<scalar> 
16
(
-7.73971e-12
-5.46074e-12
-3.78111e-12
-4.14409e-12
-5.46074e-12
0
0
0
-3.78111e-12
0
0
0
-4.14409e-12
0
0
0
)
;
    }
    walls
    {
        type            zeroGradient;
    }
    procBoundary0to1
    {
        type            processor;
        value           nonuniform List<scalar> 
16
(
-3.50537e-06
-3.58864e-06
-3.57864e-06
-3.3475e-06
-3.58864e-06
-4.42952e-06
-4.05995e-06
-4.07923e-06
-3.57864e-06
-4.05995e-06
-3.95062e-06
-3.92266e-06
-3.3475e-06
-4.07923e-06
-3.92266e-06
-4.00252e-06
)
;
    }
}


// ************************************************************************* //
