/*--------------------------------*- C++ -*----------------------------------*\
| =========                 |                                                 |
| \\      /  F ield         | OpenFOAM: The Open Source CFD Toolbox           |
|  \\    /   O peration     | Version:  5.x                                   |
|   \\  /    A nd           | Web:      www.OpenFOAM.org                      |
|    \\/     M anipulation  |                                                 |
\*---------------------------------------------------------------------------*/
FoamFile
{
    version     2.0;
    format      ascii;
    class       surfaceScalarField;
    location    "0.12";
    object      phi;
}
// * * * * * * * * * * * * * * * * * * * * * * * * * * * * * * * * * * * * * //

dimensions      [0 3 -1 0 0 0 0];

internalField   nonuniform List<scalar> 
384
(
-4.24854e-12
2.56659e-11
-4.24854e-12
-1.18278e-12
1.03958e-11
-1.87086e-11
8.13273e-13
1.22924e-11
-1.40245e-11
1.74043e-11
-1.15896e-11
-1.10069e-11
2.88098e-11
-1.10069e-11
-2.58411e-12
1.01358e-11
-7.22841e-11
2.60756e-12
1.44428e-11
-5.09046e-11
2.37622e-11
-3.55064e-11
-1.99174e-11
3.06509e-11
-1.99174e-11
-4.06831e-12
7.89313e-12
-1.82525e-10
9.26215e-12
1.38547e-11
-1.18943e-10
3.44166e-11
-6.89297e-11
-3.58594e-11
3.59079e-11
-3.58594e-11
-1.51121e-14
2.22862e-11
-4.94539e-10
2.30056e-11
3.12424e-11
-2.98363e-10
5.3831e-11
-1.15838e-10
-2.307e-11
1.83671e-11
-2.307e-11
-5.36618e-13
-6.75719e-11
-6.52744e-10
3.01654e-11
-1.30208e-11
-3.73592e-10
5.80025e-11
-1.44089e-10
1.78111e-11
1.29502e-11
1.78111e-11
-5.53484e-13
-2.60312e-10
-2.41497e-10
2.92165e-12
-1.10137e-10
-1.65513e-10
2.85966e-11
-9.43879e-11
-5.37903e-12
1.1861e-11
-5.37903e-12
2.19363e-11
-2.81734e-10
5.86029e-11
3.66179e-11
-1.33391e-10
-1.25321e-11
2.25059e-11
-2.36349e-11
-1.29019e-11
9.46867e-12
-1.29019e-11
1.44509e-11
-2.76884e-10
1.90789e-10
2.54052e-11
-1.34973e-10
8.63036e-11
2.75136e-11
2.99907e-11
9.16268e-13
2.17826e-11
9.16268e-13
3.60576e-12
-2.05103e-10
3.20766e-10
2.03178e-11
-9.3844e-11
1.32422e-10
3.12469e-11
8.11189e-11
4.46294e-11
4.46294e-11
-1.97039e-13
4.75766e-10
-3.18278e-11
3.07983e-10
1.34426e-10
-1.87086e-11
1.03958e-11
-1.18278e-12
-1.50406e-12
-1.08622e-10
-1.50406e-12
4.82074e-12
-6.44935e-11
-2.60099e-12
-3.22675e-11
-3.48691e-12
-7.22841e-11
1.01358e-11
-2.58411e-12
-1.10882e-12
-2.50972e-10
-1.10882e-12
2.75035e-11
-1.38353e-10
-5.65747e-12
-4.63139e-11
-7.87733e-12
-1.82525e-10
7.89313e-12
-4.06831e-12
1.59337e-11
-6.4789e-10
1.59337e-11
9.29741e-11
-3.30345e-10
-3.9912e-12
-6.11311e-11
-1.07728e-11
-4.94539e-10
2.22862e-11
-1.51121e-14
1.10629e-10
-1.85823e-09
1.10629e-10
3.13584e-10
-8.54964e-10
2.33021e-11
-1.49859e-11
-1.02908e-11
-6.52744e-10
-6.75719e-11
-5.36618e-13
1.50262e-10
-3.46424e-09
1.50262e-10
4.57418e-10
-1.56913e-09
3.34208e-11
5.23683e-11
-7.54756e-12
-2.41497e-10
-2.60312e-10
-5.53484e-13
1.42282e-12
-3.95008e-09
1.42282e-12
2.11797e-10
-1.9374e-09
-7.61857e-12
5.27379e-11
-1.56471e-11
5.86029e-11
-2.81734e-10
2.19363e-11
-5.64192e-11
-3.72003e-09
-5.64192e-11
-4.26878e-11
-1.95167e-09
-1.19998e-11
6.19952e-12
-2.05068e-11
1.90789e-10
-2.76884e-10
1.44509e-11
-3.4309e-11
-3.26984e-09
-3.4309e-11
-1.13085e-10
-1.78046e-09
-6.12758e-12
-2.74705e-11
-2.03363e-12
3.20766e-10
-2.05103e-10
3.60576e-12
-7.67385e-11
-2.47483e-09
-7.67385e-11
-1.8316e-10
-1.49927e-09
-4.23418e-11
-7.29237e-11
1.51073e-12
4.75766e-10
-1.97039e-13
-8.05875e-11
-8.05875e-11
-3.38871e-10
-1.81311e-11
8.19627e-12
-1.40245e-11
1.22924e-11
8.13273e-13
-2.60099e-12
-6.44935e-11
4.82074e-12
2.66111e-12
-4.57487e-11
2.66111e-12
-2.19179e-11
-5.70707e-13
-5.09046e-11
1.44428e-11
2.60756e-12
-5.65747e-12
-1.38353e-10
2.75035e-11
1.69841e-11
-9.10317e-11
1.69841e-11
-2.48767e-11
2.41331e-12
-1.18943e-10
1.38547e-11
9.26215e-12
-3.9912e-12
-3.30345e-10
9.29741e-11
5.81778e-11
-2.1537e-10
5.81778e-11
-2.31321e-11
1.06059e-11
-2.98363e-10
3.12424e-11
2.30056e-11
2.33021e-11
-8.54964e-10
3.13584e-10
1.94207e-10
-5.5718e-10
1.94207e-10
1.73743e-11
2.99459e-11
-3.73592e-10
-1.30208e-11
3.01654e-11
3.34208e-11
-1.56913e-09
4.57418e-10
2.75607e-10
-1.04155e-09
2.75607e-10
5.68585e-11
4.19053e-11
-1.65513e-10
-1.10137e-10
2.92165e-12
-7.61857e-12
-1.9374e-09
2.11797e-10
1.24461e-10
-1.30571e-09
1.24461e-10
3.54118e-11
1.8866e-11
-1.25321e-11
-1.33391e-10
3.66179e-11
-1.19998e-11
-1.95167e-09
-4.26878e-11
1.50599e-11
-1.35983e-09
1.50599e-11
3.04841e-12
-9.07361e-13
8.63036e-11
-1.34973e-10
2.54052e-11
-6.12758e-12
-1.78046e-09
-1.13085e-10
-4.22186e-11
-1.28765e-09
-4.22186e-11
-1.81855e-11
-5.57297e-12
1.32422e-10
-9.3844e-11
2.03178e-11
-4.23418e-11
-1.49927e-09
-1.8316e-10
-3.93108e-11
-1.29371e-09
-3.93108e-11
-7.04742e-11
-1.53531e-11
3.07983e-10
-3.18278e-11
-1.81311e-11
-3.38871e-10
-2.15803e-10
-2.15803e-10
-4.59693e-11
-1.15896e-11
1.74043e-11
-3.48691e-12
-3.22675e-11
-5.70707e-13
-2.19179e-11
-1.76419e-11
-3.55064e-11
2.37622e-11
-7.87733e-12
-4.63139e-11
2.41331e-12
-2.48767e-11
-1.31207e-11
-6.89297e-11
3.44166e-11
-1.07728e-11
-6.11311e-11
1.06059e-11
-2.31321e-11
-6.20905e-15
-1.15838e-10
5.3831e-11
-1.02908e-11
-1.49859e-11
2.99459e-11
1.73743e-11
3.28766e-11
-1.44089e-10
5.80025e-11
-7.54756e-12
5.23683e-11
4.19053e-11
5.68585e-11
7.64411e-11
-9.43879e-11
2.85966e-11
-1.56471e-11
5.27379e-11
1.8866e-11
3.54118e-11
1.05966e-10
-2.36349e-11
2.25059e-11
-2.05068e-11
6.19952e-12
-9.07361e-13
3.04841e-12
1.16281e-10
2.99907e-11
2.75136e-11
-2.03363e-12
-2.74705e-11
-5.57297e-12
-1.81855e-11
1.03989e-10
8.11189e-11
3.12469e-11
1.51073e-12
-7.29237e-11
-1.53531e-11
-7.04742e-11
6.59369e-11
1.34426e-10
8.19627e-12
-4.59693e-11
)
;

boundaryField
{
    inlet
    {
        type            calculated;
        value           nonuniform 0();
    }
    outlet
    {
        type            calculated;
        value           nonuniform List<scalar> 
16
(
-2.42122e-11
-1.10598e-11
-1.20454e-11
-1.50951e-11
-1.10598e-11
7.42126e-11
4.67451e-11
2.66403e-11
-1.20454e-11
4.67451e-11
3.52245e-11
2.0338e-11
-1.50951e-11
2.66403e-11
2.0338e-11
1.82725e-11
)
;
    }
    walls
    {
        type            calculated;
        value           nonuniform List<scalar> 
160
(
3.52168e-12
9.43492e-12
1.89969e-11
3.32309e-11
3.18404e-11
-1.51027e-11
5.92369e-12
1.4098e-11
-7.07325e-12
-4.89974e-11
1.63068e-11
6.41214e-11
1.68919e-10
4.44302e-10
7.20069e-10
4.52602e-10
-6.44966e-11
-2.22991e-10
-3.95237e-10
-5.41329e-10
1.17815e-11
4.35624e-11
1.062e-10
2.57954e-10
3.87153e-10
2.59154e-10
2.11051e-11
-9.56761e-11
-1.90263e-10
-3.28423e-10
9.50456e-12
2.99226e-11
6.04612e-11
1.04492e-10
1.46049e-10
1.18264e-10
3.69053e-11
-3.01283e-11
-8.97004e-11
-1.39708e-10
5.89085e-13
1.8336e-12
7.07615e-12
1.49374e-11
2.40339e-11
8.45113e-12
2.94383e-11
2.05351e-11
2.51659e-11
-2.16599e-11
2.34528e-12
1.39207e-11
4.96345e-11
1.61891e-10
2.53523e-10
1.32687e-10
7.22555e-13
-4.73905e-11
-5.8099e-11
-1.88795e-10
1.32482e-12
9.6522e-12
3.50544e-11
1.13464e-10
1.8667e-10
1.11395e-10
2.78238e-11
-1.74454e-11
2.98418e-11
-1.45072e-10
-8.85999e-13
1.52684e-13
4.04869e-12
1.35044e-11
2.01231e-11
4.10358e-12
-6.06493e-12
5.73262e-13
3.67275e-12
-2.37638e-11
3.52168e-12
9.43492e-12
1.89969e-11
3.32309e-11
3.18404e-11
-1.51027e-11
5.92369e-12
1.4098e-11
-7.07325e-12
-4.89974e-11
1.63068e-11
6.41214e-11
1.68919e-10
4.44302e-10
7.20069e-10
4.52602e-10
-6.44966e-11
-2.22991e-10
-3.95237e-10
-5.41329e-10
1.17815e-11
4.35624e-11
1.062e-10
2.57954e-10
3.87153e-10
2.59154e-10
2.11051e-11
-9.56761e-11
-1.90263e-10
-3.28423e-10
9.50456e-12
2.99226e-11
6.04612e-11
1.04492e-10
1.46049e-10
1.18264e-10
3.69053e-11
-3.01283e-11
-8.97004e-11
-1.39708e-10
5.89085e-13
1.8336e-12
7.07615e-12
1.49374e-11
2.40339e-11
8.45113e-12
2.94383e-11
2.05351e-11
2.51659e-11
-2.16599e-11
2.34528e-12
1.39207e-11
4.96345e-11
1.61891e-10
2.53523e-10
1.32687e-10
7.22555e-13
-4.73905e-11
-5.8099e-11
-1.88795e-10
1.32482e-12
9.6522e-12
3.50544e-11
1.13464e-10
1.8667e-10
1.11395e-10
2.78238e-11
-1.74454e-11
2.98418e-11
-1.45072e-10
-8.85999e-13
1.52684e-13
4.04869e-12
1.35044e-11
2.01231e-11
4.10358e-12
-6.06493e-12
5.73262e-13
3.67275e-12
-2.37638e-11
)
;
    }
    procBoundary0to1
    {
        type            processor;
        value           nonuniform List<scalar> 
16
(
3.05187e-11
-9.47132e-11
-4.17727e-11
2.63605e-11
-9.47132e-11
-1.36212e-09
-9.14877e-10
-9.67697e-11
-4.17727e-11
-9.14877e-10
-8.98367e-10
-8.70396e-11
2.63605e-11
-9.67697e-11
-8.70396e-11
2.1526e-11
)
;
    }
}


// ************************************************************************* //
