/*--------------------------------*- C++ -*----------------------------------*\
| =========                 |                                                 |
| \\      /  F ield         | OpenFOAM: The Open Source CFD Toolbox           |
|  \\    /   O peration     | Version:  5.x                                   |
|   \\  /    A nd           | Web:      www.OpenFOAM.org                      |
|    \\/     M anipulation  |                                                 |
\*---------------------------------------------------------------------------*/
FoamFile
{
    version     2.0;
    format      ascii;
    class       volVectorField;
    location    "0.12";
    object      U;
}
// * * * * * * * * * * * * * * * * * * * * * * * * * * * * * * * * * * * * * //

dimensions      [0 1 -1 0 0 0 0];

internalField   nonuniform List<vector> 
160
(
(-5.77712e-07 3.8487e-06 -5.77712e-07)
(-5.74641e-07 1.75529e-06 -2.74053e-06)
(1.27005e-07 1.91698e-06 -1.96764e-06)
(9.58695e-08 2.40262e-06 -1.58331e-06)
(-1.54128e-06 4.03806e-06 -1.54128e-06)
(-1.46595e-06 1.55514e-06 -1.07761e-05)
(4.7092e-07 1.86181e-06 -7.26855e-06)
(2.95894e-07 2.9809e-06 -4.9772e-06)
(-3.02833e-06 4.61243e-06 -3.02833e-06)
(-2.79842e-06 7.4712e-07 -2.82086e-05)
(1.54998e-06 2.00973e-06 -1.76244e-05)
(1.12084e-06 4.26398e-06 -1.00196e-05)
(-5.43896e-06 5.30384e-06 -5.43896e-06)
(-4.21379e-06 3.11434e-06 -7.56508e-05)
(4.0718e-06 3.53207e-06 -4.35958e-05)
(2.48174e-06 6.55329e-06 -1.73486e-05)
(-4.88061e-06 5.11763e-06 -4.88061e-06)
(-4.55276e-06 1.38225e-06 -0.000116428)
(4.82091e-06 4.42342e-06 -6.23818e-05)
(3.89502e-06 9.10856e-06 -2.37146e-05)
(2.84748e-06 1.46994e-06 2.84748e-06)
(6.2357e-07 -2.76774e-05 -6.77128e-05)
(-2.36661e-07 -9.74297e-06 -3.93996e-05)
(1.33532e-06 7.31133e-06 -1.85884e-05)
(-1.01167e-06 1.48801e-06 -1.01167e-06)
(-2.07622e-07 -4.9843e-05 1.19341e-05)
(6.1234e-06 -2.25459e-05 -2.35059e-06)
(4.77108e-06 3.17889e-06 -5.53084e-06)
(-2.25957e-06 1.53856e-06 -2.25957e-06)
(-1.07141e-06 -5.15589e-05 3.60355e-05)
(4.79952e-06 -2.64474e-05 1.55717e-05)
(3.23067e-06 2.86246e-06 5.08496e-06)
(1.17099e-06 1.13983e-06 1.17099e-06)
(-9.46792e-07 -4.47312e-05 6.36207e-05)
(1.942e-06 -2.09004e-05 3.06368e-05)
(3.98598e-06 4.85134e-06 1.45823e-05)
(7.86101e-06 4.55e-06 7.86101e-06)
(6.04706e-06 -2.64819e-05 8.69097e-05)
(-6.1094e-06 -1.2595e-05 5.27095e-05)
(-3.51283e-06 4.11903e-06 2.25554e-05)
(-2.74053e-06 1.75529e-06 -5.74641e-07)
(-1.9815e-06 -1.20116e-05 -1.9815e-06)
(1.18605e-06 -7.54083e-06 -1.68427e-06)
(3.96787e-07 -4.27722e-06 -1.4487e-06)
(-1.07761e-05 1.55514e-06 -1.46595e-06)
(-7.24026e-06 -2.48454e-05 -7.24026e-06)
(6.03405e-06 -1.44739e-05 -5.85638e-06)
(2.33851e-06 -5.81697e-06 -4.23128e-06)
(-2.82086e-05 7.4712e-07 -2.79842e-06)
(-1.74204e-05 -6.60006e-05 -1.74204e-05)
(1.94083e-05 -3.54577e-05 -1.30611e-05)
(8.21617e-06 -8.42812e-06 -7.85646e-06)
(-7.56508e-05 3.11434e-06 -4.21379e-06)
(-4.2352e-05 -0.000100591 -4.2352e-05)
(6.22807e-05 -4.90732e-05 -3.04133e-05)
(2.76867e-05 -7.71988e-06 -1.2558e-05)
(-0.000116428 1.38225e-06 -4.55276e-06)
(-6.18799e-05 -0.000480208 -6.18799e-05)
(9.83121e-05 -0.000230364 -4.32539e-05)
(4.07033e-05 1.87625e-06 -1.56308e-05)
(-6.77128e-05 -2.76774e-05 6.2357e-07)
(-4.09226e-05 -0.000587697 -4.09226e-05)
(4.97706e-05 -0.000294508 -2.93347e-05)
(1.94824e-05 1.01428e-05 -1.21607e-05)
(1.19341e-05 -4.9843e-05 -2.07622e-07)
(-8.19656e-07 -0.00056092 -8.19656e-07)
(-1.08585e-05 -0.000293005 -5.0671e-06)
(-4.74979e-07 5.12039e-06 -4.76316e-06)
(3.60355e-05 -5.15589e-05 -1.07141e-06)
(1.71809e-05 -0.000548205 1.71809e-05)
(-2.58217e-05 -0.000297669 8.11527e-06)
(-7.63618e-06 -3.84898e-06 2.296e-06)
(6.36207e-05 -4.47312e-05 -9.46792e-07)
(2.73754e-05 -0.000450206 2.73754e-05)
(-4.72907e-05 -0.000253867 7.40774e-06)
(-9.30059e-06 -6.78886e-06 7.49428e-06)
(8.69097e-05 -2.64819e-05 6.04706e-06)
(5.04284e-05 -0.000297794 5.04284e-05)
(-7.18483e-05 -0.000207531 3.75015e-05)
(-3.02138e-05 -1.9479e-05 1.54126e-05)
(-1.96764e-06 1.91698e-06 1.27005e-07)
(-1.68427e-06 -7.54083e-06 1.18605e-06)
(5.57827e-07 -5.67478e-06 5.57827e-07)
(2.27145e-07 -3.25672e-06 2.31952e-08)
(-7.26855e-06 1.86181e-06 4.7092e-07)
(-5.85638e-06 -1.44739e-05 6.03405e-06)
(3.222e-06 -9.94839e-06 3.222e-06)
(1.62592e-06 -3.6242e-06 8.79035e-07)
(-1.76244e-05 2.00973e-06 1.54998e-06)
(-1.30611e-05 -3.54577e-05 1.94083e-05)
(1.07701e-05 -2.31836e-05 1.07701e-05)
(5.8088e-06 -4.15401e-06 3.03109e-06)
(-4.35958e-05 3.53207e-06 4.0718e-06)
(-3.04133e-05 -4.90732e-05 6.22807e-05)
(3.35959e-05 -3.1569e-05 3.35959e-05)
(1.93937e-05 -1.41728e-06 7.43259e-06)
(-6.23818e-05 4.42342e-06 4.82091e-06)
(-4.32539e-05 -0.000230364 9.83121e-05)
(5.12615e-05 -0.000152538 5.12615e-05)
(3.00261e-05 5.76127e-06 1.18829e-05)
(-3.93996e-05 -9.74297e-06 -2.36661e-07)
(-2.93347e-05 -0.000294508 4.97706e-05)
(2.93224e-05 -0.000198792 2.93224e-05)
(1.67157e-05 8.1536e-06 7.52361e-06)
(-2.35059e-06 -2.25459e-05 6.1234e-06)
(-5.0671e-06 -0.000293005 -1.08585e-05)
(3.14805e-06 -0.000199771 3.14805e-06)
(3.91783e-06 3.20147e-06 4.2836e-07)
(1.55717e-05 -2.64474e-05 4.79952e-06)
(8.11527e-06 -0.000297669 -2.58217e-05)
(-9.32003e-06 -0.000213265 -9.32003e-06)
(-2.86273e-06 -2.76933e-06 -2.36056e-06)
(3.06368e-05 -2.09004e-05 1.942e-06)
(7.40774e-06 -0.000253867 -4.72907e-05)
(-1.86205e-05 -0.000185798 -1.86205e-05)
(4.75689e-06 -4.05851e-06 -6.53548e-06)
(5.27095e-05 -1.2595e-05 -6.1094e-06)
(3.75015e-05 -0.000207531 -7.18483e-05)
(-4.19676e-05 -0.000210424 -4.19676e-05)
(-2.32193e-05 -2.13472e-05 -1.18531e-05)
(-1.58331e-06 2.40262e-06 9.58695e-08)
(-1.4487e-06 -4.27722e-06 3.96787e-07)
(2.31952e-08 -3.25672e-06 2.27145e-07)
(-1.44677e-07 -2.91118e-06 -1.44677e-07)
(-4.9772e-06 2.9809e-06 2.95894e-07)
(-4.23128e-06 -5.81697e-06 2.33851e-06)
(8.79035e-07 -3.6242e-06 1.62592e-06)
(3.07153e-08 -2.39276e-06 3.07153e-08)
(-1.00196e-05 4.26398e-06 1.12084e-06)
(-7.85646e-06 -8.42812e-06 8.21617e-06)
(3.03109e-06 -4.15401e-06 5.8088e-06)
(6.68185e-07 -1.45274e-06 6.68185e-07)
(-1.73486e-05 6.55329e-06 2.48174e-06)
(-1.2558e-05 -7.71988e-06 2.76867e-05)
(7.43259e-06 -1.41728e-06 1.93937e-05)
(2.27249e-06 1.67576e-06 2.27249e-06)
(-2.37146e-05 9.10856e-06 3.89502e-06)
(-1.56308e-05 1.87625e-06 4.07033e-05)
(1.18829e-05 5.76127e-06 3.00261e-05)
(3.1777e-06 7.93651e-06 3.1777e-06)
(-1.85884e-05 7.31133e-06 1.33532e-06)
(-1.21607e-05 1.01428e-05 1.94824e-05)
(7.52361e-06 8.1536e-06 1.67157e-05)
(3.60586e-07 1.4295e-05 3.60586e-07)
(-5.53084e-06 3.17889e-06 4.77108e-06)
(-4.76316e-06 5.12039e-06 -4.74979e-07)
(4.2836e-07 3.20147e-06 3.91783e-06)
(-9.51213e-07 1.74903e-05 -9.51213e-07)
(5.08496e-06 2.86246e-06 3.23067e-06)
(2.296e-06 -3.84898e-06 -7.63618e-06)
(-2.36056e-06 -2.76933e-06 -2.86273e-06)
(1.14166e-07 1.68275e-05 1.14166e-07)
(1.45823e-05 4.85134e-06 3.98598e-06)
(7.49428e-06 -6.78886e-06 -9.30059e-06)
(-6.53548e-06 -4.05851e-06 4.75689e-06)
(6.44355e-07 1.39188e-05 6.44355e-07)
(2.25554e-05 4.11903e-06 -3.51283e-06)
(1.54126e-05 -1.9479e-05 -3.02138e-05)
(-1.18531e-05 -2.13472e-05 -2.32193e-05)
(-3.77064e-06 5.0937e-06 -3.77064e-06)
)
;

boundaryField
{
    inlet
    {
        type            fixedValue;
        value           nonuniform 0();
    }
    outlet
    {
        type            zeroGradient;
    }
    walls
    {
        type            fixedValue;
        value           uniform (0 0 0);
    }
    procBoundary0to1
    {
        type            processor;
        value           nonuniform List<vector> 
16
(
(7.30415e-06 4.02069e-06 7.30415e-06)
(8.36665e-06 -6.7698e-06 6.22981e-05)
(-7.11152e-06 -2.68216e-06 4.42647e-05)
(-7.22002e-06 3.32685e-06 1.84989e-05)
(6.22981e-05 -6.7698e-06 8.36665e-06)
(4.63233e-05 -0.000113955 4.63233e-05)
(-5.19076e-05 -7.32964e-05 4.67948e-05)
(-3.13751e-05 -1.33981e-05 1.55864e-05)
(4.42647e-05 -2.68216e-06 -7.11152e-06)
(4.67948e-05 -7.32964e-05 -5.19076e-05)
(-3.74456e-05 -6.32466e-05 -3.74456e-05)
(-3.57473e-05 -8.65662e-06 -8.61115e-06)
(1.84989e-05 3.32685e-06 -7.22002e-06)
(1.55864e-05 -1.33981e-05 -3.13751e-05)
(-8.61115e-06 -8.65662e-06 -3.57473e-05)
(-4.63506e-06 1.06132e-06 -4.63506e-06)
)
;
    }
}


// ************************************************************************* //
