/*--------------------------------*- C++ -*----------------------------------*\
| =========                 |                                                 |
| \\      /  F ield         | OpenFOAM: The Open Source CFD Toolbox           |
|  \\    /   O peration     | Version:  5.x                                   |
|   \\  /    A nd           | Web:      www.OpenFOAM.org                      |
|    \\/     M anipulation  |                                                 |
\*---------------------------------------------------------------------------*/
FoamFile
{
    version     2.0;
    format      ascii;
    class       volScalarField;
    location    "0.042";
    object      interFace;
}
// * * * * * * * * * * * * * * * * * * * * * * * * * * * * * * * * * * * * * //

dimensions      [0 0 0 0 0 0 0];

internalField   nonuniform List<scalar> 
1595
(
0
0
0
0
0
0
0
0
0
0
0
0
0
0
0
0
0
0
0
0
0
0
0
0
0
0
0
0
0
0
0
0
0
0
0
0
0
0
0
0
0
0
0
0
0
0
0
0
0
0
0
0
0
0
0
0
0
0
0
0
0
0
0
0
0
0
0
0
0
0
0
0
0
0
0
0
0
0
0
0
0
0
0
0
0
0
0
0
0
0
0
0
0
0
0
0
0
0
0
0
0
0
0
0
0
0
0
0
0
0
0
0
0
0
0
0
0
0
0
0
0
0
0
0
0
0
0
0
0
0
0
0
0
0
0
0
0
0
0
0
0
0
0
0
0
0
0
0
0
0
0
0
0
0
0
0
0
0
0
0
0
0
0
0
0
0
0
0
0
0
0
0
0
0
0
0
0
0
0
0
0
0
0
0
0
0
0
0
0
0
0
0
0
0
0
0
0
0
0
0
0
0
0
0
0
0
0
0
0
0
0
0
0
0
0
0
0
0
0
0
0
0
0
0
0
0
0
0
0
0
0
0
0
0
0
0
0
0
0
0
0
0
0
0
0
0
0
0
0
0
0
0
0
0
0
0
0
0
0
0
0
0
0
0
0
0
0
0
0
0
0
0
0
0
0
0
0
0
0
0
0
0
0
0
0
0
0
0
0
0
0
0
0
0
0
0
0
0
0
0
0
0
0
0
0
0
0
0
0
0
0
0
0
0
0
0
0
0
0
0
0
0
0
0
0
0
0
0
0
0
0
0
0
0
0
0
0
0
0
0
0
0
0
0
0
0
0
0
0
0
0
0
0
0
0
0
0
0
0
0
0
0
0
0
0
0
0
0
0
0
0
0
0
0
0
0
0
0
0
0
0
0
0
0
0
0
0
0
0
0
0
0
0
0
0
0
0
0
0
0
0
0
0
0
0
0
0
0
0
0
0
0
0
0
0
0
0
0
0
0
0
0
0
0
0
0
0
0
0
0
0
0
0
0
0
0
0
0
0
0
0
0
0
0
0
0
0
0
0
0
0
0
0
0
0
0
0
0
0
0
0
0
0
0
0
0
0
0
0
0
0
0
0
0
0
0
0
0
0
0
0
0
0
0
0
0
0
0
0
0
0
0
0
0
0
0
0
0
0
0
0
0
0
0
0
0
0
0
0
0
0
0
0
0
0
0
0
0
0
0
0
0
0
0
0
0
0
0
0
0
0
0
0
0
0
0
0
0
0
0
0
0
0
0
0
0
0
0
0
0
0
0
0
0
0
0
0
0
0
0
0
0
0
0
0
0
0
0
0
0
0
0
0
0
0
0
0
0
0
0
0
0
0
0
0
0
0
0
0
0
0
0
0
0
0
0
0
0
0
0
0
0
0
0
0
0
0
0
0
0
0
0
0
0
0
0
0
0
0
0
0
0
0
0
0
0
0
0
0
0
0
0
0
0
0
0
0
0
0
0
0
0
0
0
0
0
0
0
0
0
0
0
0
0
0
0
0
0
0
0
0
0
0
0
0
0
0
0
0
0
0
0
0
0
0
0
0
0
0
0
0
0
0
0
0
0
0
0
0
0
0
0
0
0
0
0
0
0
0
0
0
0
0
0
0
0
0
0
0
0
0
0
0
0
0
0
0
0
0
0
0
0
0
0
0
0
0
0
0
0
0
0
0
0
0
0
0
0
0
0
0
0
0
0
0
0
0
0
0
0.811807
0
0
0
0
0
0
0
0
0
0
0
0
0
0
0
0
0
0
0
0
0
0
0
0
0.556409
0
0
0
0
0
0
0
0
0
0
0
0
0
0
0
0
0
0
0
0
0
0
0
0
0.980621
0
0
0
0
0
0
0
0
0
0
0
0
0
0
0
0
0
0
0
0
0
0
0
0
0.850462
0
0
0
0
0
0
0
0
0
0
0
0
0
0
0
0
0
0
0
0
0
0
0
0
0.569921
0
0
0
0
0
0
0
0
0
0
0
0
0
0
0
0
0
0
0
0
0
0
0
0
0.755147
0
0
0
0
0
0
0
0
0
0
0
0
0
0
0
0
0
0
0
0
0
0
0
0
0
0
0
0
0
0
0
0
0
0
0
0
0
0
0
0
0
0
0
0
0
0
0
0
0
0
0
0
0
0
0
0
0
0
0
0
0
0
0
0
0
0
0
0
0
0
0
0
0
0
0
0
0
0
0
0
0
0
0
0
0
0
0
0
0
0
0
0
0
0
0
0
0
0
0
0
0
0
0
0
0
0
0
0
0
0
0
0
0
0
0
0
0
0
0
0
0
0
0
0
0
0
0.735682
0.466785
0
0
0.97384
0.745852
0.735682
0
0.466787
0
0.973841
0
0.745854
0.287512
0.287514
0.0186168
0.835476
0.566579
0.566581
0.297684
0
0
0
0
0
0
0
0
0
0
0
0
0
0
0.749242
0.749244
0.480347
0
0
0
0.981997
0.832934
0.832934
0.564045
0.635665
0.366776
0.366777
0.0978874
0
0.749191
0.480302
0
0
0.82088
0.551991
0.749191
0
0.480303
0
0.82088
0
0.551992
0.301031
0.301032
0.0321426
0.641609
0.37272
0.372721
0.103832
0
0
0.86235
0
0
0
0
0
0
0.86235
0
0
0
0
0.486258
0.486258
0.217369
0
0.910165
0.910166
0.730906
0.644604
0.620697
0.620697
0.913505
0.486246
0.779054
0.779055
0.428728
0.697633
0.701023
0.701024
0.56318
0.563181
0.566571
0.339096
0.428736
0.611391
0.432127
0.473548
0.476939
0.294284
0.339096
0.428738
0.611392
0.432128
0.473549
0.476939
0.294285
0.249464
0.159841
0.342495
0.342496
0.387307
0.204652
0.204653
0.887086
0.794054
0.61479
0.976726
0.659602
0
0.842274
0.887086
0.794055
0.614791
0.976728
0.659602
0
0.842275
0.797454
0.525158
0.525159
0.707831
0.56997
0.752642
0.752643
0.214362
0.304003
0.417529
0.23827
0.348813
0.283079
0.169553
0.214363
0.304004
0.41753
0.23827
0.348813
0.28308
0.169554
0.124733
0.0351147
0.148641
0.148641
0.19345
0.0799237
0.0799239
0.554975
0.531067
0.351807
0.644615
0.396617
0.689425
0.510165
0.554975
0.531067
0.351808
0.644616
0.396617
0.689425
0.510166
0.465345
0.262178
0.262178
0.375727
0.306987
0.420536
0.420536
0.54291
0.542912
0.274015
0.553028
0.284131
0.284132
0.0152356
0.156442
0.063428
0.0634286
0.0668186
0.10824
0.11163
0.11163
0.876914
0.608009
0.969945
0.790664
0.652821
0
0.832102
0.876916
0.608011
0.790665
0.969948
0.652822
0
0.832105
0.246073
0.332324
0.15306
0.335714
0.197872
0.380526
0.201262
0.246074
0.332325
0.153061
0.335715
0.197872
0.380527
0.201263
0.303992
0.572893
0.507159
0.507159
0.438442
0.438443
0.372709
0.335706
0.421956
0.421957
0.604611
0.287504
0.470158
0.470158
0.100837
0.0769516
0.0769518
0.0112184
0.121761
0.0560274
0.0560276
0
0
0
0
0
0
0
0.752174
0.483274
0.776082
0.5968
0.528083
0.820891
0.707365
0.752175
0.483275
0.596801
0.776083
0.528084
0.820892
0.707366
0.190466
0.34584
0.166581
0.280107
0.21139
0.324916
0.145657
0.190466
0.345841
0.166582
0.280108
0.211391
0.324917
0.145657
0.0600468
0.0600473
0.104859
0.146298
0.0566748
0.101486
0.101487
0
0.953552
0.722183
0
0
0.7323
0.463404
0.953553
0
0.722185
0
0.732301
0
0.463406
0.783892
0.690878
0.511597
0.514987
0.73569
0.559798
0.73908
0.783894
0.511598
0.690881
0.514989
0.735692
0.5598
0.739083
0.328943
0.149679
0.19449
0.23593
0.32557
0.370382
0.191118
0.328944
0.14968
0.194491
0.23593
0.325572
0.370383
0.191119
0.280096
0.43547
0.43547
0.548996
0.30102
0.414546
0.414546
0.418575
0.418575
0.284123
0.325562
0.594467
0.460014
0.460015
0
0
0
0
0
0
0
0.841804
0.752163
0
0.68643
0.976254
0.617713
0.910521
0.841805
0.752163
0
0.68643
0.976255
0.617713
0.910522
0.298071
0.208453
0.142696
0.142697
0.187506
0.253262
0.253262
0.873524
0.959775
0.601229
0.783884
0.825322
0
0.649431
0.873526
0.959776
0.60123
0.783884
0.825324
0
0.649432
0
0
0
0
0
0.898231
0.546047
0
0
0
0
0.898232
0
0.546047
0.3877
0.477341
0.411585
0.232326
0.522151
0.277135
0.342891
0.387701
0.477342
0.411586
0.232326
0.522151
0.277135
0.342892
0.728278
0.704393
0.525111
0.459378
0.749202
0.504187
0.683469
0.728279
0.525112
0.704394
0.459378
0.749203
0.504187
0.68347
0
0
0
0.946808
0.767544
0.767545
0.449916
0.232558
0.318826
0.318827
0.142935
0.363638
0.187746
0.187746
0.322189
0.587722
0.408458
0.41183
0.45327
0.456642
0.277378
0.32219
0.587723
0.408459
0.411832
0.45327
0.456643
0.277379
0.687497
0.508215
0.732309
0.504843
0.549655
0.773748
0.728936
0.508217
0.6875
0.732311
0.504845
0.549656
0.77375
0.728939
0.47733
0.746231
0.501215
0.501215
0.61178
0.611781
0.366765
0.411822
0.677354
0.677355
0.680727
0.542902
0.546274
0.546274
0.817908
0.973282
0.614741
0.728267
0.838832
0.952358
0.593817
0.817908
0.973283
0.614741
0.728267
0.838833
0.952359
0.593817
0.453457
0.608854
0.608854
0.363839
0.653663
0.408648
0.408648
0
0
0
0
0
0
0
0.956394
0.597848
0.821941
0.77374
0.639287
0.86338
0.997833
0.956395
0.597849
0.821943
0.77374
0.639288
0.863382
0.997834
0.656612
0.770138
0.590856
0.701421
0.814947
0.925512
0.880703
0.656613
0.590856
0.770139
0.701422
0.814948
0.925513
0.880704
0.543086
0.877743
0.698483
0.632727
0.743293
0.677536
0.498277
0.543087
0.877743
0.698484
0.632728
0.743293
0.677537
0.498277
0.494727
0.494728
0.539539
0.76026
0.670637
0.715449
0.715449
0
0
0
0
0
0
0
0
0
0
0
0
0
0
0.766995
0.591103
0.635914
0.860008
0.946276
0.991088
0.815196
0.766996
0.591105
0.635916
0.86001
0.946279
0.99109
0.815199
)
;

boundaryField
{
    inlet
    {
        type            calculated;
        value           uniform 0;
    }
    wall
    {
        type            calculated;
        value           uniform 0;
    }
    outlet
    {
        type            calculated;
        value           uniform 0;
    }
    procBoundary0to1
    {
        type            processor;
        value           uniform 0;
    }
    procBoundary0to2
    {
        type            processor;
        value           uniform 0;
    }
}


// ************************************************************************* //
