# Probe 0 (0.5001 0.5001 0.0001)
# Probe 1 (0.5001 0.5001 1.0001)
# Probe 2 (0.5001 0.5001 2.0001)
# Probe 3 (0.5001 0.5001 3.0001)
#       Probe             0             1             2             3
#        Time
       0.0003        100000        100001        100002        100012
       0.0006        100000        100001        100001        100014
       0.0009        100000       99999.2       99998.4        100003
       0.0012        100000       99999.2       99998.5        100002
       0.0015        100000        100000        100000        100004
       0.0018        100000        100000        100000        100005
       0.0021        100000        100000        100000        100005
       0.0024        100000        100000        100000        100005
       0.0027        100000        100000        100000        100005
        0.003        100000        100000        100000        100005
       0.0033        100000        100000        100000        100005
       0.0036        100000        100000        100000        100005
       0.0039        100000        100000        100000        100005
       0.0042        100000        100000        100000        100005
       0.0045        100000        100000        100000        100005
       0.0048        100000        100000        100000        100006
       0.0051        100000        100000        100000        100006
       0.0054        100000       99999.9       99999.7        100003
       0.0057        100000        100000        100000        100004
        0.006        100000        100000        100000        100004
       0.0063        100000        100000        100000        100004
