# Probe 0 (0.5001 0.5001 0.0001)
# Probe 1 (0.5001 0.5001 1.0001)
# Probe 2 (0.5001 0.5001 2.0001)
# Probe 3 (0.5001 0.5001 3.0001)
#       Probe             0             1             2             3
#        Time
       0.0003        100000        100001        100002        100012
       0.0006        100000        100001        100001        100014
       0.0009        100000       99999.2       99998.4        100003
       0.0012        100000       99999.2       99998.5        100002
       0.0015        100000        100000        100000        100004
       0.0018        100000        100000        100000        100005
       0.0021        100000        100000        100000        100005
       0.0024        100000        100000        100000        100005
       0.0027        100000        100000        100000        100005
        0.003        100000        100000        100000        100005
       0.0033        100000        100000        100000        100005
       0.0036        100000        100000        100000        100005
       0.0039        100000        100000        100000        100005
       0.0042        100000        100000        100000        100005
       0.0045        100000        100000        100000        100005
       0.0048        100000        100000        100000        100006
       0.0051        100000        100000        100000        100006
       0.0054        100000       99999.9       99999.7        100003
       0.0057        100000        100000        100000        100004
        0.006        100000        100000        100000        100004
       0.0063        100000        100000        100000        100004
       0.0066        100000        100000        100000        100005
       0.0069        100000       99999.9       99999.9        100005
       0.0072        100000        100000        100000        100006
       0.0075        100000        100000        100000        100006
       0.0078        100000        100000        100000        100006
       0.0081        100000        100000        100000        100006
       0.0084        100000        100000        100000        100006
       0.0087        100000        100000        100000        100006
        0.009        100000        100000        100000        100006
       0.0093        100000       99999.9       99999.9        100005
       0.0096        100000        100000       99999.9        100006
       0.0099        100000        100000        100000        100006
       0.0102        100000        100000        100000        100006
       0.0105        100000        100000        100000        100006
       0.0108        100000        100000        100000        100007
       0.0111        100000        100000       99999.9        100007
       0.0114        100000        100000        100000        100007
       0.0117        100000       99999.9       99999.8        100007
        0.012        100000       99999.8       99999.6        100007
       0.0123        100000        100000        100000        100008
       0.0126        100000        100000        100000        100008
       0.0129        100000       99999.9       99999.9        100008
       0.0132        100000       99999.9       99999.9        100008
       0.0135        100000       99999.9       99999.9        100008
       0.0138        100000        100000       99999.9        100009
       0.0141        100000        100000        100000        100009
       0.0144        100000       99999.9       99999.9        100009
       0.0147        100000        100000        100000        100010
        0.015        100000        100000        100000        100010
       0.0153        100000        100000        100000        100010
       0.0156        100000        100000        100000        100010
       0.0159        100000        100000        100000        100011
       0.0162        100000        100000        100000        100011
       0.0165        100000        100000        100000        100011
       0.0168        100000        100000        100000        100012
       0.0171        100000        100000        100000        100012
       0.0174        100000        100000        100000        100013
       0.0177        100000        100000        100000        100013
        0.018        100000        100000        100000        100013
       0.0183        100000        100000        100000        100014
       0.0186        100000        100000        100000        100014
       0.0189        100000        100000        100000        100014
       0.0192        100000        100000        100000        100014
       0.0195        100000        100000        100000        100013
       0.0198        100000        100000        100000        100013
       0.0201        100000       99999.9       99999.9        100014
       0.0204        100000        100000        100000        100015
       0.0207        100000        100000        100000        100015
        0.021        100000        100000        100000        100014
       0.0213        100000        100000        100000        100014
       0.0216        100000        100000        100000        100015
       0.0219        100000        100000        100000        100015
       0.0222        100000        100000        100000        100016
       0.0225        100000        100000        100000        100016
       0.0228        100000        100000        100000        100034
       0.0231        100000       99999.8       99999.6        100022
       0.0234        100000        100000        100001        100020
       0.0237        100000        100000        100000        100019
        0.024        100000        100000        100000        100019
       0.0243        100000       99999.8       99999.6        100023
       0.0246        100000        100000        100000        100022
       0.0249        100000       99999.8       99999.7        100018
       0.0252        100000        100000        100001        100022
       0.0255        100000        100000        100000        100021
       0.0258        100000       99999.9       99999.8        100022
       0.0261        100000        100000        100000        100024
       0.0264        100000        100000        100000        100025
       0.0267        100000        100000        100000        100025
        0.027        100000       99999.9       99999.9        100025
       0.0273        100000        100000        100000        100026
       0.0276        100000        100000        100000        100027
       0.0279        100000       99999.9       99999.8        100025
       0.0282        100000       99999.9        100000        100024
       0.0285        100000        100000        100000        100023
       0.0288        100000        100000        100000        100022
       0.0291        100000       99999.9       99999.9        100020
       0.0294        100000        100000        100000        100018
       0.0297        100000        100000        100000        100017
         0.03        100000        100000        100000        100016
       0.0303        100000        100000        100000        100015
       0.0306        100000        100000        100000        100014
       0.0309        100000        100000        100000        100015
       0.0312        100000        100000        100000        100015
       0.0315        100000        100000        100000        100013
       0.0318        100000       99999.8       99999.7        100012
       0.0321        100000        100000        100000        100011
       0.0324        100000        100000        100001        100012
       0.0327        100000        100000        100000        100010
        0.033        100000       99999.7       99999.5        100016
       0.0333        100000        100000        100000        100008
       0.0336        100000        100000        100000        100006
       0.0339        100000       99999.8       99999.6        100008
       0.0342        100000        100000        100000        100005
       0.0345        100000       99999.7       99999.5        100002
       0.0348        100000        100000        100000        100005
       0.0351        100000       99999.6       99999.4        100002
       0.0354        100000       99999.9       99999.9        100004
       0.0357        100000       99999.8       99999.8        100004
        0.036        100000       99999.8       99999.8        100003
       0.0363        100000       99999.8       99999.8        100002
       0.0366        100000       99999.9        100000        100002
       0.0369        100000       99999.9       99999.8        100001
       0.0372        100000       99999.9       99999.9        100001
       0.0375        100000        100000        100000        100001
       0.0378        100000        100000        100000        100000
       0.0381        100000        100000        100000       99999.5
       0.0384       99999.9       99999.9       99999.9       99998.9
       0.0387       99999.9        100000        100000       99998.9
        0.039       99999.9        100000        100000       99998.8
       0.0393       99999.9       99999.9       99999.8         99997
       0.0396        100000        100000        100000         99999
       0.0399       99999.9       99999.9       99999.9       99997.2
       0.0402       99999.9        100000        100000       99997.2
       0.0405       99999.9       99999.9       99999.9       99995.7
       0.0408       99999.9        100000        100000       99994.9
       0.0411        100000        100000        100000        100000
       0.0414       99999.9       99999.8       99999.6       99994.8
       0.0417       99999.9        100000        100000         99996
        0.042        100000        100000        100000         99996
       0.0423        100000       99999.9       99999.9         99995
       0.0426       99999.9       99999.9       99999.9       99986.1
       0.0429        100000        100000        100001         99995
       0.0432        100000       99999.8       99999.6         99992
       0.0435       99999.9       99999.9       99999.9       99994.5
       0.0438       99999.9       99999.8       99999.7       99993.9
       0.0441       99999.9       99999.7       99999.5       99993.7
       0.0444       99999.9       99999.8       99999.8       99993.8
       0.0447       99999.9       99999.9       99999.9       99993.4
        0.045       99999.9       99999.7       99999.5       99992.6
       0.0453       99999.9       99999.8       99999.7       99993.2
       0.0456       99999.9       99999.9       99999.8       99993.9
       0.0459       99999.9       99999.8       99999.7       99993.2
       0.0462       99999.9        100000        100000       99993.5
       0.0465       99999.9        100000        100000       99993.6
       0.0468       99999.9        100000        100000       99993.4
       0.0471       99999.9       99999.9       99999.9       99991.1
       0.0474       99999.9        100000        100001       99993.8
       0.0477       99999.9       99999.9        100000         99991
        0.048       99999.9       99999.8       99999.7       99991.4
       0.0483       99999.9        100000        100000       99993.3
       0.0486       99999.9       99999.8       99999.7       99995.5
       0.0489       99999.9       99999.8       99999.7       99990.8
       0.0492       99999.9       99999.8       99999.7       99993.8
       0.0495       99999.8       99999.5       99999.2       99994.6
       0.0498       99999.8       99999.7       99999.7       99991.9
       0.0501       99999.8       99999.6       99999.4       99986.2
       0.0504       99999.8       99999.5       99999.1       99993.1
       0.0507       99999.8       99999.6       99999.3       99991.7
        0.051       99999.7       99999.5       99999.3       99991.4
       0.0513       99999.7       99999.5       99999.2       99991.9
       0.0516       99999.7       99999.6       99999.4         99992
       0.0519       99999.7       99999.6       99999.5       99991.8
       0.0522       99999.7       99999.7       99999.5       99992.4
       0.0525       99999.7       99999.8       99999.8       99993.2
       0.0528       99999.7       99999.8       99999.9         99994
       0.0531       99999.7       99999.8       99999.8       99993.4
       0.0534       99999.6       99999.9        100000       99994.6
       0.0537       99999.6       99999.8       99999.9       99994.7
        0.054       99999.6       99999.7       99999.6       99991.6
       0.0543       99999.6        100000        100000       99994.3
       0.0546       99999.6       99999.8        100000         99992
       0.0549       99999.6       99999.8       99999.9       99994.8
       0.0552       99999.6        100000        100000       99996.9
       0.0555       99999.6        100000        100000       99998.3
       0.0558       99999.6       99999.6       99999.5       99994.8
       0.0561       99999.6        100000        100001       99998.3
       0.0564       99999.6        100000        100000       99998.1
       0.0567       99999.6        100000        100001       99997.9
        0.057       99999.7        100000        100000       99983.8
       0.0573       99999.7        100000        100000        100026
       0.0576       99999.7       99999.9        100000        100003
       0.0579       99999.6       99999.8       99999.9        100002
       0.0582       99999.6       99999.7       99999.6        100001
       0.0585       99999.6       99999.9        100000        100001
       0.0588       99999.6       99999.6       99999.5       99999.9
       0.0591       99999.6       99999.6       99999.6        100001
       0.0594       99999.6       99999.7       99999.7        100001
       0.0597       99999.6       99999.7       99999.8        100004
         0.06       99999.6       99999.7       99999.7        100002
       0.0603       99999.6        100000        100000        100003
       0.0606       99999.6        100000        100000        100003
       0.0609       99999.6        100000        100000       99997.8
       0.0612       99999.6        100000        100001        100001
       0.0615       99999.6        100000        100001        100006
       0.0618       99999.6       99999.8        100000        100001
       0.0621       99999.6        100000        100000        100008
       0.0624       99999.6        100000        100000        100004
       0.0627       99999.6       99999.9        100000        100006
        0.063       99999.6       99999.4       99999.2        100005
       0.0633       99999.6       99999.6       99999.6        100006
       0.0636       99999.5       99999.3         99999       99999.6
       0.0639       99999.5       99999.4       99999.2        100003
       0.0642       99999.5       99999.4       99999.1        100006
       0.0645       99999.5       99999.3         99999        100004
       0.0648       99999.4       99999.3       99998.9        100004
       0.0651       99999.4       99999.4       99999.1        100004
       0.0654       99999.4       99999.4       99999.1        100004
       0.0657       99999.4       99999.5       99999.4        100005
        0.066       99999.3       99999.5       99999.4        100006
       0.0663       99999.3       99999.5       99999.5        100005
       0.0666       99999.3       99999.8       99999.9        100006
       0.0669       99999.3       99999.7       99999.8        100005
       0.0672       99999.3       99999.6       99999.5       99961.9
       0.0675       99999.3        100000        100000       99995.6
       0.0678       99999.3       99999.8       99999.9       99997.9
       0.0681       99999.3       99999.8       99999.9        100009
       0.0684       99999.3        100000        100001        100003
       0.0687       99999.3        100000        100000        100003
        0.069       99999.3       99999.3         99999        100002
       0.0693       99999.3        100000        100001        100007
       0.0696       99999.3        100000        100001        100010
       0.0699       99999.3        100000        100000        100006
       0.0702       99999.3        100000        100001        100010
       0.0705       99999.3       99999.9        100000        100009
       0.0708       99999.3       99999.8       99999.9        100009
       0.0711       99999.3       99999.6       99999.5        100008
       0.0714       99999.3       99999.6       99999.7        100008
       0.0717       99999.3       99999.5       99999.5        100009
        0.072       99999.3       99999.5       99999.6        100010
       0.0723       99999.3       99999.5       99999.6        100013
       0.0726       99999.2       99999.6       99999.7        100010
       0.0729       99999.2       99999.8        100000        100010
       0.0732       99999.2        100000        100000        100011
       0.0735       99999.2       99999.9        100000        100022
       0.0738       99999.3        100000        100001        100015
       0.0741       99999.3       99999.7        100000        100030
       0.0744       99999.3        100000        100001        100017
       0.0747       99999.3       99999.5       99999.6        100012
        0.075       99999.2       99999.5       99999.6        100008
       0.0753       99999.2       99999.7        100000        100012
       0.0756       99999.2       99999.2       99999.1        100012
       0.0759       99999.2       99999.5       99999.7        100007
       0.0762       99999.2       99999.1       99998.9        100004
       0.0765       99999.1       99999.4       99999.5        100007
       0.0768       99999.1       99999.2       99999.3        100006
       0.0771       99999.1       99999.2       99999.2        100005
       0.0774         99999       99999.2       99999.4        100004
       0.0777         99999       99999.2       99999.4        100004
        0.078         99999       99999.3       99999.6        100004
       0.0783         99999       99999.4       99999.7        100005
       0.0786         99999       99999.4       99999.8        100001
       0.0789         99999       99999.6        100000        100001
       0.0792       99998.9       99999.4       99999.8       99984.4
       0.0795       99998.9       99999.8        100001       99993.8
       0.0798       99998.9       99999.7        100000       99993.4
       0.0801       99998.9       99999.5        100000        100003
       0.0804       99998.9       99999.8        100001       99994.6
       0.0807       99998.9        100000        100001       99996.1
        0.081       99998.9       99999.2       99999.4       99990.1
       0.0813       99998.9        100000        100001       99995.9
       0.0816       99998.9       99999.8        100000       99996.7
       0.0819       99998.9        100000        100001         99995
       0.0822       99998.9       99999.5        100000         99996
       0.0825         99999        100000        100001       99994.8
       0.0828       99998.9       99999.7        100000       99992.3
       0.0831       99998.9       99999.5        100000       99991.7
       0.0834       99998.9       99999.5        100000         99991
       0.0837       99998.9       99999.4        100000       99990.5
        0.084       99998.9       99999.3       99999.7       99991.9
       0.0843       99998.9       99999.4        100000       99987.9
       0.0846       99998.9       99999.7        100000         99990
       0.0849       99998.9       99999.6        100000         99989
       0.0852       99998.9        100000        100001       99990.3
       0.0855       99998.9        100000        100001       99989.8
       0.0858       99998.9       99999.7        100001       99991.1
       0.0861       99998.9       99999.9        100001       99981.7
       0.0864       99998.9       99999.9        100001       99988.6
       0.0867       99998.9       99999.4       99999.8       99990.7
        0.087       99998.9       99999.7        100000       99989.1
       0.0873       99998.9       99999.3       99999.8       99987.9
       0.0876       99998.8       99999.2       99999.4       99987.9
       0.0879       99998.8       99999.2       99999.5       99986.1
       0.0882       99998.8       99999.4       99999.7         99987
       0.0885       99998.8       99999.3       99999.5       99986.4
       0.0888       99998.8       99999.3       99999.5       99987.2
       0.0891       99998.7       99999.2       99999.4       99986.1
       0.0894       99998.7       99999.3       99999.6       99986.5
       0.0897       99998.7       99999.3       99999.5       99982.9
         0.09       99998.7       99999.5       99999.9       99986.5
       0.0903       99998.7       99999.4       99999.9       99986.9
       0.0906       99998.7       99999.4       99999.7       99986.3
       0.0909       99998.7       99999.6        100000       99987.5
       0.0912       99998.6       99999.2       99999.6       99991.3
       0.0915       99998.6       99999.8        100001       99988.5
       0.0918       99998.6       99998.6       99998.5       99966.5
       0.0921       99998.6        100000        100002       99980.7
       0.0924       99998.6       99999.9        100001       99984.2
       0.0927       99998.6       99999.7        100000       99985.8
        0.093       99998.6        100000        100001       99984.7
       0.0933       99998.6       99999.5       99999.8       99986.1
       0.0936       99998.6       99999.9        100001       99987.4
       0.0939       99998.6       99999.4        100000       99988.2
       0.0942       99998.7        100000        100002       99990.3
       0.0945       99998.7       99999.7        100001       99988.9
       0.0948       99998.7       99999.6        100001       99989.5
       0.0951       99998.7       99999.5        100001       99985.1
       0.0954       99998.7       99999.6        100001       99991.4
       0.0957       99998.6       99999.4        100000       99992.1
        0.096       99998.6       99999.8        100001       99993.4
       0.0963       99998.6       99999.6        100001       99994.6
       0.0966       99998.6       99999.4        100001         99993
       0.0969       99998.6       99999.6        100001       99978.5
       0.0972       99998.7        100000        100002       99996.8
       0.0975       99998.7       99999.5        100001         99997
       0.0978       99998.6       99999.3        100001       99996.8
       0.0981       99998.6       99999.1        100000        100009
       0.0984       99998.6       99999.1       99999.8       99997.8
       0.0987       99998.6       99999.3        100001       99996.4
        0.099       99998.5       99998.9        100000       99996.8
       0.0993       99998.5       99999.1        100001       99997.2
       0.0996       99998.5       99998.8        100000       99996.1
       0.0999       99998.5       99999.2        100001       99997.5
