/*--------------------------------*- C++ -*----------------------------------*\
| =========                 |                                                 |
| \\      /  F ield         | OpenFOAM: The Open Source CFD Toolbox           |
|  \\    /   O peration     | Version:  5.x                                   |
|   \\  /    A nd           | Web:      www.OpenFOAM.org                      |
|    \\/     M anipulation  |                                                 |
\*---------------------------------------------------------------------------*/
FoamFile
{
    version     2.0;
    format      ascii;
    class       volScalarField;
    location    "0.039";
    object      interFace;
}
// * * * * * * * * * * * * * * * * * * * * * * * * * * * * * * * * * * * * * //

dimensions      [0 0 0 0 0 0 0];

internalField   nonuniform List<scalar> 
1553
(
0
0
0
0
0
0
0
0
0
0
0
0
0
0
0
0
0
0
0
0
0
0
0
0
0
0
0
0
0
0
0
0
0
0
0
0
0
0
0
0
0
0
0
0
0
0
0
0
0
0
0
0
0
0
0
0
0
0
0
0
0
0
0
0
0
0
0
0
0
0
0
0
0
0
0
0
0
0
0
0
0
0
0
0
0
0
0
0
0
0
0
0
0
0
0
0
0
0
0
0
0
0
0
0
0
0
0
0
0
0
0
0
0
0
0
0
0
0
0
0
0
0
0
0
0
0
0
0
0
0
0
0
0
0
0
0
0
0
0
0
0
0
0
0
0
0
0
0
0
0
0
0
0
0
0
0
0
0
0
0
0
0
0
0
0
0
0
0
0
0
0
0
0
0
0
0
0
0
0
0
0
0
0
0
0
0
0
0
0
0
0
0
0
0
0
0
0
0
0
0
0
0
0
0
0
0
0
0
0
0
0
0
0
0
0
0
0
0
0
0
0
0
0
0
0
0
0
0
0
0
0
0
0
0
0
0
0
0
0
0
0
0
0
0
0
0
0
0
0
0
0
0
0
0
0
0
0
0
0
0
0
0
0
0
0
0
0
0
0
0
0
0
0
0
0
0
0
0
0
0
0
0
0
0
0
0
0
0
0
0
0
0
0
0
0
0
0
0
0
0
0
0
0
0
0
0
0
0
0
0
0
0
0
0
0
0
0
0
0
0
0
0
0
0
0
0
0
0
0
0
0
0
0
0
0
0
0
0
0
0
0
0
0
0
0
0
0
0
0
0
0
0
0
0
0
0
0
0
0
0
0
0
0
0
0
0
0
0
0
0
0
0
0
0
0
0
0
0
0
0
0
0
0
0
0
0
0
0
0
0
0
0
0
0
0
0
0
0
0
0
0
0
0
0
0
0
0
0
0
0
0
0
0
0
0
0
0
0
0
0
0
0
0
0
0
0
0
0
0
0
0
0
0
0
0
0
0
0
0
0
0
0
0
0
0
0
0
0
0
0
0
0
0
0
0
0
0
0
0
0
0
0
0
0
0
0
0
0
0
0
0
0
0
0
0
0
0
0
0
0
0
0
0
0
0
0
0
0
0
0
0
0
0
0
0
0
0
0
0
0
0
0
0
0
0
0
0
0
0
0
0
0
0
0
0
0
0
0
0
0
0
0
0
0
0
0
0
0
0
0
0
0
0
0
0
0
0
0
0
0
0
0
0
0
0
0
0
0
0
0
0
0
0
0
0
0
0
0
0
0
0
0
0
0
0
0
0
0
0
0
0
0
0
0
0
0
0
0
0
0
0
0
0
0
0
0
0
0
0
0
0
0
0
0
0
0
0
0
0
0
0
0
0
0
0
0
0
0
0
0
0
0
0
0
0
0
0
0
0
0
0
0
0
0
0
0
0
0
0
0
0
0
0
0
0
0
0
0
0
0
0
0
0
0
0
0
0
0
0
0
0
0
0
0
0
0
0
0
0
0
0
0
0
0
0
0
0
0
0
0
0
0
0
0
0
0
0
0
0
0
0
0
0
0
0
0
0
0
0
0
0
0
0
0
0
0
0
0
0
0
0
0
0
0
0
0
0
0
0
0
0
0
0
0
0
0
0
0
0
0
0
0
0
0
0
0
0
0
0
0
0
0
0
0
0
0
0
0
0
0
0
0
0
0
0
0
0
0
0
0.943331
0
0
0
0
0
0
0
0
0
0
0
0
0
0
0
0
0
0
0
0
0
0
0
0
0.549852
0
0
0
0
0
0
0
0
0
0
0
0
0
0
0
0
0
0
0
0
0
0
0
0
0.873502
0
0
0
0
0
0
0
0
0
0
0
0
0
0
0
0
0
0
0
0
0
0
0
0
0
0
0
0
0
0
0
0
0
0
0
0
0
0
0
0
0
0
0
0
0
0
0
0
0
0.615897
0
0
0
0
0
0
0
0
0
0
0
0
0
0
0
0
0
0
0
0
0
0
0
0
0.664708
0
0
0
0
0
0
0
0
0
0
0
0
0
0
0
0
0
0
0
0
0
0
0
0
0
0
0
0
0
0
0
0
0
0
0
0
0
0
0
0
0
0
0
0
0
0
0
0
0
0
0
0
0
0
0
0
0
0
0
0
0
0
0
0
0
0
0
0
0
0
0
0
0
0
0
0
0
0
0
0
0
0
0
0
0
0
0
0
0
0
0
0
0
0
0
0
0
0
0
0
0
0
0
0
0
0
0
0
0
0
0
0
0
0
0
0
0
0
0
0
0
0
0
0
0
0
0.729127
0.460224
0
0
0.880985
0.635731
0.729127
0
0.460226
0
0.880986
0
0.635733
0.280949
0.280951
0.012048
0.725359
0.456456
0.456457
0.187555
0
0
0.998003
0
0
0
0
0
0
0.998005
0
0
0
0
0.604599
0.604601
0.335698
0
0
0
0.935754
0.836531
0.836531
0.657263
0.715746
0.446845
0.446845
0.177944
0
0.795172
0.526271
0
0
0.764549
0.495648
0.795172
0
0.526271
0
0.764549
0
0.495648
0.346996
0.346996
0.0780948
0.585274
0.316373
0.316373
0.0474718
0
0.934122
0.575081
0
0
0
0
0.934122
0
0.575082
0
0
0
0
0.395806
0.395807
0.126905
0.913722
0.90303
0.90303
0.634129
0
0
0
0
0
0
0
0.797557
0.739047
0.739048
0
0.604593
0.932011
0.932012
0.520053
0.530253
0.530253
0.788962
0.395799
0.654507
0.654507
0.353127
0.622036
0.590904
0.590904
0.487581
0.487582
0.45645
0.263493
0.353133
0.50127
0.322002
0.397947
0.366815
0.218679
0.263493
0.353135
0.501271
0.322003
0.397948
0.366816
0.21868
0.173859
0.0842319
0.232368
0.232368
0.277182
0.129045
0.129046
0.707923
0.649413
0.470145
0.797563
0.514959
0.842377
0.663109
0.707923
0.649414
0.470146
0.797565
0.514959
0.842378
0.66311
0.618289
0.380511
0.380512
0.528662
0.425325
0.573475
0.573476
0.192119
0.28176
0.361186
0.181919
0.326573
0.226732
0.147306
0.192119
0.28176
0.361186
0.181919
0.326574
0.226732
0.147306
0.102485
0.0128589
0.0922849
0.092285
0.137098
0.057672
0.0576722
0.968243
0.799176
0.619894
0.699335
0.843989
0.744148
0.92343
0.968244
0.619895
0.799177
0.699335
0.84399
0.744149
0.923431
0.430419
0.440619
0.261352
0.52006
0.306165
0.564873
0.385606
0.430419
0.44062
0.261352
0.520061
0.306165
0.564874
0.385606
0.340785
0.171718
0.171718
0.251159
0.216532
0.295972
0.295972
0.599494
0.689135
0.947843
0.768575
0.733948
0.813389
0.55468
0.599494
0.689135
0.947843
0.768576
0.733948
0.813389
0.554681
0.50986
0.420234
0.678942
0.678942
0.723755
0.465047
0.465047
0.674428
0.674429
0.405527
0.580991
0.312088
0.31209
0.0431868
0.115357
0.0568613
0.0568617
0.0257297
0.101675
0.070543
0.0705434
0.801317
0.532408
0.859826
0.680545
0.577222
0.90464
0.756504
0.801319
0.53241
0.680546
0.859829
0.577223
0.904642
0.756506
0.20499
0.325763
0.146495
0.294631
0.191309
0.339445
0.160177
0.204991
0.325764
0.146496
0.294632
0.191309
0.339446
0.160178
0.281753
0.550661
0.45082
0.45082
0.416207
0.416207
0.316366
0.294625
0.415397
0.415398
0.563534
0.280943
0.429079
0.429079
0.112693
0.122908
0.122908
0.0230666
0.167721
0.0678797
0.0678799
0
0
0
0
0
0
0
0.729943
0.461035
0.719743
0.540461
0.505848
0.764556
0.68513
0.729944
0.461035
0.540461
0.719744
0.505848
0.764557
0.685131
0.202327
0.391809
0.212542
0.291968
0.257355
0.336781
0.157513
0.202327
0.391809
0.212542
0.291968
0.257355
0.336781
0.157514
0.0880001
0.0880005
0.132814
0.208773
0.119146
0.16396
0.16396
0
0
0.88855
0
0
0.826258
0.491363
0
0
0.888551
0
0.826259
0
0.491365
0.742815
0.68432
0.505038
0.473906
0.729133
0.51872
0.698001
0.742817
0.505039
0.684322
0.473908
0.729135
0.518721
0.698004
0.356902
0.177634
0.222448
0.298407
0.388048
0.432861
0.253593
0.356903
0.177635
0.222448
0.298407
0.388049
0.432862
0.253594
0.291961
0.481443
0.481443
0.560869
0.346989
0.426415
0.426415
0.446536
0.446537
0.312082
0.388041
0.65695
0.522496
0.522496
0
0
0
0
0
0
0
0.819577
0.729936
0.988644
0.630095
0.954031
0.595482
0.85419
0.819578
0.729936
0.988645
0.630095
0.954032
0.595482
0.85419
0.412239
0.322613
0.222757
0.222757
0.26757
0.367426
0.367426
0.832449
0.953222
0.594672
0.742809
0.818768
0.966904
0.608354
0.832451
0.953223
0.594673
0.742809
0.818769
0.966905
0.608355
0
0
0
0
0
0.995368
0.816101
0
0
0
0
0.995369
0
0.816101
0.501873
0.591514
0.491658
0.31239
0.636327
0.357204
0.45706
0.501873
0.591514
0.491658
0.312391
0.636328
0.357204
0.45706
0.740151
0.750366
0.571084
0.471242
0.795179
0.516056
0.695338
0.740152
0.571084
0.750367
0.471243
0.79518
0.516056
0.695338
0
0
0
0
0.950842
0.950843
0.771574
0.329553
0.45034
0.45034
0.239926
0.495154
0.284739
0.28474
0.419187
0.719242
0.539974
0.508828
0.584787
0.553641
0.374373
0.419187
0.719243
0.539975
0.508829
0.584788
0.553642
0.374374
0.715459
0.536177
0.760272
0.567323
0.612136
0.836232
0.791418
0.536178
0.715461
0.760274
0.567324
0.612137
0.836233
0.79142
0.591507
0.860415
0.581292
0.581292
0.725961
0.725961
0.446838
0.508821
0.808876
0.808876
0.77773
0.674422
0.643275
0.643276
0.829785
0
0.660718
0.740144
0.884813
0.964239
0.605689
0.829785
0
0.660718
0.740144
0.884813
0.964239
0.60569
)
;

boundaryField
{
    inlet
    {
        type            calculated;
        value           uniform 0;
    }
    wall
    {
        type            calculated;
        value           uniform 0;
    }
    outlet
    {
        type            calculated;
        value           uniform 0;
    }
    procBoundary0to1
    {
        type            processor;
        value           uniform 0;
    }
    procBoundary0to2
    {
        type            processor;
        value           uniform 0;
    }
}


// ************************************************************************* //
