/*--------------------------------*- C++ -*----------------------------------*\
| =========                 |                                                 |
| \\      /  F ield         | OpenFOAM: The Open Source CFD Toolbox           |
|  \\    /   O peration     | Version:  5.x                                   |
|   \\  /    A nd           | Web:      www.OpenFOAM.org                      |
|    \\/     M anipulation  |                                                 |
\*---------------------------------------------------------------------------*/
FoamFile
{
    version     2.0;
    format      ascii;
    class       volVectorField;
    location    "0.039";
    object      U;
}
// * * * * * * * * * * * * * * * * * * * * * * * * * * * * * * * * * * * * * //

dimensions      [0 1 -1 0 0 0 0];

internalField   nonuniform List<vector> 
1553
(
(-4.50667e-06 -4.51645e-06 0.000538397)
(-4.1918e-06 -5.51513e-06 0.000538289)
(-2.93979e-06 -5.63999e-06 0.00054074)
(-3.11983e-06 -5.8909e-06 0.000538643)
(1.49119e-08 -5.94316e-06 0.000539292)
(-5.50535e-06 -4.20367e-06 0.000538284)
(-5.28709e-06 -5.29909e-06 0.000534993)
(-3.30511e-06 -5.48675e-06 0.00053708)
(-3.41647e-06 -5.79594e-06 0.000535095)
(-7.25107e-08 -5.87329e-06 0.000535782)
(-5.63034e-06 -2.95113e-06 0.000540738)
(-5.47488e-06 -3.3164e-06 0.000537082)
(-3.43672e-06 -3.44803e-06 0.000538744)
(-3.5064e-06 -3.58678e-06 0.000536678)
(-1.28719e-07 -3.64118e-06 0.000537314)
(-5.88107e-06 -3.13294e-06 0.000538638)
(-5.78392e-06 -3.42916e-06 0.000535095)
(-3.5755e-06 -3.51897e-06 0.000536675)
(-3.60962e-06 -3.62209e-06 0.000534757)
(-1.64345e-07 -3.66899e-06 0.000535427)
(-5.9331e-06 3.35392e-09 0.000539289)
(-5.86087e-06 -8.47341e-08 0.000535784)
(-3.62964e-06 -1.41278e-07 0.000537314)
(-3.65642e-06 -1.76868e-07 0.00053543)
(-2.00705e-07 -2.13285e-07 0.000536083)
(-4.8997e-06 -4.90406e-06 0.000241848)
(-6.26386e-06 -3.58779e-06 0.000240477)
(-4.07713e-06 -3.43216e-06 0.000239778)
(-3.42744e-06 -3.05381e-06 0.000239221)
(-1.29213e-06 -2.99293e-06 0.0002389)
(-3.58343e-06 -6.27194e-06 0.000240478)
(-4.8355e-06 -4.84339e-06 0.000239733)
(-3.55971e-06 -4.59402e-06 0.000239097)
(-3.00073e-06 -4.15078e-06 0.000238644)
(-1.11319e-06 -4.0499e-06 0.000238336)
(-3.42762e-06 -4.08617e-06 0.000239778)
(-4.58595e-06 -3.56862e-06 0.000239096)
(-3.38481e-06 -3.3938e-06 0.000238512)
(-2.88352e-06 -3.16687e-06 0.000238089)
(-1.02425e-06 -3.08728e-06 0.000237796)
(-3.04934e-06 -3.43771e-06 0.000239221)
(-4.14283e-06 -3.01118e-06 0.000238643)
(-3.15795e-06 -2.8941e-06 0.000238089)
(-2.69421e-06 -2.7048e-06 0.000237672)
(-9.20214e-07 -2.63841e-06 0.000237385)
(-2.98858e-06 -1.30322e-06 0.000238899)
(-4.04213e-06 -1.12384e-06 0.000238335)
(-3.07843e-06 -1.03478e-06 0.000237795)
(-2.62784e-06 -9.307e-07 0.000237384)
(-8.59533e-07 -8.70199e-07 0.000237104)
(-6.03894e-06 -6.04812e-06 0.000247194)
(-6.41117e-06 -6.37287e-06 0.000244456)
(-4.28417e-06 -6.42705e-06 0.000244799)
(-4.06721e-06 -6.5703e-06 0.000242683)
(-3.45467e-07 -6.60781e-06 0.000242792)
(-6.36369e-06 -6.42335e-06 0.000244452)
(-6.78209e-06 -6.79427e-06 0.0002408)
(-4.47735e-06 -6.86121e-06 0.000241038)
(-4.24453e-06 -7.03387e-06 0.000238721)
(-4.10415e-07 -7.08194e-06 0.000238805)
(-6.41785e-06 -4.29629e-06 0.000244796)
(-6.84903e-06 -4.48946e-06 0.000241039)
(-4.52379e-06 -4.53595e-06 0.0002412)
(-4.28797e-06 -4.63646e-06 0.000238836)
(-4.33675e-07 -4.67052e-06 0.000238893)
(-6.56111e-06 -4.0809e-06 0.000242677)
(-7.02173e-06 -4.25816e-06 0.000238719)
(-4.62435e-06 -4.30159e-06 0.000238833)
(-4.3791e-06 -4.39268e-06 0.000236411)
(-4.69067e-07 -4.42588e-06 0.000236455)
(-6.59855e-06 -3.58816e-07 0.000242786)
(-7.06969e-06 -4.23871e-07 0.000238802)
(-4.65831e-06 -4.47237e-07 0.00023889)
(-4.41226e-06 -4.82606e-07 0.000236455)
(-4.89623e-07 -5.03236e-07 0.000236484)
(-7.69428e-06 -7.70202e-06 0.000441699)
(-8.66069e-06 -7.32738e-06 0.000437439)
(-5.85125e-06 -7.28069e-06 0.000436826)
(-5.43506e-06 -7.10933e-06 0.000434221)
(-1.15078e-06 -7.07519e-06 0.000433869)
(-7.31963e-06 -8.67181e-06 0.000437437)
(-8.25138e-06 -8.26245e-06 0.00043329)
(-5.6396e-06 -8.19478e-06 0.000432685)
(-5.23533e-06 -7.99934e-06 0.000430103)
(-1.02528e-06 -7.95062e-06 0.000429757)
(-7.2729e-06 -5.86281e-06 0.000436823)
(-8.18367e-06 -5.65111e-06 0.000432684)
(-5.58824e-06 -5.59977e-06 0.000432084)
(-5.19099e-06 -5.4779e-06 0.000429507)
(-9.86991e-07 -5.43755e-06 0.000429165)
(-7.10154e-06 -5.44818e-06 0.000434217)
(-7.98824e-06 -5.24847e-06 0.0004301)
(-5.46639e-06 -5.20416e-06 0.000429505)
(-5.07311e-06 -5.08627e-06 0.000426927)
(-8.99696e-07 -5.04763e-06 0.000426588)
(-7.06741e-06 -1.16417e-06 0.000433864)
(-7.93956e-06 -1.03857e-06 0.000429754)
(-5.42605e-06 -1.00027e-06 0.000429162)
(-5.03446e-06 -9.12933e-07 0.000426587)
(-8.65603e-07 -8.78883e-07 0.000426252)
(-1.0408e-05 -1.04188e-05 0.00016975)
(-1.12854e-05 -1.06286e-05 0.000163464)
(-7.50229e-06 -1.06736e-05 0.00016295)
(-7.02394e-06 -1.07944e-05 0.000158964)
(-7.602e-07 -1.08251e-05 0.000158684)
(-1.06179e-05 -1.12998e-05 0.000163461)
(-1.15352e-05 -1.15496e-05 0.000156764)
(-7.6647e-06 -1.16031e-05 0.000156185)
(-7.17242e-06 -1.17487e-05 0.000152)
(-8.03175e-07 -1.17868e-05 0.000151687)
(-1.06629e-05 -7.51685e-06 0.000162945)
(-1.15887e-05 -7.67926e-06 0.000156184)
(-7.70137e-06 -7.71596e-06 0.000155584)
(-7.20765e-06 -7.81194e-06 0.000151361)
(-8.17155e-07 -7.83928e-06 0.000151037)
(-1.07837e-05 -7.04027e-06 0.000158956)
(-1.17343e-05 -7.18876e-06 0.000151996)
(-7.79738e-06 -7.22399e-06 0.000151358)
(-7.29575e-06 -7.31208e-06 0.000147024)
(-8.43277e-07 -7.33871e-06 0.000146678)
(-1.08143e-05 -7.76448e-07 0.000158676)
(-1.17724e-05 -8.19461e-07 0.000151681)
(-7.82469e-06 -8.33478e-07 0.000151033)
(-7.32236e-06 -8.59595e-07 0.000146677)
(-8.57078e-07 -8.73433e-07 0.000146324)
(-1.41357e-05 -1.41469e-05 0.000452803)
(-1.54623e-05 -1.41945e-05 0.000443711)
(-1.03518e-05 -1.42149e-05 0.000442656)
(-9.70037e-06 -1.42481e-05 0.000436992)
(-1.38467e-06 -1.42488e-05 0.000436393)
(-1.41832e-05 -1.54777e-05 0.000443707)
(-1.55286e-05 -1.5544e-05 0.000434462)
(-1.04045e-05 -1.5562e-05 0.000433373)
(-9.73388e-06 -1.56034e-05 0.000427606)
(-1.32885e-06 -1.55999e-05 0.00042699)
(-1.42036e-05 -1.03674e-05 0.000442651)
(-1.55467e-05 -1.04201e-05 0.000433372)
(-1.04112e-05 -1.04268e-05 0.000432279)
(-9.73826e-06 -1.04541e-05 0.000426488)
(-1.3122e-06 -1.04461e-05 0.00042587)
(-1.42368e-05 -9.71798e-06 0.000436984)
(-1.5588e-05 -9.75148e-06 0.000427602)
(-1.04385e-05 -9.75589e-06 0.000426485)
(-9.75315e-06 -9.77075e-06 0.00042062)
(-1.26566e-06 -9.76107e-06 0.00041999)
(-1.42375e-05 -1.40231e-06 0.000436383)
(-1.55846e-05 -1.34647e-06 0.000426984)
(-1.04304e-05 -1.32984e-06 0.000425865)
(-9.74344e-06 -1.28328e-06 0.000419988)
(-1.24723e-06 -1.26489e-06 0.000419358)
(-1.97357e-05 -1.97497e-05 0.000209376)
(-2.14347e-05 -2.01159e-05 0.00019659)
(-1.42207e-05 -2.01957e-05 0.000195187)
(-1.32871e-05 -2.04223e-05 0.000187212)
(-1.4389e-06 -2.047e-05 0.000186451)
(-2.01018e-05 -2.14536e-05 0.000196586)
(-2.18715e-05 -2.18903e-05 0.000183318)
(-1.45204e-05 -2.19817e-05 0.000181811)
(-1.35555e-05 -2.22551e-05 0.000173536)
(-1.49032e-06 -2.23119e-05 0.000172717)
(-2.01817e-05 -1.42398e-05 0.000195181)
(-2.19629e-05 -1.45395e-05 0.000181809)
(-1.45854e-05 -1.46045e-05 0.000180298)
(-1.36173e-05 -1.47985e-05 0.00017197)
(-1.50359e-06 -1.48395e-05 0.000171151)
(-2.04082e-05 -1.33085e-05 0.000187201)
(-2.22362e-05 -1.35769e-05 0.00017353)
(-1.47794e-05 -1.36387e-05 0.000171965)
(-1.37906e-05 -1.3812e-05 0.000163459)
(-1.53774e-06 -1.38503e-05 0.000162612)
(-2.0456e-05 -1.46011e-06 0.000186438)
(-2.22931e-05 -1.51161e-06 0.000172709)
(-1.48205e-05 -1.52491e-06 0.000171144)
(-1.38289e-05 -1.5591e-06 0.00016261)
(-1.54952e-06 -1.5709e-06 0.000161761)
(-2.72528e-05 -2.72688e-05 0.000401169)
(-2.96544e-05 -2.781e-05 0.000383091)
(-1.97307e-05 -2.79369e-05 0.000381002)
(-1.84361e-05 -2.8277e-05 0.000369731)
(-2.13969e-06 -2.83372e-05 0.000368561)
(-2.7794e-05 -2.96758e-05 0.000383086)
(-3.03074e-05 -3.03288e-05 0.000364459)
(-2.0187e-05 -3.04545e-05 0.000362245)
(-1.88271e-05 -3.08486e-05 0.000350616)
(-2.16691e-06 -3.09035e-05 0.000349377)
(-2.79209e-05 -1.97524e-05 0.000380995)
(-3.04331e-05 -2.02087e-05 0.000362243)
(-2.02504e-05 -2.0272e-05 0.000360013)
(-1.8885e-05 -2.05306e-05 0.000348278)
(-2.15579e-06 -2.05518e-05 0.000347019)
(-2.82611e-05 -1.84604e-05 0.000369718)
(-3.08272e-05 -1.88514e-05 0.000350609)
(-2.0509e-05 -1.89093e-05 0.000348273)
(-1.91069e-05 -1.91312e-05 0.000336232)
(-2.15538e-06 -1.9151e-05 0.000334914)
(-2.83212e-05 -2.16386e-06 0.000368545)
(-3.08821e-05 -2.1911e-06 0.000349367)
(-2.05301e-05 -2.18001e-06 0.000347011)
(-1.91266e-05 -2.17959e-06 0.000334911)
(-2.14242e-06 -2.16668e-06 0.000333582)
(-3.82951e-05 -3.83145e-05 0.000281503)
(-4.16066e-05 -3.92425e-05 0.000256225)
(-2.75808e-05 -3.94498e-05 0.000253184)
(-2.57283e-05 -4.00412e-05 0.000237425)
(-2.70935e-06 -4.016e-05 0.000235762)
(-3.92231e-05 -4.16328e-05 0.000256218)
(-4.27166e-05 -4.27427e-05 0.000229824)
(-2.83626e-05 -4.29756e-05 0.000226529)
(-2.64237e-05 -4.37123e-05 0.000210062)
(-2.82904e-06 -4.38584e-05 0.000208254)
(-3.94304e-05 -2.76072e-05 0.000253175)
(-4.29495e-05 -2.83889e-05 0.000226526)
(-2.85502e-05 -2.85766e-05 0.000223273)
(-2.66108e-05 -2.91827e-05 0.000206716)
(-2.86129e-06 -2.93029e-05 0.00020495)
(-4.00218e-05 -2.57577e-05 0.000237409)
(-4.36862e-05 -2.64532e-05 0.000210053)
(-2.91564e-05 -2.66404e-05 0.000206709)
(-2.71499e-05 -2.71795e-05 0.000189817)
(-2.95643e-06 -2.72871e-05 0.000188003)
(-4.01406e-05 -2.73836e-06 0.000235743)
(-4.38323e-05 -2.85822e-06 0.000208242)
(-2.92766e-05 -2.89054e-06 0.00020494)
(-2.72575e-05 -2.98578e-06 0.000187999)
(-2.97715e-06 -3.00654e-06 0.000186201)
(-5.32056e-05 -5.32282e-05 0.000346771)
(-5.79801e-05 -5.49106e-05 0.000311592)
(-3.85308e-05 -5.52981e-05 0.000307306)
(-3.58577e-05 -5.63619e-05 0.000285377)
(-3.85804e-06 -5.65707e-05 0.000282959)
(-5.48879e-05 -5.80106e-05 0.000311584)
(-6.00042e-05 -6.00347e-05 0.000274854)
(-3.99495e-05 -6.03726e-05 0.000270229)
(-3.71017e-05 -6.1565e-05 0.000247318)
(-4.04521e-06 -6.17229e-05 0.000244726)
(-5.52755e-05 -3.85614e-05 0.000307294)
(-6.03421e-05 -3.998e-05 0.000270225)
(-4.00608e-05 -4.00914e-05 0.000265541)
(-3.72076e-05 -4.07757e-05 0.000242288)
(-3.99376e-06 -4.08035e-05 0.000239571)
(-5.63393e-05 -3.58919e-05 0.000285357)
(-6.15345e-05 -3.71359e-05 0.000247308)
(-4.07451e-05 -3.72419e-05 0.00024228)
(-3.78138e-05 -3.78479e-05 0.000217773)
(-4.05368e-06 -3.79001e-05 0.000214855)
(-5.6548e-05 -3.89178e-06 0.000282935)
(-6.16924e-05 -4.07902e-06 0.000244711)
(-4.07728e-05 -4.02757e-06 0.000239558)
(-3.78659e-05 -4.08749e-06 0.00021485)
(-4.02679e-06 -4.06072e-06 0.000211896)
(-7.44443e-05 -7.4472e-05 0.000357621)
(-8.10823e-05 -7.69839e-05 0.000308104)
(-5.37967e-05 -7.75386e-05 0.000301499)
(-5.00748e-05 -7.91314e-05 0.000270678)
(-5.26788e-06 -7.94293e-05 0.000267083)
(-7.69563e-05 -8.11199e-05 0.000308094)
(-8.40825e-05 -8.41199e-05 0.000255579)
(-5.58983e-05 -8.4751e-05 0.00024831)
(-5.19261e-05 -8.6811e-05 0.000215517)
(-5.56658e-06 -8.72575e-05 0.000211463)
(-7.75108e-05 -5.3834e-05 0.000301485)
(-8.47134e-05 -5.59356e-05 0.000248306)
(-5.64873e-05 -5.65248e-05 0.00024121)
(-5.25809e-05 -5.87286e-05 0.000208319)
(-5.72815e-06 -5.9174e-05 0.000204577)
(-7.91037e-05 -5.01167e-05 0.000270655)
(-8.67738e-05 -5.1968e-05 0.000215503)
(-5.86913e-05 -5.26233e-05 0.00020831)
(-5.45753e-05 -5.46175e-05 0.000175571)
(-6.02915e-06 -5.49616e-05 0.000171981)
(-7.94016e-05 -5.30868e-06 0.000267055)
(-8.72204e-05 -5.60764e-06 0.000211445)
(-5.91367e-05 -5.76965e-06 0.000204563)
(-5.49192e-05 -6.07074e-06 0.000171976)
(-6.08867e-06 -6.13041e-06 0.000168573)
(-0.000104076 -0.000104109 0.000306198)
(-0.000114116 -0.000108853 0.000238331)
(-7.59563e-05 -0.000109922 0.000229307)
(-7.02732e-05 -0.000112999 0.000187076)
(-7.58673e-06 -0.000113676 0.00018201)
(-0.00010882 -0.000114161 0.000238318)
(-0.000119803 -0.000119847 0.000166165)
(-8.00119e-05 -0.000120676 0.000156117)
(-7.39482e-05 -0.000123939 0.000111443)
(-8.24047e-06 -0.000124244 0.000106057)
(-0.00010989 -7.6e-05 0.00022929)
(-0.000120632 -8.00558e-05 0.000156112)
(-8.00477e-05 -8.00913e-05 0.000146381)
(-7.38408e-05 -8.07213e-05 0.000101507)
(-7.8738e-06 -8.02857e-05 9.57433e-05)
(-0.000112966 -7.03218e-05 0.000187047)
(-0.000123895 -7.39971e-05 0.000111427)
(-8.06774e-05 -7.38889e-05 0.000101495)
(-7.41426e-05 -7.41908e-05 5.09409e-05)
(-7.78532e-06 -7.39042e-05 4.46299e-05)
(-0.000113644 -7.63409e-06 0.000181974)
(-0.0001242 -8.28812e-06 0.000106035)
(-8.02413e-05 -7.92085e-06 9.57235e-05)
(-7.38561e-05 -7.83245e-06 4.46235e-05)
(-7.57236e-06 -7.61965e-06 3.82041e-05)
(-0.000144247 -0.000144287 0.00044374)
(-0.000157993 -0.000151173 0.000347085)
(-0.000105052 -0.000152776 0.000332303)
(-9.73723e-05 -0.000156864 0.0002706)
(-1.05437e-05 -0.000157497 0.000261969)
(-0.000151132 -0.000158048 0.00034707)
(-0.000166306 -0.00016636 0.000242495)
(-0.00011062 -0.000167699 0.000226409)
(-0.000101987 -0.000172403 0.000159957)
(-1.11691e-05 -0.000173547 0.000150153)
(-0.000152735 -0.000105106 0.000332283)
(-0.000167644 -0.000110673 0.000226403)
(-0.000111093 -0.000111147 0.000210229)
(-0.000103219 -0.000119231 0.000140429)
(-1.17253e-05 -0.000120601 0.000130585)
(-0.000156823 -9.74331e-05 0.000270565)
(-0.000172349 -0.000102046 0.000159936)
(-0.000119178 -0.000103281 0.000140414)
(-0.00011144 -0.000111501 7.07012e-05)
(-1.25846e-05 -0.000112501 5.97791e-05)
(-0.000157455 -1.06023e-05 0.000261926)
(-0.000173494 -1.12274e-05 0.000150124)
(-0.000120548 -1.17862e-05 0.000130562)
(-0.000112439 -1.26445e-05 5.97713e-05)
(-1.27686e-05 -1.28293e-05 4.85212e-05)
(-0.000203424 -0.000203472 0.000283606)
(-0.000225582 -0.000216299 0.000154032)
(-0.00015244 -0.000218728 0.000131976)
(-0.000140607 -0.000226668 5.02252e-05)
(-1.64721e-05 -0.000228553 3.8744e-05)
(-0.000216252 -0.000225647 0.000154013)
(-0.000240494 -0.000240558 1.34963e-05)
(-0.000162548 -0.000242779 -1.16518e-05)
(-0.000150203 -0.000254141 -9.94239e-05)
(-1.83022e-05 -0.000255659 -0.000113234)
(-0.00021868 -0.000152504 0.00013195)
(-0.000242715 -0.000162613 -1.1659e-05)
(-0.00016602 -0.000166085 -3.84204e-05)
(-0.000153485 -0.000169976 -0.000127389)
(-1.7976e-05 -0.000170658 -0.000141901)
(-0.000226621 -0.000140678 5.01831e-05)
(-0.000254077 -0.000150276 -9.94482e-05)
(-0.000169911 -0.000153555 -0.000127407)
(-0.000154776 -0.000154848 -0.00021591)
(-1.89743e-05 -0.000155967 -0.000231563)
(-0.000228507 -1.65392e-05 3.86928e-05)
(-0.000255595 -1.83711e-05 -0.000113268)
(-0.000170592 -1.80431e-05 -0.000141928)
(-0.000155896 -1.9043e-05 -0.000231572)
(-1.90941e-05 -1.91631e-05 -0.000247953)
(-0.000277633 -0.000277693 0.000568261)
(-0.000309664 -0.000295763 0.000383934)
(-0.00020886 -0.000300536 0.00034973)
(-0.000190606 -0.000310799 0.000230571)
(-2.23259e-05 -0.000313805 0.000209739)
(-0.000295703 -0.000309746 0.00038391)
(-0.000332018 -0.000332098 0.000180139)
(-0.000223541 -0.000338144 0.00013962)
(-0.000203571 -0.000350068 1.13301e-05)
(-2.53018e-05 -0.000354244 -1.20945e-05)
(-0.000300475 -0.000208937 0.000349698)
(-0.000338063 -0.000223619 0.000139612)
(-0.000226825 -0.000226904 9.58453e-05)
(-0.000206702 -0.000235719 -3.55049e-05)
(-2.65612e-05 -0.000238931 -6.13577e-05)
(-0.00031074 -0.000190692 0.000230514)
(-0.00034999 -0.000203658 1.13012e-05)
(-0.000235642 -0.000206791 -3.55268e-05)
(-0.000215598 -0.000215685 -0.000176212)
(-2.85723e-05 -0.000218556 -0.000204717)
(-0.000313746 -2.24081e-05 0.000209666)
(-0.000354166 -2.53856e-05 -1.21358e-05)
(-0.000238853 -2.66464e-05 -6.13929e-05)
(-0.000218467 -2.86567e-05 -0.000204729)
(-2.94944e-05 -2.95801e-05 -0.000234559)
(-0.000393055 -0.000393126 0.00031238)
(-0.000444172 -0.000425868 5.57974e-05)
(-0.000305799 -0.000434795 6.14726e-06)
(-0.000280596 -0.000452194 -0.000158697)
(-3.77217e-05 -0.000456775 -0.000188532)
(-0.000425797 -0.00044427 5.5767e-05)
(-0.000484843 -0.00048494 -0.000213931)
(-0.000331352 -0.000496725 -0.000271412)
(-0.000301915 -0.000520281 -0.000443121)
(-4.21262e-05 -0.000526821 -0.000478402)
(-0.000434723 -0.000305896 6.10551e-06)
(-0.000496628 -0.000331446 -0.000271422)
(-0.000341131 -0.000341226 -0.000334877)
(-0.000310685 -0.000357514 -0.000513808)
(-4.42651e-05 -0.000363277 -0.000552973)
(-0.000452119 -0.000280707 -0.000158764)
(-0.000520183 -0.00030202 -0.000443159)
(-0.00035742 -0.000310791 -0.000513837)
(-0.000323964 -0.000324068 -0.000699551)
(-4.78867e-05 -0.000329165 -0.00074262)
(-0.000456697 -3.78222e-05 -0.000188617)
(-0.000526719 -4.22247e-05 -0.000478455)
(-0.000363181 -4.43644e-05 -0.000553016)
(-0.00032906 -4.79859e-05 -0.000742632)
(-4.937e-05 -4.94709e-05 -0.000788376)
(-0.000541791 -0.000541881 0.000796422)
(-0.000615981 -0.000573621 0.000434409)
(-0.000423356 -0.000586475 0.000355761)
(-0.000385292 -0.000604031 0.000118178)
(-5.26324e-05 -0.000612652 7.14943e-05)
(-0.000573531 -0.000616104 0.00043438)
(-0.0006593 -0.000659421 3.71203e-05)
(-0.000452734 -0.000679278 -6.32503e-05)
(-0.000410567 -0.000705293 -0.000320201)
(-6.11063e-05 -0.000718801 -0.000380762)
(-0.000586382 -0.000423469 0.000355717)
(-0.000679154 -0.00045285 -6.32627e-05)
(-0.000469215 -0.000469333 -0.000174139)
(-0.000424804 -0.000492149 -0.000444836)
(-6.62659e-05 -0.000503149 -0.000513116)
(-0.000603942 -0.000385421 0.00011811)
(-0.000705177 -0.000410697 -0.000320241)
(-0.000492034 -0.000424936 -0.000444865)
(-0.000444386 -0.000444515 -0.000729169)
(-7.22151e-05 -0.000453965 -0.000807466)
(-0.000612559 -5.27534e-05 7.14057e-05)
(-0.000718681 -6.12274e-05 -0.000380821)
(-0.00050303 -6.63888e-05 -0.000513165)
(-0.000453833 -7.23369e-05 -0.000807482)
(-7.5838e-05 -7.59625e-05 -0.000891665)
(-0.000765393 -0.000765494 0.000429501)
(-0.000884955 -0.000834795 -4.89458e-05)
(-0.000622013 -0.00086603 -0.000175981)
(-0.000564853 -0.000903545 -0.000474782)
(-8.51688e-05 -0.00092235 -0.000551747)
(-0.000834694 -0.000885095 -4.89952e-05)
(-0.000982592 -0.000982729 -0.00057247)
(-0.000688654 -0.00102675 -0.000725565)
(-0.000619414 -0.00108342 -0.00106468)
(-0.000103388 -0.00111156 -0.00116083)
(-0.000865926 -0.00062215 -0.000176057)
(-0.00102661 -0.000688788 -0.000725582)
(-0.000722687 -0.000722824 -0.000900035)
(-0.000649652 -0.000766465 -0.00126038)
(-0.000113283 -0.000789966 -0.00137224)
(-0.000903441 -0.000565009 -0.000474896)
(-0.00108329 -0.000619566 -0.00106474)
(-0.000766331 -0.000649807 -0.00126042)
(-0.000686567 -0.000686717 -0.00164806)
(-0.00012684 -0.00070772 -0.00177542)
(-0.000922242 -8.53103e-05 -0.000551892)
(-0.00111142 -0.000103528 -0.00116092)
(-0.000789828 -0.000113426 -0.00137231)
(-0.000707566 -0.000126982 -0.00177544)
(-0.000134273 -0.000134419 -0.00191546)
(-0.00103493 -0.00103507 0.00123505)
(-0.00122163 -0.00111339 0.00054212)
(-0.000849197 -0.00115314 0.000352842)
(-0.00076108 -0.00121228 -0.000106192)
(-0.00013036 -0.00124066 -0.000227155)
(-0.00111325 -0.00122183 0.00054208)
(-0.00133609 -0.00133628 -0.000226731)
(-0.000944942 -0.00140357 -0.000484626)
(-0.000845849 -0.00149114 -0.000990883)
(-0.000158143 -0.00153956 -0.00116023)
(-0.00115299 -0.000849375 0.000352774)
(-0.00140337 -0.000945118 -0.000484647)
(-0.00100401 -0.00100419 -0.000784031)
(-0.000897027 -0.00107552 -0.00134238)
(-0.000179049 -0.00111773 -0.00154745)
(-0.00121213 -0.000761279 -0.000106292)
(-0.00149096 -0.000846046 -0.000990941)
(-0.00107535 -0.000897231 -0.00134242)
(-0.000959393 -0.000959588 -0.00194088)
(-0.000200605 -0.000997193 -0.00218886)
(-0.00124051 -0.000130537 -0.000227296)
(-0.00153936 -0.00015832 -0.00116032)
(-0.00111755 -0.000179229 -0.00154752)
(-0.000996989 -0.000200783 -0.00218889)
(-0.000216944 -0.000217128 -0.0024697)
(-0.0014782 -0.00147834 0.00077281)
(-0.00176742 -0.00162659 -9.15143e-05)
(-0.00127026 -0.00172829 -0.000392086)
(-0.00114482 -0.00181496 -0.000954927)
(-0.000207379 -0.00188342 -0.00115199)
(-0.00162645 -0.00176763 -9.15945e-05)
(-0.00200953 -0.00200973 -0.00108896)
(-0.00145275 -0.00216387 -0.00148045)
(-0.00129501 -0.00231993 -0.00214552)
(-0.000273852 -0.0024322 -0.00241181)
(-0.00172814 -0.00127046 -0.000392202)
(-0.00216366 -0.00145294 -0.00148048)
(-0.00158037 -0.00158057 -0.00195546)
(-0.00141308 -0.00171643 -0.00269706)
(-0.000319558 -0.00181857 -0.00303128)
(-0.00181481 -0.00114505 -0.000955101)
(-0.00231973 -0.00129523 -0.00214561)
(-0.00171623 -0.00141331 -0.00269713)
(-0.00153302 -0.00153325 -0.00351364)
(-0.000375907 -0.00163 -0.00390822)
(-0.00188326 -0.000207585 -0.00115223)
(-0.00243199 -0.000274054 -0.00241195)
(-0.00181837 -0.000319768 -0.0030314)
(-0.00162977 -0.000376112 -0.00390826)
(-0.000416295 -0.000416509 -0.00436311)
(-0.00192688 -0.0019271 0.00213599)
(-0.00238685 -0.00214309 0.000849915)
(-0.00171262 -0.00227642 0.000384293)
(-0.00152106 -0.00244121 -0.000486015)
(-0.000328423 -0.00254092 -0.000808169)
(-0.00214286 -0.00238716 0.000849861)
(-0.0027254 -0.0027257 -0.000605253)
(-0.00200147 -0.00296747 -0.00129047)
(-0.00177724 -0.0032338 -0.00229576)
(-0.000425976 -0.0034194 -0.00280592)
(-0.00227618 -0.00171289 0.0003842)
(-0.00296715 -0.00200174 -0.00129051)
(-0.00222058 -0.00222086 -0.00215346)
(-0.00197288 -0.0024436 -0.00335756)
(-0.000514886 -0.00261411 -0.00403646)
(-0.00244098 -0.00152138 -0.000486153)
(-0.00323352 -0.00177755 -0.00229584)
(-0.00244333 -0.0019732 -0.00335761)
(-0.00217052 -0.00217082 -0.00466726)
(-0.000597188 -0.00232907 -0.00553687)
(-0.00254067 -0.000328675 -0.000808384)
(-0.00341908 -0.000426231 -0.00280607)
(-0.00261383 -0.000515148 -0.00403658)
(-0.00232875 -0.000597447 -0.00553693)
(-0.000673941 -0.000674211 -0.006611)
(-0.00280192 -0.00280211 0.00172457)
(-0.0035197 -0.00312637 0.000240594)
(-0.00260602 -0.00345378 -0.000455149)
(-0.00233719 -0.00368041 -0.00147072)
(-0.000531325 -0.00394181 -0.00197573)
(-0.00312617 -0.00352001 0.000240474)
(-0.00415039 -0.00415068 -0.00156919)
(-0.0031431 -0.00470224 -0.00255107)
(-0.00281045 -0.00519222 -0.0038256)
(-0.000785803 -0.00566135 -0.00457126)
(-0.00345357 -0.0026063 -0.00045536)
(-0.00470194 -0.00314338 -0.00255112)
(-0.00364728 -0.00364756 -0.00383441)
(-0.0032961 -0.00408781 -0.00536516)
(-0.00100018 -0.0045494 -0.0064033)
(-0.00368021 -0.00233754 -0.00147099)
(-0.00519194 -0.00281079 -0.00382574)
(-0.00408753 -0.00329645 -0.00536526)
(-0.00371231 -0.00371264 -0.00712407)
(-0.00124707 -0.00420459 -0.00843429)
(-0.00394159 -0.000531624 -0.00197615)
(-0.00566105 -0.000786101 -0.00457149)
(-0.00454911 -0.0010005 -0.0064035)
(-0.00420424 -0.00124737 -0.00843435)
(-0.00149182 -0.00149214 -0.0100404)
(-0.00346039 -0.00346074 0.00402099)
(-0.00456698 -0.00401485 0.00179868)
(-0.00342388 -0.00444309 0.000709056)
(-0.00304182 -0.00487582 -0.000920076)
(-0.000835236 -0.00522369 -0.00180522)
(-0.00401451 -0.00456751 0.00179862)
(-0.0055178 -0.00551828 -0.00083216)
(-0.00425776 -0.00634783 -0.00260511)
(-0.00379749 -0.00712945 -0.00455197)
(-0.00117462 -0.00784833 -0.00610859)
(-0.00444269 -0.0034243 0.000708887)
(-0.0063473 -0.00425816 -0.0026052)
(-0.00503457 -0.005035 -0.00505126)
(-0.00454192 -0.00574207 -0.00771881)
(-0.00155636 -0.0064773 -0.0101021)
(-0.00487547 -0.00304234 -0.00092027)
(-0.00712899 -0.00379797 -0.00455211)
(-0.00574167 -0.00454244 -0.00771885)
(-0.00523976 -0.00524022 -0.0106989)
(-0.0019121 -0.00596656 -0.0139736)
(-0.00522324 -0.000835607 -0.00180559)
(-0.0078478 -0.00117499 -0.00610887)
(-0.00647685 -0.00155674 -0.0101023)
(-0.00596604 -0.00191247 -0.0139738)
(-0.00228558 -0.00228597 -0.0186385)
(-0.00509273 -0.00509299 0.00414597)
(-0.006833 -0.00583983 0.00180651)
(-0.00532451 -0.00687055 0.000319128)
(-0.00485136 -0.0074272 -0.00142332)
(-0.00141913 -0.00837846 -0.00266354)
(-0.00583956 -0.00683347 0.00180634)
(-0.00855511 -0.00855556 -0.0011872)
(-0.00686257 -0.0104639 -0.00348488)
(-0.00631377 -0.0119924 -0.00586987)
(-0.002345 -0.0139601 -0.00799226)
(-0.00687027 -0.00532492 0.000318759)
(-0.0104634 -0.00686298 -0.00348499)
(-0.00876061 -0.00876103 -0.00684725)
(-0.00834693 -0.0102347 -0.0101628)
(-0.00338511 -0.0124147 -0.0135246)
(-0.00742693 -0.00485191 -0.00142371)
(-0.0119919 -0.0063143 -0.00587008)
(-0.0102343 -0.0083475 -0.0101629)
(-0.00996703 -0.00996757 -0.0142124)
(-0.00452373 -0.0127411 -0.0190165)
(-0.00837815 -0.00141961 -0.00266426)
(-0.0139597 -0.00234546 -0.00799263)
(-0.0124143 -0.00338563 -0.0135249)
(-0.0127406 -0.00452422 -0.0190166)
(-0.00615588 -0.00615644 -0.025302)
(-0.00588305 -0.00588358 0.00802094)
(-0.00839393 -0.00711844 0.00466923)
(-0.0066532 -0.00838513 0.00242981)
(-0.00602466 -0.00948349 -0.000344713)
(-0.00207857 -0.0107399 -0.00264256)
(-0.00711791 -0.00839483 0.00466914)
(-0.0108103 -0.010811 0.000626801)
(-0.0089403 -0.0135163 -0.0035442)
(-0.00830478 -0.0158714 -0.00703995)
(-0.00330361 -0.0187119 -0.0116013)
(-0.00838445 -0.00665384 0.00242951)
(-0.0135154 -0.00894092 -0.00354441)
(-0.0117127 -0.0117133 -0.0099727)
(-0.0112193 -0.0140854 -0.0159508)
(-0.00492699 -0.017504 -0.0243921)
(-0.00948293 -0.00602553 -0.000345029)
(-0.0158706 -0.00830552 -0.00704018)
(-0.0140848 -0.0112202 -0.0159508)
(-0.014093 -0.0140937 -0.0229319)
(-0.00673238 -0.0177438 -0.0358103)
(-0.0107391 -0.0020791 -0.00264327)
(-0.018711 -0.00330413 -0.0116018)
(-0.0175033 -0.0049275 -0.0243925)
(-0.0177429 -0.00673288 -0.0358108)
(-0.00859938 -0.00859987 -0.058784)
(-0.00855577 -0.00855612 0.00977335)
(-0.012427 -0.0100198 0.00670917)
(-0.0103386 -0.0130397 0.00404167)
(-0.00992387 -0.0143487 0.0013336)
(-0.00371965 -0.0176317 -0.00144369)
(-0.0100194 -0.0124278 0.00670891)
(-0.01677 -0.0167708 0.00252465)
(-0.0145294 -0.0228688 -0.00208418)
(-0.0143705 -0.0276002 -0.00623863)
(-0.00691146 -0.0357132 -0.012121)
(-0.0130393 -0.0103392 0.00404102)
(-0.0228681 -0.0145301 -0.00208436)
(-0.0211681 -0.0211687 -0.0100096)
(-0.0227654 -0.0261299 -0.0174016)
(-0.011828 -0.0366316 -0.0284876)
(-0.0143483 -0.00992483 0.00133303)
(-0.0275995 -0.0143714 -0.00623894)
(-0.0261292 -0.0227665 -0.0174017)
(-0.029823 -0.0298241 -0.0272179)
(-0.0174144 -0.0471329 -0.0470157)
(-0.0176312 -0.00372046 -0.00144495)
(-0.0357125 -0.00691224 -0.0121215)
(-0.0366312 -0.011829 -0.028488)
(-0.0471319 -0.0174153 -0.0470159)
(-0.0291451 -0.0291463 -0.0745835)
(-0.00906667 -0.00906747 0.0162193)
(-0.0141243 -0.0114706 0.0128599)
(-0.0120266 -0.0147503 0.00949578)
(-0.0115085 -0.0173594 0.00587245)
(-0.00486256 -0.0218115 0.00136448)
(-0.0114698 -0.0141259 0.0128597)
(-0.0196035 -0.0196046 0.00831275)
(-0.0177044 -0.0275685 0.00125512)
(-0.0183383 -0.0346063 -0.00410095)
(-0.00920265 -0.0457492 -0.0152186)
(-0.0147491 -0.0120276 0.00949517)
(-0.0275669 -0.0177053 0.00125477)
(-0.027032 -0.0270329 -0.0121573)
(-0.0296858 -0.0350731 -0.0247129)
(-0.016048 -0.0524071 -0.0513236)
(-0.0173585 -0.01151 0.00587186)
(-0.0346051 -0.0183394 -0.0041013)
(-0.0350722 -0.0296871 -0.0247127)
(-0.043675 -0.043676 -0.0413459)
(-0.0266554 -0.06368 -0.0917747)
(-0.02181 -0.00486333 0.00136294)
(-0.0457474 -0.00920331 -0.0152195)
(-0.0524061 -0.0160486 -0.0513252)
(-0.0636787 -0.0266558 -0.0917767)
(-0.0365253 -0.0365257 -0.218941)
(-0.0120499 -0.0120504 0.02108)
(-0.0191541 -0.0147465 0.0187667)
(-0.0173279 -0.0215911 0.0161262)
(-0.0180564 -0.0247023 0.0130729)
(-0.00823887 -0.0348376 0.00841858)
(-0.014746 -0.0191555 0.0187662)
(-0.0283788 -0.02838 0.0157618)
(-0.0269503 -0.0445266 0.00968983)
(-0.030842 -0.0581878 0.00488514)
(-0.018062 -0.0884068 -0.00806153)
(-0.0215904 -0.017329 0.0161251)
(-0.0445252 -0.0269513 0.00968966)
(-0.0471496 -0.0471503 -0.00327678)
(-0.0619104 -0.063387 -0.0174946)
(-0.0385454 -0.113291 -0.0527076)
(-0.0247017 -0.0180583 0.0130719)
(-0.0581862 -0.0308435 0.00488468)
(-0.063386 -0.0619131 -0.0174949)
(-0.0968412 -0.096844 -0.039006)
(-0.0682924 -0.215345 -0.130924)
(-0.0348365 -0.00824032 0.00841632)
(-0.0884062 -0.0180633 -0.00806193)
(-0.113292 -0.0385476 -0.0527077)
(-0.215342 -0.0682949 -0.130923)
(-0.158371 -0.158374 -0.265698)
(-0.0114946 -0.0114958 0.0305586)
(-0.0190792 -0.0146495 0.0310621)
(-0.0177211 -0.0214946 0.030529)
(-0.0192083 -0.0259798 0.0295617)
(-0.00953008 -0.0389766 0.0268319)
(-0.0146483 -0.0190819 0.0310616)
(-0.0286746 -0.0286764 0.0306251)
(-0.0285798 -0.0469581 0.0273017)
(-0.0360478 -0.0651439 0.0234424)
(-0.022211 -0.106721 0.0135422)
(-0.0214924 -0.0177226 0.0305277)
(-0.0469554 -0.0285812 0.0273014)
(-0.0542148 -0.0542162 0.0183305)
(-0.078933 -0.0788343 0.00355402)
(-0.0515606 -0.174987 -0.0330031)
(-0.0259785 -0.0192109 0.0295605)
(-0.065142 -0.0360491 0.023442)
(-0.078833 -0.0789344 0.00355492)
(-0.157221 -0.157222 -0.0326409)
(-0.1256 -0.388001 -0.209101)
(-0.0389731 -0.00953135 0.0268282)
(-0.106717 -0.0222118 0.0135428)
(-0.174985 -0.0515607 -0.0330104)
(-0.387991 -0.125598 -0.209109)
(-0.187527 -0.187526 -0.568576)
(-0.0115682 -0.0115693 0.0379239)
(-0.0191829 -0.0152611 0.0405219)
(-0.0188304 -0.0250528 0.044311)
(-0.0217478 -0.0311604 0.0467116)
(-0.0110261 -0.0489319 0.0515705)
(-0.0152601 -0.0191856 0.0405212)
(-0.0321314 -0.0321334 0.0457122)
(-0.0341317 -0.0567097 0.0517842)
(-0.0445169 -0.0841127 0.0565594)
(-0.0281562 -0.146388 0.0711104)
(-0.025051 -0.0188321 0.0443094)
(-0.0567069 -0.0341331 0.0517844)
(-0.0708906 -0.0708907 0.0635809)
(-0.11223 -0.11681 0.0735969)
(-0.0766499 -0.234196 0.101642)
(-0.031159 -0.0217521 0.04671)
(-0.0841091 -0.0445176 0.0565586)
(-0.116808 -0.11224 0.0735957)
(-0.24724 -0.247253 0.0765679)
(-0.218481 -0.526692 0.0213535)
(-0.0489264 -0.0110288 0.0515662)
(-0.146391 -0.0281577 0.0711118)
(-0.234186 -0.0766549 0.101636)
(-0.526709 -0.218481 0.021352)
(-0.843798 -0.84373 -0.417431)
(-0.0088414 -0.00884336 0.0452715)
(-0.0127005 -0.00940196 0.0537721)
(-0.0115561 -0.0140255 0.0628365)
(-0.0119983 -0.0161981 0.0727267)
(-0.00475088 -0.019455 0.0872402)
(-0.00939999 -0.0127047 0.0537711)
(-0.0174434 -0.0174457 0.0652506)
(-0.0177894 -0.0276842 0.0825286)
(-0.0167948 -0.0373339 0.0978983)
(-0.00778461 -0.0513001 0.12464)
(-0.0140215 -0.0115586 0.0628348)