/*--------------------------------*- C++ -*----------------------------------*\
| =========                 |                                                 |
| \\      /  F ield         | OpenFOAM: The Open Source CFD Toolbox           |
|  \\    /   O peration     | Version:  5.x                                   |
|   \\  /    A nd           | Web:      www.OpenFOAM.org                      |
|    \\/     M anipulation  |                                                 |
\*---------------------------------------------------------------------------*/
FoamFile
{
    version     2.0;
    format      ascii;
    class       volScalarField;
    location    "0.12";
    object      p;
}
// * * * * * * * * * * * * * * * * * * * * * * * * * * * * * * * * * * * * * //

dimensions      [0 2 -2 0 0 0 0];

internalField   nonuniform List<scalar> 
160
(
-3.50537e-06
-3.58864e-06
-3.57864e-06
-3.3475e-06
-3.5165e-06
-3.55985e-06
-3.536e-06
-3.45559e-06
-3.63708e-06
-3.65324e-06
-3.6575e-06
-3.57467e-06
-3.63203e-06
-3.64318e-06
-3.63519e-06
-3.61913e-06
-3.67556e-06
-3.68718e-06
-3.68902e-06
-3.66781e-06
-3.67712e-06
-3.68609e-06
-3.68587e-06
-3.68446e-06
-3.69463e-06
-3.70304e-06
-3.70427e-06
-3.70378e-06
-3.69795e-06
-3.70547e-06
-3.70664e-06
-3.70974e-06
-3.70461e-06
-3.71122e-06
-3.71276e-06
-3.71666e-06
-3.70751e-06
-3.71299e-06
-3.71439e-06
-3.71839e-06
-3.58864e-06
-4.42952e-06
-4.05995e-06
-4.07923e-06
-3.55985e-06
-4.1503e-06
-3.92242e-06
-3.9834e-06
-3.65324e-06
-3.99075e-06
-3.89226e-06
-3.92712e-06
-3.64318e-06
-3.84266e-06
-3.79094e-06
-3.84467e-06
-3.68718e-06
-3.81426e-06
-3.78136e-06
-3.81737e-06
-3.68609e-06
-3.75779e-06
-3.74627e-06
-3.77741e-06
-3.70304e-06
-3.74725e-06
-3.74283e-06
-3.76368e-06
-3.70547e-06
-3.73202e-06
-3.73172e-06
-3.74755e-06
-3.71122e-06
-3.72898e-06
-3.73051e-06
-3.74196e-06
-3.71299e-06
-3.72425e-06
-3.72628e-06
-3.73454e-06
-3.57864e-06
-4.05995e-06
-3.95062e-06
-3.92266e-06
-3.536e-06
-3.92242e-06
-3.79834e-06
-3.84315e-06
-3.6575e-06
-3.89226e-06
-3.85494e-06
-3.84545e-06
-3.63519e-06
-3.79094e-06
-3.76077e-06
-3.80506e-06
-3.68902e-06
-3.78136e-06
-3.76921e-06
-3.7919e-06
-3.68587e-06
-3.74627e-06
-3.74029e-06
-3.76929e-06
-3.70427e-06
-3.74283e-06
-3.74122e-06
-3.76051e-06
-3.70664e-06
-3.73172e-06
-3.73226e-06
-3.74892e-06
-3.71276e-06
-3.73051e-06
-3.73244e-06
-3.74473e-06
-3.71439e-06
-3.72628e-06
-3.72859e-06
-3.73773e-06
-3.3475e-06
-4.07923e-06
-3.92266e-06
-4.00252e-06
-3.45559e-06
-3.9834e-06
-3.84315e-06
-4.01223e-06
-3.57467e-06
-3.92712e-06
-3.84545e-06
-3.96966e-06
-3.61913e-06
-3.84467e-06
-3.80506e-06
-3.90698e-06
-3.66781e-06
-3.81737e-06
-3.7919e-06
-3.87228e-06
-3.68446e-06
-3.77741e-06
-3.76929e-06
-3.82586e-06
-3.70378e-06
-3.76368e-06
-3.76051e-06
-3.80097e-06
-3.70974e-06
-3.74755e-06
-3.74892e-06
-3.77563e-06
-3.71666e-06
-3.74196e-06
-3.74473e-06
-3.76445e-06
-3.71839e-06
-3.73454e-06
-3.73773e-06
-3.75048e-06
)
;

boundaryField
{
    inlet
    {
        type            zeroGradient;
    }
    outlet
    {
        type            totalPressure;
        rho             rho;
        psi             none;
        gamma           1;
        p0              nonuniform 0();
        value           nonuniform 0();
    }
    walls
    {
        type            zeroGradient;
    }
    procBoundary1to0
    {
        type            processor;
        value           nonuniform List<scalar> 
16
(
-3.20645e-06
-3.31499e-06
-3.24787e-06
-3.00862e-06
-3.31499e-06
-4.817e-06
-4.06569e-06
-4.03259e-06
-3.24787e-06
-4.06569e-06
-3.76117e-06
-3.72236e-06
-3.00862e-06
-4.03259e-06
-3.72236e-06
-3.88224e-06
)
;
    }
}


// ************************************************************************* //
