/*--------------------------------*- C++ -*----------------------------------*\
| =========                 |                                                 |
| \\      /  F ield         | OpenFOAM: The Open Source CFD Toolbox           |
|  \\    /   O peration     | Version:  5.x                                   |
|   \\  /    A nd           | Web:      www.OpenFOAM.org                      |
|    \\/     M anipulation  |                                                 |
\*---------------------------------------------------------------------------*/
FoamFile
{
    version     2.0;
    format      ascii;
    class       surfaceScalarField;
    location    "0.12";
    object      phi;
}
// * * * * * * * * * * * * * * * * * * * * * * * * * * * * * * * * * * * * * //

dimensions      [0 3 -1 0 0 0 0];

internalField   nonuniform List<scalar> 
384
(
5.11604e-11
1.92943e-11
5.11604e-11
4.69554e-12
-3.18487e-11
3.71924e-10
-4.89511e-11
-2.04047e-11
3.08338e-10
1.79082e-11
1.19056e-10
1.92474e-11
1.62005e-11
1.92474e-11
4.57519e-12
-1.02587e-11
1.55196e-10
-1.39724e-11
-9.95435e-12
1.21668e-10
1.38767e-11
7.05057e-11
1.46897e-11
1.00126e-11
1.46897e-11
3.55062e-12
6.84852e-14
8.93722e-11
-1.35006e-11
-1.75693e-12
7.50074e-11
1.00645e-11
4.89757e-11
6.01838e-12
7.35226e-12
6.01838e-12
2.59857e-12
1.65491e-12
3.90252e-11
-3.02967e-12
-4.01312e-13
3.38479e-11
7.16664e-12
2.82683e-11
4.87367e-12
4.7761e-12
4.87367e-12
2.06732e-12
2.48442e-12
2.18998e-11
-2.77509e-12
1.37642e-12
1.97423e-11
4.6662e-12
1.84151e-11
2.45917e-12
3.324e-12
2.45917e-12
1.56115e-12
1.87988e-12
1.08796e-11
-1.29059e-13
1.09019e-12
1.05349e-11
2.92937e-12
1.09243e-11
1.95123e-12
2.18527e-12
1.95123e-12
1.27812e-12
1.46213e-12
6.10251e-12
-2.78306e-15
1.0454e-12
6.15987e-12
1.74054e-12
6.80092e-12
1.22927e-12
1.38902e-12
1.22927e-12
1.00094e-12
9.1035e-13
3.45985e-12
4.9075e-13
6.32612e-13
3.69385e-12
9.51737e-13
4.13467e-12
9.76937e-13
7.57806e-13
9.76937e-13
8.26302e-13
5.06292e-13
2.11928e-12
4.63645e-13
3.50405e-13
2.32766e-12
4.34527e-13
2.64979e-12
6.39381e-13
6.39381e-13
6.27267e-13
1.21259e-12
4.75005e-13
1.36712e-12
1.5239e-12
3.71924e-10
-3.18487e-11
4.69554e-12
-2.2535e-11
-5.73205e-10
-2.2535e-11
-2.76692e-10
-3.78906e-10
2.65242e-11
-7.66867e-11
1.83993e-11
1.55196e-10
-1.02587e-11
4.57519e-12
5.0033e-12
-2.72819e-10
5.0033e-12
-7.79248e-11
-1.91727e-10
1.74164e-11
-4.96728e-11
1.99762e-11
8.93722e-11
6.84852e-14
3.55062e-12
9.13381e-12
-1.12342e-10
9.13381e-12
-4.30627e-11
-7.94004e-11
1.48774e-11
-2.99854e-11
1.74822e-11
3.90252e-11
1.65491e-12
2.59857e-12
9.1591e-12
-5.26096e-11
9.1591e-12
-8.33381e-12
-3.9155e-11
1.10955e-11
-1.78002e-11
1.39865e-11
2.18998e-11
2.48442e-12
2.06732e-12
6.49632e-12
-2.18027e-11
6.49632e-12
-3.40276e-12
-1.72585e-11
7.74489e-12
-9.86061e-12
1.0216e-11
1.08796e-11
1.87988e-12
1.56115e-12
4.89405e-12
-9.83153e-12
4.89405e-12
8.66433e-13
-8.39495e-12
5.69892e-12
-5.75669e-12
7.19812e-12
6.10251e-12
1.46213e-12
1.27812e-12
3.25071e-12
-4.12794e-12
3.25071e-12
1.0986e-12
-3.8847e-12
3.80175e-12
-3.25592e-12
4.87599e-12
3.45985e-12
9.1035e-13
1.00094e-12
2.30662e-12
-1.8215e-12
2.30662e-12
1.33635e-12
-1.92943e-12
2.70886e-12
-1.86203e-12
3.28926e-12
2.11928e-12
5.06292e-13
8.26302e-13
1.5994e-12
-7.81738e-13
1.5994e-12
1.04846e-12
-9.32609e-13
1.88178e-12
-1.03332e-12
2.27138e-12
1.21259e-12
6.27267e-13
1.05493e-12
1.05493e-12
8.1416e-13
1.22951e-12
1.40639e-12
3.08338e-10
-2.04047e-11
-4.89511e-11
2.65242e-11
-3.78906e-10
-2.76692e-10
-2.45617e-10
-3.54084e-10
-2.45617e-10
-5.09155e-11
-3.99561e-11
1.21668e-10
-9.95435e-12
-1.39724e-11
1.74164e-11
-1.91727e-10
-7.79248e-11
-6.51565e-11
-1.88938e-10
-6.51565e-11
-3.28491e-11
-3.78026e-12
7.50074e-11
-1.75693e-12
-1.35006e-11
1.48774e-11
-7.94004e-11
-4.30627e-11
-4.16885e-11
-7.58065e-11
-4.16885e-11
-1.97009e-11
1.67658e-12
3.38479e-11
-4.01312e-13
-3.02967e-12
1.10955e-11
-3.9155e-11
-8.33381e-12
-7.18678e-12
-3.92419e-11
-7.18678e-12
-1.27416e-11
7.86983e-12
1.97423e-11
1.37642e-12
-2.77509e-12
7.74489e-12
-1.72585e-11
-3.40276e-12
-3.17349e-12
-1.74052e-11
-3.17349e-12
-8.1204e-12
6.35647e-12
1.05349e-11
1.09019e-12
-1.29059e-13
5.69892e-12
-8.39495e-12
8.66433e-13
1.47142e-12
-8.95016e-12
1.47142e-12
-5.36977e-12
5.40131e-12
6.15987e-12
1.0454e-12
-2.78304e-15
3.80175e-12
-3.8847e-12
1.0986e-12
1.53534e-12
-4.41732e-12
1.53534e-12
-3.47555e-12
3.80206e-12
3.69385e-12
6.32612e-13
4.9075e-13
2.70886e-12
-1.92943e-12
1.33635e-12
1.67851e-12
-2.35661e-12
1.67851e-12
-2.20358e-12
2.69208e-12
2.32766e-12
3.50405e-13
4.63645e-13
1.88178e-12
-9.32609e-13
1.04846e-12
1.30836e-12
-1.20977e-12
1.30836e-12
-1.31299e-12
1.9049e-12
1.36712e-12
4.75005e-13
1.22951e-12
8.1416e-13
9.70212e-13
9.70212e-13
1.20747e-12
1.19056e-10
1.79082e-11
1.83993e-11
-7.66867e-11
-3.99561e-11
-5.09155e-11
-2.5094e-13
7.05057e-11
1.38767e-11
1.99762e-11
-4.96728e-11
-3.78026e-12
-3.28491e-11
-1.03144e-11
4.89757e-11
1.00645e-11
1.74822e-11
-2.99854e-11
1.67658e-12
-1.97009e-11
-1.46303e-11
2.82683e-11
7.16664e-12
1.39865e-11
-1.78002e-11
7.86983e-12
-1.27416e-11
-1.2925e-11
1.84151e-11
4.6662e-12
1.0216e-11
-9.86061e-12
6.35647e-12
-8.1204e-12
-1.01685e-11
1.09243e-11
2.92937e-12
7.19812e-12
-5.75669e-12
5.40131e-12
-5.36977e-12
-7.3514e-12
6.80092e-12
1.74054e-12
4.87599e-12
-3.25592e-12
3.80206e-12
-3.47555e-12
-5.02873e-12
4.13467e-12
9.51737e-13
3.28926e-12
-1.86203e-12
2.69208e-12
-2.20358e-12
-3.2796e-12
2.64979e-12
4.34527e-13
2.27138e-12
-1.03332e-12
1.9049e-12
-1.31299e-12
-1.93585e-12
1.5239e-12
1.40639e-12
1.20747e-12
)
;

boundaryField
{
    inlet
    {
        type            calculated;
        value           nonuniform List<scalar> 
16
(
3.13275e-13
1.48647e-13
7.40229e-14
1.40142e-13
1.48647e-13
-4.66412e-13
-5.54229e-13
-5.93591e-13
7.40229e-14
-5.54229e-13
-6.91172e-13
-7.48655e-13
1.40142e-13
-5.93591e-13
-7.48655e-13
-1.06258e-12
)
;
    }
    outlet
    {
        type            calculated;
        value           nonuniform 0();
    }
    walls
    {
        type            calculated;
        value           nonuniform List<scalar> 
160
(
-4.55481e-11
-1.77005e-11
-1.15957e-11
-4.68821e-12
-3.58559e-12
-1.73312e-12
-1.38187e-12
-8.31147e-13
-6.61329e-13
-4.17115e-13
-3.88324e-10
-1.62114e-10
-8.85604e-11
-3.71918e-11
-1.99229e-11
-9.37706e-12
-5.01165e-12
-2.67974e-12
-1.56459e-12
-8.42836e-13
-2.76059e-10
-1.1357e-10
-6.61536e-11
-2.95753e-11
-1.66776e-11
-8.55847e-12
-4.83418e-12
-2.77087e-12
-1.68279e-12
-9.3848e-13
-1.14715e-10
-6.68693e-11
-4.49914e-11
-2.48162e-11
-1.55315e-11
-8.79659e-12
-5.27394e-12
-3.06413e-12
-1.89066e-12
-1.03794e-12
-4.48398e-11
-1.35773e-11
-1.36728e-11
-3.58387e-12
-3.1583e-12
-5.19932e-13
-3.40929e-13
2.09005e-13
2.21719e-13
2.83433e-13
-1.96118e-10
-5.44093e-11
-3.12566e-11
-6.23721e-12
-3.14323e-12
4.8869e-13
5.22751e-13
7.87881e-13
5.98168e-13
4.91949e-13
-2.23386e-10
-5.94664e-11
-3.90311e-11
-8.02938e-12
-3.93524e-12
5.17604e-13
7.15062e-13
1.00372e-12
7.84258e-13
6.04796e-13
-2.90677e-11
1.25145e-12
3.83456e-12
7.01716e-12
4.97823e-12
3.99275e-12
2.64072e-12
1.81752e-12
1.23303e-12
7.70836e-13
-4.55481e-11
-1.77005e-11
-1.15957e-11
-4.68821e-12
-3.58559e-12
-1.73312e-12
-1.38187e-12
-8.31147e-13
-6.61329e-13
-4.17115e-13
-3.88324e-10
-1.62114e-10
-8.85604e-11
-3.71918e-11
-1.99229e-11
-9.37706e-12
-5.01165e-12
-2.67974e-12
-1.56459e-12
-8.42836e-13
-2.76059e-10
-1.1357e-10
-6.61536e-11
-2.95753e-11
-1.66776e-11
-8.55847e-12
-4.83418e-12
-2.77087e-12
-1.68279e-12
-9.3848e-13
-1.14715e-10
-6.68693e-11
-4.49914e-11
-2.48162e-11
-1.55315e-11
-8.79659e-12
-5.27394e-12
-3.06413e-12
-1.89066e-12
-1.03794e-12
-4.48398e-11
-1.35773e-11
-1.36728e-11
-3.58387e-12
-3.1583e-12
-5.19932e-13
-3.40929e-13
2.09005e-13
2.21719e-13
2.83433e-13
-1.96118e-10
-5.44093e-11
-3.12566e-11
-6.23721e-12
-3.14323e-12
4.8869e-13
5.22751e-13
7.87881e-13
5.98168e-13
4.91949e-13
-2.23386e-10
-5.94664e-11
-3.90311e-11
-8.02938e-12
-3.93524e-12
5.17604e-13
7.15062e-13
1.00372e-12
7.84258e-13
6.04796e-13
-2.90677e-11
1.25145e-12
3.83456e-12
7.01716e-12
4.97823e-12
3.99275e-12
2.64072e-12
1.81752e-12
1.23303e-12
7.70836e-13
)
;
    }
    procBoundary1to0
    {
        type            processor;
        value           nonuniform List<scalar> 
16
(
-3.05187e-11
9.47132e-11
4.17727e-11
-2.63605e-11
9.47132e-11
1.36212e-09
9.14877e-10
9.67697e-11
4.17727e-11
9.14877e-10
8.98367e-10
8.70396e-11
-2.63605e-11
9.67697e-11
8.70396e-11
-2.1526e-11
)
;
    }
}


// ************************************************************************* //
