/*--------------------------------*- C++ -*----------------------------------*\
| =========                 |                                                 |
| \\      /  F ield         | OpenFOAM: The Open Source CFD Toolbox           |
|  \\    /   O peration     | Version:  5.x                                   |
|   \\  /    A nd           | Web:      www.OpenFOAM.org                      |
|    \\/     M anipulation  |                                                 |
\*---------------------------------------------------------------------------*/
FoamFile
{
    version     2.0;
    format      ascii;
    class       volVectorField;
    location    "0.12";
    object      U;
}
// * * * * * * * * * * * * * * * * * * * * * * * * * * * * * * * * * * * * * //

dimensions      [0 1 -1 0 0 0 0];

internalField   nonuniform List<vector> 
160
(
(7.30415e-06 4.02069e-06 7.30415e-06)
(8.36665e-06 -6.7698e-06 6.22981e-05)
(-7.11152e-06 -2.68216e-06 4.42647e-05)
(-7.22002e-06 3.32685e-06 1.84989e-05)
(2.84065e-06 2.2424e-06 2.84065e-06)
(3.4044e-06 -4.09313e-06 2.6055e-05)
(-2.03183e-06 -3.93795e-06 1.82477e-05)
(-2.18825e-06 2.07424e-06 1.08033e-05)
(1.85851e-06 2.3117e-06 1.85851e-06)
(2.66114e-06 2.90444e-07 1.42364e-05)
(-1.66448e-06 2.40249e-07 1.0631e-05)
(-2.204e-06 1.89685e-06 7.26822e-06)
(7.52315e-07 1.05037e-06 7.52315e-07)
(1.13752e-06 -2.47639e-07 5.99015e-06)
(-3.26581e-07 -6.728e-07 4.76285e-06)
(-5.76591e-07 1.13171e-06 4.01514e-06)
(5.75988e-07 1.04782e-06 5.75988e-07)
(8.83311e-07 6.54574e-07 3.21281e-06)
(-2.70589e-07 4.84679e-07 2.68668e-06)
(-5.09515e-07 9.38407e-07 2.51457e-06)
(2.79071e-07 5.09732e-07 2.79071e-07)
(4.54066e-07 1.82032e-07 1.51451e-06)
(4.7586e-08 2.08067e-08 1.3813e-06)
(-8.34693e-08 4.78513e-07 1.42581e-06)
(2.2276e-07 4.52981e-07 2.2276e-07)
(3.50052e-07 3.46085e-07 8.10608e-07)
(5.45757e-08 2.74718e-07 7.81095e-07)
(-5.4647e-08 3.70255e-07 8.55659e-07)
(1.34469e-07 2.32194e-07 1.34469e-07)
(2.23665e-07 1.34572e-07 4.34009e-07)
(1.09697e-07 8.13918e-08 4.483e-07)
(3.4054e-08 1.65695e-07 4.97727e-07)
(1.07118e-07 1.75857e-07 1.07118e-07)
(1.75519e-07 1.31511e-07 2.53848e-07)
(9.87678e-08 1.0103e-07 2.72759e-07)
(3.62467e-08 1.09935e-07 3.075e-07)
(6.78202e-08 5.06958e-08 6.78202e-08)
(1.14305e-07 2.41341e-08 1.37077e-07)
(8.96906e-08 1.21671e-08 1.52504e-07)
(4.61378e-08 2.27638e-08 1.69255e-07)
(6.22981e-05 -6.7698e-06 8.36665e-06)
(4.63233e-05 -0.000113955 4.63233e-05)
(-5.19076e-05 -7.32964e-05 4.67948e-05)
(-3.13751e-05 -1.33981e-05 1.55864e-05)
(2.6055e-05 -4.09313e-06 3.4044e-06)
(1.91645e-05 -6.15421e-05 1.91645e-05)
(-1.6981e-05 -4.54784e-05 1.77747e-05)
(-8.69343e-06 -1.03973e-05 9.22618e-06)
(1.42364e-05 2.90444e-07 2.66114e-06)
(1.17441e-05 -2.18021e-05 1.17441e-05)
(-8.25427e-06 -1.48687e-05 1.1456e-05)
(-4.99416e-06 -5.16123e-06 6.64636e-06)
(5.99015e-06 -2.47639e-07 1.13752e-06)
(5.31629e-06 -1.244e-05 5.31629e-06)
(-1.94797e-06 -9.64859e-06 5.16171e-06)
(-9.87327e-07 -3.87298e-06 4.00428e-06)
(3.21281e-06 6.54574e-07 8.83311e-07)
(3.09115e-06 -4.14671e-06 3.09115e-06)
(-7.18866e-07 -3.19155e-06 3.08805e-06)
(-4.95793e-07 -1.70668e-06 2.70151e-06)
(1.51451e-06 1.82032e-07 4.54066e-07)
(1.61771e-06 -2.4199e-06 1.61771e-06)
(1.32098e-07 -2.07719e-06 1.68854e-06)
(8.43508e-08 -1.2414e-06 1.67198e-06)
(8.10608e-07 3.46085e-07 3.50052e-07)
(9.43001e-07 -7.8703e-07 9.43001e-07)
(2.10822e-07 -7.15576e-07 1.00985e-06)
(8.77638e-08 -5.74257e-07 1.07207e-06)
(4.34009e-07 1.34572e-07 2.23665e-07)
(5.61568e-07 -4.50935e-07 5.61568e-07)
(2.47586e-07 -4.61514e-07 6.24346e-07)
(1.29193e-07 -3.97224e-07 6.75904e-07)
(2.53848e-07 1.31511e-07 1.75519e-07)
(3.55794e-07 -1.54365e-07 3.55794e-07)
(2.01097e-07 -1.87004e-07 4.01542e-07)
(9.79707e-08 -2.05217e-07 4.44804e-07)
(1.37077e-07 2.41341e-08 1.14305e-07)
(2.08634e-07 -7.5562e-08 2.08634e-07)
(1.51477e-07 -8.95134e-08 2.3889e-07)
(8.03432e-08 -9.64388e-08 2.59708e-07)
(4.42647e-05 -2.68216e-06 -7.11152e-06)
(4.67948e-05 -7.32964e-05 -5.19076e-05)
(-3.74456e-05 -6.32466e-05 -3.74456e-05)
(-3.57473e-05 -8.65662e-06 -8.61115e-06)
(1.82477e-05 -3.93795e-06 -2.03183e-06)
(1.77747e-05 -4.54784e-05 -1.6981e-05)
(-1.13561e-05 -4.59016e-05 -1.13561e-05)
(-9.50576e-06 -7.74088e-06 -1.79357e-06)
(1.0631e-05 2.40249e-07 -1.66448e-06)
(1.1456e-05 -1.48687e-05 -8.25427e-06)
(-6.19878e-06 -1.34218e-05 -6.19878e-06)
(-6.24685e-06 -3.35914e-06 -2.82066e-07)
(4.76285e-06 -6.728e-07 -3.26581e-07)
(5.16171e-06 -9.64859e-06 -1.94797e-06)
(-1.20372e-06 -9.72932e-06 -1.20372e-06)
(-1.27594e-06 -2.87272e-06 1.00273e-06)
(2.68668e-06 4.84679e-07 -2.70589e-07)
(3.08805e-06 -3.19155e-06 -7.18866e-07)
(-3.61518e-07 -3.12667e-06 -3.61518e-07)
(-6.25151e-07 -1.34838e-06 9.37461e-07)
(1.3813e-06 2.08067e-08 4.7586e-08)
(1.68854e-06 -2.07719e-06 1.32098e-07)
(3.1316e-07 -2.17687e-06 3.1316e-07)
(8.85541e-08 -1.146e-06 8.62053e-07)
(7.81095e-07 2.74718e-07 5.45757e-08)
(1.00985e-06 -7.15576e-07 2.10822e-07)
(3.19501e-07 -8.0302e-07 3.19501e-07)
(1.18226e-07 -6.02777e-07 6.36975e-07)
(4.483e-07 8.13918e-08 1.09697e-07)
(6.24346e-07 -4.61514e-07 2.47586e-07)
(3.18093e-07 -5.42261e-07 3.18093e-07)
(1.63891e-07 -4.54399e-07 4.65898e-07)
(2.72759e-07 1.0103e-07 9.87678e-08)
(4.01542e-07 -1.87004e-07 2.01097e-07)
(2.50207e-07 -2.49912e-07 2.50207e-07)
(1.27912e-07 -2.65668e-07 3.38256e-07)
(1.52504e-07 1.21671e-08 8.96906e-08)
(2.3889e-07 -8.95134e-08 1.51477e-07)
(1.7952e-07 -1.11349e-07 1.7952e-07)
(9.8573e-08 -1.21167e-07 2.14777e-07)
(1.84989e-05 3.32685e-06 -7.22002e-06)
(1.55864e-05 -1.33981e-05 -3.13751e-05)
(-8.61115e-06 -8.65662e-06 -3.57473e-05)
(-4.63506e-06 1.06132e-06 -4.63506e-06)
(1.08033e-05 2.07424e-06 -2.18825e-06)
(9.22618e-06 -1.03973e-05 -8.69343e-06)
(-1.79357e-06 -7.74088e-06 -9.50576e-06)
(2.33619e-07 -1.14542e-06 2.33619e-07)
(7.26822e-06 1.89685e-06 -2.204e-06)
(6.64636e-06 -5.16123e-06 -4.99416e-06)
(-2.82066e-07 -3.35914e-06 -6.24685e-06)
(6.38058e-07 -2.03314e-06 6.38058e-07)
(4.01514e-06 1.13171e-06 -5.76591e-07)
(4.00428e-06 -3.87298e-06 -9.87327e-07)
(1.00273e-06 -2.87272e-06 -1.27594e-06)
(1.14287e-06 -2.29265e-06 1.14287e-06)
(2.51457e-06 9.38407e-07 -5.09515e-07)
(2.70151e-06 -1.70668e-06 -4.95793e-07)
(9.37461e-07 -1.34838e-06 -6.25151e-07)
(8.1239e-07 -1.64654e-06 8.1239e-07)
(1.42581e-06 4.78513e-07 -8.34693e-08)
(1.67198e-06 -1.2414e-06 8.43508e-08)
(8.62053e-07 -1.146e-06 8.85541e-08)
(6.50012e-07 -1.36323e-06 6.50012e-07)
(8.55659e-07 3.70255e-07 -5.4647e-08)
(1.07207e-06 -5.74257e-07 8.77638e-08)
(6.36975e-07 -6.02777e-07 1.18226e-07)
(4.30505e-07 -8.69815e-07 4.30505e-07)
(4.97727e-07 1.65695e-07 3.4054e-08)
(6.75904e-07 -3.97224e-07 1.29193e-07)
(4.65898e-07 -4.54399e-07 1.63891e-07)
(2.96077e-07 -6.21055e-07 2.96077e-07)
(3.075e-07 1.09935e-07 3.62467e-08)
(4.44804e-07 -2.05217e-07 9.79707e-08)
(3.38256e-07 -2.65668e-07 1.27912e-07)
(2.0118e-07 -3.87654e-07 2.0118e-07)
(1.69255e-07 2.27638e-08 4.61378e-08)
(2.59708e-07 -9.64388e-08 8.03432e-08)
(2.14777e-07 -1.21167e-07 9.8573e-08)
(1.25847e-07 -1.72768e-07 1.25847e-07)
)
;

boundaryField
{
    inlet
    {
        type            fixedValue;
        value           uniform (0 0 0);
    }
    outlet
    {
        type            zeroGradient;
    }
    walls
    {
        type            fixedValue;
        value           uniform (0 0 0);
    }
    procBoundary1to0
    {
        type            processor;
        value           nonuniform List<vector> 
16
(
(7.86101e-06 4.55e-06 7.86101e-06)
(6.04706e-06 -2.64819e-05 8.69097e-05)
(-6.1094e-06 -1.2595e-05 5.27095e-05)
(-3.51283e-06 4.11903e-06 2.25554e-05)
(8.69097e-05 -2.64819e-05 6.04706e-06)
(5.04284e-05 -0.000297794 5.04284e-05)
(-7.18483e-05 -0.000207531 3.75015e-05)
(-3.02138e-05 -1.9479e-05 1.54126e-05)
(5.27095e-05 -1.2595e-05 -6.1094e-06)
(3.75015e-05 -0.000207531 -7.18483e-05)
(-4.19676e-05 -0.000210424 -4.19676e-05)
(-2.32193e-05 -2.13472e-05 -1.18531e-05)
(2.25554e-05 4.11903e-06 -3.51283e-06)
(1.54126e-05 -1.9479e-05 -3.02138e-05)
(-1.18531e-05 -2.13472e-05 -2.32193e-05)
(-3.77064e-06 5.0937e-06 -3.77064e-06)
)
;
    }
}


// ************************************************************************* //
