/*--------------------------------*- C++ -*----------------------------------*\
| =========                 |                                                 |
| \\      /  F ield         | OpenFOAM: The Open Source CFD Toolbox           |
|  \\    /   O peration     | Version:  5.x                                   |
|   \\  /    A nd           | Web:      www.OpenFOAM.org                      |
|    \\/     M anipulation  |                                                 |
\*---------------------------------------------------------------------------*/
FoamFile
{
    version     2.0;
    format      ascii;
    class       volVectorField;
    location    "0.12";
    object      Us;
}
// * * * * * * * * * * * * * * * * * * * * * * * * * * * * * * * * * * * * * //

dimensions      [0 1 -1 0 0 0 0];

internalField   uniform (0 0 0);

boundaryField
{
    inlet
    {
        type            zeroGradient;
    }
    outlet
    {
        type            zeroGradient;
    }
    walls
    {
        type            zeroGradient;
    }
    procBoundary1to0
    {
        type            processor;
        value           nonuniform List<vector> 
16
(
(-1.887e-17 -4.12207e-14 -1.887e-17)
(-6.92818e-16 -1.51343e-12 -6.92818e-16)
(-7.29103e-16 -1.5927e-12 -7.29103e-16)
(-5.96173e-17 -1.30232e-13 -5.96173e-17)
(-6.92818e-16 -1.51343e-12 -6.92818e-16)
(-2.4958e-14 -5.45198e-11 -2.4958e-14)
(-2.62423e-14 -5.73253e-11 -2.62423e-14)
(-2.11842e-15 -4.62761e-12 -2.11842e-15)
(-7.29103e-16 -1.5927e-12 -7.29103e-16)
(-2.62423e-14 -5.73253e-11 -2.62423e-14)
(-2.76175e-14 -6.03294e-11 -2.76175e-14)
(-2.2568e-15 -4.92989e-12 -2.2568e-15)
(-5.96173e-17 -1.30232e-13 -5.96173e-17)
(-2.11842e-15 -4.62761e-12 -2.11842e-15)
(-2.2568e-15 -4.92989e-12 -2.2568e-15)
(-2.15343e-16 -4.70408e-13 -2.15343e-16)
)
;
    }
}


// ************************************************************************* //
