/*--------------------------------*- C++ -*----------------------------------*\
| =========                 |                                                 |
| \\      /  F ield         | OpenFOAM: The Open Source CFD Toolbox           |
|  \\    /   O peration     | Version:  5.x                                   |
|   \\  /    A nd           | Web:      www.OpenFOAM.org                      |
|    \\/     M anipulation  |                                                 |
\*---------------------------------------------------------------------------*/
FoamFile
{
    version     2.0;
    format      ascii;
    class       volScalarField;
    location    "0.093";
    object      phiIB;
}
// * * * * * * * * * * * * * * * * * * * * * * * * * * * * * * * * * * * * * //

dimensions      [0 2 -1 0 0 0 0];

internalField   nonuniform List<scalar> 
1560
(
-0.000409296
-0.000409126
-0.000409155
-0.000409058
-0.000409092
-0.000409128
-0.000408851
-0.000408843
-0.000408724
-0.000408747
-0.000409158
-0.000408843
-0.00040882
-0.000408694
-0.000408717
-0.000409061
-0.000408725
-0.000408696
-0.000408556
-0.000408577
-0.000409095
-0.000408748
-0.000408718
-0.000408577
-0.000408601
-0.000792023
-0.000791904
-0.000791832
-0.000791766
-0.000791729
-0.000791907
-0.0007918
-0.000791722
-0.000791657
-0.000791619
-0.000791835
-0.000791723
-0.000791638
-0.000791573
-0.000791536
-0.000791771
-0.00079166
-0.000791575
-0.000791512
-0.000791476
-0.000791735
-0.000791622
-0.000791538
-0.000791477
-0.000791441
-0.00191409
-0.00191372
-0.00191357
-0.00191338
-0.00191333
-0.00191372
-0.00191333
-0.00191317
-0.00191296
-0.0019129
-0.00191357
-0.00191317
-0.00191301
-0.00191279
-0.00191272
-0.00191339
-0.00191297
-0.0019128
-0.00191257
-0.00191249
-0.00191333
-0.0019129
-0.00191273
-0.00191249
-0.00191242
-0.0024551
-0.00245475
-0.00245454
-0.00245433
-0.00245424
-0.00245476
-0.00245441
-0.00245419
-0.00245397
-0.00245387
-0.00245455
-0.00245419
-0.00245397
-0.00245374
-0.00245363
-0.00245434
-0.00245398
-0.00245375
-0.00245351
-0.0024534
-0.00245425
-0.00245388
-0.00245364
-0.0024534
-0.00245328
-0.00350574
-0.0035052
-0.00350492
-0.00350462
-0.0035045
-0.00350521
-0.00350464
-0.00350434
-0.00350402
-0.00350388
-0.00350493
-0.00350435
-0.00350404
-0.0035037
-0.00350355
-0.00350463
-0.00350402
-0.0035037
-0.00350334
-0.00350318
-0.00350451
-0.00350389
-0.00350356
-0.00350318
-0.00350301
-0.0041206
-0.00411996
-0.0041196
-0.00411924
-0.00411908
-0.00411997
-0.0041193
-0.00411892
-0.00411853
-0.00411835
-0.00411961
-0.00411892
-0.00411852
-0.00411811
-0.00411793
-0.00411925
-0.00411854
-0.00411812
-0.00411769
-0.00411749
-0.0041191
-0.00411837
-0.00411794
-0.00411749
-0.00411728
-0.00510663
-0.00510574
-0.00510525
-0.00510477
-0.00510458
-0.00510575
-0.0051048
-0.00510429
-0.00510376
-0.00510354
-0.00510526
-0.00510429
-0.00510376
-0.0051032
-0.00510297
-0.00510479
-0.00510377
-0.00510321
-0.00510262
-0.00510236
-0.0051046
-0.00510355
-0.00510298
-0.00510237
-0.0051021
-0.00577467
-0.00577352
-0.00577288
-0.00577227
-0.00577203
-0.00577353
-0.0057723
-0.00577162
-0.00577095
-0.00577068
-0.0057729
-0.00577163
-0.00577092
-0.00577022
-0.00576993
-0.00577229
-0.00577097
-0.00577023
-0.00576948
-0.00576916
-0.00577206
-0.0057707
-0.00576994
-0.00576916
-0.00576882
-0.00670976
-0.00670817
-0.00670732
-0.00670652
-0.00670623
-0.00670818
-0.00670649
-0.00670559
-0.0067047
-0.00670436
-0.00670734
-0.0067056
-0.00670465
-0.00670372
-0.00670335
-0.00670655
-0.00670472
-0.00670373
-0.00670273
-0.00670232
-0.00670626
-0.00670438
-0.00670337
-0.00670232
-0.00670188
-0.00741568
-0.00741356
-0.00741244
-0.0074114
-0.00741103
-0.00741358
-0.00741131
-0.0074101
-0.00740894
-0.00740851
-0.00741246
-0.00741011
-0.00740885
-0.00740763
-0.00740716
-0.00741144
-0.00740897
-0.00740765
-0.00740634
-0.00740582
-0.00741108
-0.00740855
-0.00740718
-0.00740583
-0.00740527
-0.00830784
-0.00830495
-0.0083035
-0.00830215
-0.00830171
-0.00830497
-0.00830187
-0.0083003
-0.00829879
-0.00829827
-0.00830352
-0.00830031
-0.00829867
-0.00829708
-0.00829651
-0.00830219
-0.00829882
-0.0082971
-0.00829538
-0.00829475
-0.00830176
-0.0082983
-0.00829653
-0.00829476
-0.00829408
-0.00903753
-0.00903366
-0.00903175
-0.00903003
-0.0090295
-0.00903369
-0.00902948
-0.0090274
-0.00902545
-0.00902479
-0.00903179
-0.00902741
-0.00902523
-0.00902316
-0.00902243
-0.00903009
-0.00902548
-0.00902318
-0.00902094
-0.00902012
-0.00902957
-0.00902484
-0.00902246
-0.00902013
-0.00901926
-0.00988802
-0.0098829
-0.00988067
-0.00987863
-0.0098781
-0.00988292
-0.00987736
-0.00987492
-0.00987258
-0.00987191
-0.00988071
-0.00987494
-0.0098724
-0.00986995
-0.00986921
-0.00987869
-0.00987261
-0.00986997
-0.0098673
-0.00986648
-0.00987817
-0.00987196
-0.00986924
-0.00986649
-0.0098656
-0.0106229
-0.0106163
-0.0106137
-0.0106113
-0.0106108
-0.0106163
-0.010609
-0.0106062
-0.0106035
-0.0106027
-0.0106138
-0.0106062
-0.0106034
-0.0106006
-0.0105999
-0.0106114
-0.0106035
-0.0106006
-0.0105976
-0.0105967
-0.0106109
-0.0106028
-0.0105999
-0.0105967
-0.0105958
-0.0114196
-0.0114116
-0.0114096
-0.0114075
-0.0114074
-0.0114116
-0.0114029
-0.011401
-0.0113988
-0.0113988
-0.0114096
-0.0114011
-0.0114
-0.0113984
-0.0113989
-0.0114075
-0.0113989
-0.0113985
-0.0113981
-0.0113993
-0.0114075
-0.0113989
-0.011399
-0.0113994
-0.0114009
-0.0121207
-0.0121108
-0.0121094
-0.0121074
-0.0121075
-0.0121109
-0.0121005
-0.0120999
-0.0120983
-0.0120989
-0.0121095
-0.0120999
-0.0121016
-0.0121019
-0.0121037
-0.0121075
-0.0120983
-0.0121019
-0.0121071
-0.012116
-0.0121077
-0.0120989
-0.0121038
-0.0121161
-0.0121288
-0.0128166
-0.0128022
-0.0128014
-0.0127995
-0.0128003
-0.0128023
-0.0127901
-0.0127921
-0.0127923
-0.0127949
-0.0128015
-0.0127921
-0.0127958
-0.0127995
-0.0128076
-0.0127996
-0.0127923
-0.0127995
-0.0128099
-0.0128165
-0.0128004
-0.0127949
-0.0128077
-0.0128165
-0.0128227
-0.0134044
-0.0133717
-0.0133628
-0.0133581
-0.0133572
-0.0133718
-0.0133478
-0.0133458
-0.0133448
-0.0133469
-0.013363
-0.0133458
-0.013347
-0.0133448
-0.0133433
-0.0133583
-0.0133449
-0.0133448
-0.0133397
-0.0133374
-0.0133574
-0.013347
-0.0133435
-0.0133374
-0.0133331
-0.0138907
-0.0138506
-0.0138275
-0.0138093
-0.0138042
-0.0138506
-0.0138036
-0.0137866
-0.0137772
-0.0137727
-0.0138276
-0.0137866
-0.0137755
-0.0137604
-0.0137547
-0.0138095
-0.0137773
-0.0137605
-0.0137431
-0.0137345
-0.0138044
-0.0137729
-0.0137549
-0.0137346
-0.0137238
-0.0142079
-0.0141575
-0.0141266
-0.0140995
-0.0140846
-0.0141576
-0.0140967
-0.0140533
-0.0140266
-0.0140096
-0.0141267
-0.0140534
-0.0140084
-0.0139731
-0.0139464
-0.0140998
-0.0140268
-0.0139732
-0.0139352
-0.0139005
-0.0140849
-0.0140099
-0.0139466
-0.0139005
-0.0138423
-0.014377
-0.0143203
-0.0142953
-0.014275
-0.014267
-0.0143204
-0.0142522
-0.0142081
-0.0141752
-0.0141552
-0.0142954
-0.0142081
-0.0141525
-0.0141101
-0.0140824
-0.0142752
-0.0141754
-0.0141102
-0.0140699
-0.0140246
-0.0142673
-0.0141555
-0.0140826
-0.0140247
-0.0139746
-0.0144517
-0.0143764
-0.0143457
-0.0143271
-0.014318
-0.0143765
-0.0142873
-0.014233
-0.0141957
-0.0141598
-0.0143459
-0.0142331
-0.0141394
-0.0140857
-0.0140075
-0.0143275
-0.014196
-0.0140859
-0.0140412
-0.0139468
-0.0143185
-0.0141601
-0.0140077
-0.0139469
-0.0137556
-0.0144343
-0.0143566
-0.0143405
-0.0143291
-0.0143268
-0.0143567
-0.0142732
-0.0142336
-0.0142241
-0.0141829
-0.0143406
-0.0142336
-0.0141755
-0.0141434
-0.0140913
-0.0143293
-0.0142243
-0.0141435
-0.0141705
-0.0140341
-0.0143271
-0.0141831
-0.0140915
-0.0140343
-0.0138908
-0.0144637
-0.0143668
-0.0143282
-0.0143021
-0.0142934
-0.0143669
-0.014249
-0.0141725
-0.0141527
-0.0141239
-0.0143284
-0.0141726
-0.0140735
-0.014025
-0.013916
-0.0143025
-0.0141529
-0.0140251
-0.0139965
-0.0139533
-0.0142937
-0.0141242
-0.0139161
-0.0139535
-0.0135649
-0.0143736
-0.014278
-0.0142474
-0.014229
-0.0142137
-0.0142781
-0.0141836
-0.0140989
-0.0141239
-0.0139814
-0.0142474
-0.014099
-0.0139701
-0.0139372
-0.0137933
-0.0142291
-0.014124
-0.0139372
-0.0142322
-0.0135862
-0.0142139
-0.0139817
-0.0137934
-0.0135865
-0.0136648
-0.014392
-0.0142746
-0.0142412
-0.0141816
-0.0142025
-0.0142747
-0.0141473
-0.0140319
-0.0140252
-0.0139638
-0.0142412
-0.014032
-0.013928
-0.0137546
-0.0137091
-0.014182
-0.0140254
-0.0137547
-0.0134618
-0.0134463
-0.0142025
-0.0139646
-0.0137081
-0.013451
-0.0131605
-0.0141691
-0.0140797
-0.0140586
-0.0140561
-0.0140849
-0.0140797
-0.0140144
-0.0139892
-0.0140012
-0.0140543
-0.0140586
-0.0139892
-0.0139347
-0.0139941
-0.0140529
-0.0140562
-0.0140013
-0.0139941
-0.0137373
-0.0138839
-0.0140851
-0.0140546
-0.0140532
-0.013885
-0.0143904
-0.0141777
-0.014087
-0.014067
-0.0140334
-0.0141063
-0.0140871
-0.0139952
-0.0139203
-0.0139087
-0.0138739
-0.0140669
-0.0139202
-0.0138633
-0.0137409
-0.0137921
-0.0140336
-0.0139088
-0.0137411
-0.0137135
-0.013527
-0.0141065
-0.0138741
-0.0137921
-0.0135272
-0.013849
-0.0137362
-0.0136581
-0.0136305
-0.0136104
-0.0136737
-0.0136579
-0.0135969
-0.0135395
-0.0135043
-0.0134838
-0.0136303
-0.0135394
-0.0134763
-0.0134006
-0.0133758
-0.0136102
-0.0135043
-0.0134006
-0.0132218
-0.0133614
-0.0136737
-0.0134838
-0.0133758
-0.0133615
-0.0141649
-0.0137523
-0.0137158
-0.0137159
-0.0137089
-0.0137944
-0.0137157
-0.0136903
-0.0136836
-0.0136707
-0.0136898
-0.0137157
-0.0136835
-0.0137373
-0.0137055
-0.0138544
-0.013709
-0.0136708
-0.0137058
-0.0134562
-0.0134148
-0.0137945
-0.0136899
-0.0138546
-0.0134149
-0.0136035
-0.0130202
-0.0130295
-0.013044
-0.0130622
-0.0131086
-0.0130294
-0.0130411
-0.0130679
-0.0130827
-0.0130909
-0.013044
-0.0130679
-0.0131184
-0.0131297
-0.0132477
-0.0130623
-0.0130827
-0.0131297
-0.0132764
-0.0131522
-0.0131087
-0.013091
-0.0132478
-0.0131521
-0.013668
-0.0130146
-0.0130423
-0.0130351
-0.0130665
-0.0130807
-0.0130424
-0.0130691
-0.0130696
-0.0130831
-0.0130162
-0.0130353
-0.0130696
-0.0130946
-0.0130942
-0.0132314
-0.0130668
-0.0130833
-0.0130943
-0.013271
-0.0130706
-0.013081
-0.0130164
-0.0132316
-0.0130708
-0.0129345
-0.0119563
-0.0119775
-0.0120013
-0.0120305
-0.012058
-0.0119775
-0.0120065
-0.0120357
-0.0120565
-0.0120353
-0.0120014
-0.0120358
-0.0120947
-0.0121101
-0.0121182
-0.0120306
-0.0120566
-0.0121102
-0.0121867
-0.0121692
-0.0120582
-0.0120355
-0.0121183
-0.0121693
-0.0120283
-0.0116112
-0.011628
-0.011615
-0.0116305
-0.0116208
-0.011628
-0.0116473
-0.0116364
-0.0116396
-0.0116126
-0.011615
-0.0116365
-0.0116027
-0.0116058
-0.0115857
-0.0116306
-0.0116396
-0.0116058
-0.011652
-0.0116429
-0.0116209
-0.0116127
-0.0115858
-0.0116429
-0.0116481
-0.00984884
-0.00984373
-0.00981808
-0.00980623
-0.00979456
-0.00984368
-0.00983825
-0.00980692
-0.009789
-0.00977619
-0.00981795
-0.00980684
-0.00976702
-0.00977962
-0.00979874
-0.00980596
-0.00978877
-0.00977952
-0.00985526
-0.00987818
-0.00979439
-0.0097761
-0.0097987
-0.00987825
-0.00985784
-0.00879345
-0.00880206
-0.00879887
-0.00881404
-0.00881868
-0.00880197
-0.008816
-0.00881358
-0.00883328
-0.0088452
-0.00879878
-0.00881352
-0.00880878
-0.00885486
-0.00889199
-0.00881379
-0.008833
-0.00885472
-0.00897168
-0.00907339
-0.00881856
-0.00884512
-0.00889191
-0.00907339
-0.00919643
-0.00628569
-0.00628992
-0.00630872
-0.00634051
-0.00635957
-0.00628993
-0.0062985
-0.00632148
-0.00636012
-0.00638686
-0.00630877
-0.00632156
-0.00635912
-0.00640585
-0.00643832
-0.00634054
-0.00636021
-0.00640584
-0.00646944
-0.00651611
-0.00635955
-0.0063868
-0.00643833
-0.00651617
-0.00657359
-0.00513255
-0.00514632
-0.0051615
-0.00519116
-0.00520188
-0.00514623
-0.00516724
-0.00518881
-0.00522799
-0.00523942
-0.00516149
-0.0051889
-0.00521866
-0.00527142
-0.00530751
-0.00519105
-0.00522802
-0.00527134
-0.00536118
-0.00543758
-0.00520173
-0.00523936
-0.00530743
-0.00543761
-0.00552842
-0.00212417
-0.00212274
-0.00213356
-0.00215665
-0.00217071
-0.00212279
-0.00212567
-0.00215092
-0.00217166
-0.00217735
-0.0021336
-0.00215093
-0.00218491
-0.00221131
-0.00220471
-0.00215665
-0.00217163
-0.00221131
-0.0021977
-0.00218084
-0.00217062
-0.00217725
-0.00220469
-0.00218086
-0.00214691
-0.00112714
-0.00113589
-0.00113879
-0.00115005
-0.00115279
-0.00113575
-0.00115211
-0.0011595
-0.00117789
-0.00118386
-0.00113872
-0.00115956
-0.0011756
-0.00121017
-0.00121964
-0.00114982
-0.0011778
-0.00121004
-0.00129044
-0.00135105
-0.00115265
-0.00118386
-0.0012196
-0.00135117
-0.00145161
-0.0147227
-0.0147228
-0.0155411
-0.0116845
-0.0131852
-0.0131852
-0.0137488
-0.0122963
-0.012296
-0.0131889
-0.0146786
-0.0155293
-0.0155294
-0.0155295
-0.0130674
-0.0130676
-0.0115728
-0.0131299
-0.0107547
-0.0107549
-0.01169
-0.0139165
-0.0139167
-0.0142243
-0.0133988
-0.0127517
-0.0127518
-0.012489
-0.0134796
-0.0136156
-0.0137777
-0.0136524
-0.0135654
-0.0134837
-0.0134182
-0.0136156
-0.0134797
-0.013778
-0.0136523
-0.0134833
-0.0135654
-0.0134183
-0.013392
-0.0139603
-0.0141883
-0.0125824
-0.0130861
-0.0134904
-0.0135189
-0.0139604
-0.013392
-0.0141885
-0.0125825
-0.0134905
-0.0130861
-0.013519
-0.0171835
-0.0171847
-0.0148976
-0.0127814
-0.0144618
-0.0144619
-0.0149797
-0.0130806
-0.0141218
-0.0141219
-0.0143072
-0.0139148
-0.0137812
-0.0137815
-0.0141966
-0.0136694
-0.0141044
-0.0134501
-0.0140538
-0.0128988
-0.0145691
-0.0141967
-0.0136697
-0.0141045
-0.0134501
-0.0140541
-0.0128987
-0.014569
-0.0139797
-0.0149828
-0.0149826
-0.0158141
-0.0146003
-0.0149026
-0.0149024
-0.0148242
-0.0143832
-0.0151288
-0.0135436
-0.0149329
-0.0130579
-0.0156328
-0.0148244
-0.0143832
-0.0151292
-0.0135437
-0.014933
-0.0130579
-0.0156331
-0.0147822
-0.0147822
-0.0143605
-0.0151785
-0.0151687
-0.0152379
-0.015238
-0.0140685
-0.0142045
-0.0147545
-0.013628
-0.013986
-0.0142697
-0.0147061
-0.0142051
-0.014069
-0.0147551
-0.013628
-0.0142698
-0.0139858
-0.0147063
-0.0140162
-0.01515
-0.0147392
-0.0152975
-0.0150285
-0.0147724
-0.0156233
-0.0140166
-0.01515
-0.0147397
-0.0152981
-0.0150287
-0.014773
-0.0156236
-0.0151845
-0.01418
-0.0141798
-0.0125913
-0.0149673
-0.0138248
-0.0138247
-0.0144105
-0.01441
-0.0163671
-0.0157922
-0.0140397
-0.0146152
-0.0146147
-0.0155227
-0.0155226
-0.0153701
-0.0153265
-0.0150466
-0.0151762
-0.0151761
-0.0136023
-0.0133023
-0.0138668
-0.0139694
-0.0137578
-0.0142147
-0.0149559
-0.0133024
-0.013602
-0.0138669
-0.0139692
-0.0142149
-0.0137576
-0.0149559
-0.015283
-0.0156092
-0.01538
-0.0155266
-0.0165531
-0.0163257
-0.0153956
-0.0152829
-0.0156092
-0.0153802
-0.0155267
-0.0165533
-0.0163256
-0.0153955
-0.011743
-0.0117426
-0.00300004
-0.0136702
-0.0144396
-0.0144405
-0.0134502
-0.0158075
-0.0153995
-0.0153998
-0.0153192
-0.0158865
-0.0155885
-0.0155887
-0.0151048
-0.0151047
-0.0159736
-0.0164622
-0.0145762
-0.0150156
-0.0150155
-0.0159804
-0.0162306
-0.0163429
-0.0159387
-0.0166904
-0.0156458
-0.0160455
-0.0159808
-0.0162323
-0.0163438
-0.0159389
-0.0166925
-0.0156458
-0.0160458
-0.0145686
-0.0136541
-0.0134253
-0.0143774
-0.0144132
-0.0140386
-0.0141083
-0.0145688
-0.0136544
-0.0134256
-0.0143776
-0.0144132
-0.0140384
-0.0141085
-0.0165398
-0.0151014
-0.0151015
-0.0141482
-0.0175072
-0.0147635
-0.0147639
-0.0147334
-0.0133862
-0.0133863
-0.0143088
-0.0136251
-0.0145038
-0.0145038
-0.013931
-0.0139309
-0.0141715
-0.0136163
-0.0139133
-0.0139132
-0.0136978
-0.015167
-0.0127763
-0.013817
-0.0156735
-0.014264
-0.0150189
-0.0149147
-0.0151671
-0.0127763
-0.0138174
-0.0156735
-0.0142645
-0.0150188
-0.0149147
-0.0137965
-0.0148126
-0.0136833
-0.0143587
-0.0142626
-0.0141129
-0.0142893
-0.0148127
-0.0137966
-0.0136834
-0.0143588
-0.0142628
-0.0141129
-0.0142892
-0.0142648
-0.014265
-0.0150963
-0.0125335
-0.0103806
-0.0116308
-0.011631
-0.013294
-0.0130236
-0.0121217
-0.0134846
-0.0139817
-0.0140621
-0.0151254
-0.0130234
-0.0132945
-0.0121194
-0.0134845
-0.0140619
-0.0139812
-0.0151259
-0.0160905
-0.0139115
-0.0139113
-0.0139431
-0.013025
-0.0145816
-0.0145815
-0.0146743
-0.01475
-0.0144451
-0.0139997
-0.0143725
-0.0140568
-0.0141665
-0.014676
-0.0147502
-0.0144456
-0.0139998
-0.0143728
-0.0140572
-0.0141667
-0.014092
-0.0157366
-0.0167677
-0.0140924
-0.0122709
-0.0133609
-0.0143867
-0.0140909
-0.0157374
-0.0167696
-0.0140911
-0.012271
-0.0133592
-0.0143877
-0.0148395
-0.0148385
-0.0160408
-0.0131462
-0.0135798
-0.0142925
-0.0142937
-0.0135211
-0.0135214
-0.0133344
-0.0136451
-0.0136965
-0.0136965
-0.0137439
-0.0118073
-0.0118073
-0.0117417
-0.0113219
-0.00999216
-0.0104587
-0.0104587
-0.0145927
-0.0140279
-0.0146428
-0.0140865
-0.0139161
-0.0142503
-0.0137697
-0.0145932
-0.0140281
-0.0146427
-0.0140867
-0.0139166
-0.0142505
-0.0137705
-0.0135537
-0.0130095
-0.0125319
-0.013555
-0.01296
-0.0125995
-0.0126209
-0.0130097
-0.0135538
-0.012532
-0.0135551
-0.0125995
-0.0129599
-0.0126207
-0.0120128
-0.0120138
-0.01155
-0.00975892
-0.0121248
-0.0127654
-0.00933285
-0.0120129
-0.0120138
-0.0115497
-0.00975826
-0.012125
-0.0127654
-0.00933251
-0.0136279
-0.014006
-0.0139856
-0.0132471
-0.013319
-0.0136467
-0.0137844
-0.0136279
-0.0140061
-0.0139858
-0.0132471
-0.0133191
-0.0136466
-0.0137844
-0.0124606
-0.0124605
-0.00950275
-0.0131524
-0.0131108
-0.0131105
-0.00497379
-0.00942297
-0.00572013
-0.00571961
-0.00488874
-0.00612304
-0.00678567
-0.00678531
-0.0129656
-0.0129657
-0.0106016
-0.00954325
-0.0138798
-0.0123719
-0.0123721
-0.0112463
-0.0122326
-0.00766737
-0.0123314
-0.00896781
-0.0130182
-0.0105042
-0.0112439
-0.0122327
-0.00766694
-0.0123305
-0.00896729
-0.0130181
-0.0105036
-0.0150659
-0.013562
-0.013476
-0.0146537
-0.0141884
-0.0136145
-0.0135345
-0.0150655
-0.013562
-0.0134754
-0.0146545
-0.0141875
-0.0136145
-0.0135347
-0.0117025
-0.012535
-0.0125348
-0.0130834
-0.0111371
-0.0129291
-0.0129289
-0.0131281
-0.0134709
-0.0138015
-0.0134045
-0.0133398
-0.0132724
-0.0131547
-0.0131281
-0.0134711
-0.0138017
-0.0134047
-0.0133399
-0.0132724
-0.0131549
-0.0110894
-0.012102
-0.012102
-0.0103892
-0.0128939
-0.0107096
-0.0107094
-0.0104931
-0.0138999
-0.0119253
-0.0122053
-0.0126528
-0.0128082
-0.00985769
-0.0104927
-0.0138996
-0.0119253
-0.0122055
-0.0126524
-0.0128082
-0.00985745
-0.0124374
-0.01298
-0.0132581
-0.0122965
-0.012171
-0.0133033
-0.0132518
-0.0124371
-0.0129801
-0.0132581
-0.0122964
-0.0121708
-0.0133034
-0.0132519
-0.0137189
-0.0137179
-0.0130169
-0.013485
-0.0141203
-0.0141199
-0.013749
-0.0142747
-0.013591
-0.0139972
-0.0137316
-0.0135184
-0.0140289
-0.0137211
-0.014275
-0.0135914
-0.0139972
-0.0137312
-0.0135188
-0.0140294
-0.0137217
-0.00923619
-0.0135847
-0.0135846
-0.0146762
-0.0124304
-0.012508
-0.0125083
-0.00533768
-0.00533728
-0.00634036
-0.0126879
-0.0149392
-0.0144722
-0.0144721
)
;

boundaryField
{
    inlet
    {
        type            fixedValue;
        value           uniform 0;
    }
    wall
    {
        type            zeroGradient;
    }
    outlet
    {
        type            fixedValue;
        value           uniform 0;
    }
    procBoundary0to1
    {
        type            processor;
        value           nonuniform List<scalar> 
320
(
-0.000409046
-0.000408688
-0.000408657
-0.000408506
-0.000408529
-0.0007917
-0.000791585
-0.000791501
-0.000791438
-0.000791403
-0.00191324
-0.0019128
-0.00191262
-0.00191237
-0.00191229
-0.00245415
-0.00245377
-0.00245353
-0.00245328
-0.00245315
-0.00350438
-0.00350374
-0.0035034
-0.003503
-0.00350283
-0.00411896
-0.0041182
-0.00411776
-0.0041173
-0.00411708
-0.00510443
-0.00510335
-0.00510276
-0.00510212
-0.00510185
-0.00577188
-0.00577048
-0.0057697
-0.00576888
-0.00576853
-0.00670606
-0.00670412
-0.00670308
-0.00670198
-0.00670151
-0.00741086
-0.00740826
-0.00740686
-0.00740544
-0.00740485
-0.00830154
-0.00829798
-0.00829616
-0.00829429
-0.00829357
-0.00902932
-0.00902449
-0.00902205
-0.00901962
-0.0090187
-0.00987794
-0.00987155
-0.00986876
-0.00986585
-0.0098649
-0.0106107
-0.0106023
-0.0105994
-0.010596
-0.010595
-0.0114072
-0.0113982
-0.0113981
-0.0113982
-0.0113999
-0.0121072
-0.0120982
-0.0121032
-0.0121157
-0.0121284
-0.0127998
-0.0127941
-0.012807
-0.0128154
-0.0128216
-0.0133562
-0.0133452
-0.0133414
-0.0133346
-0.0133297
-0.0138036
-0.0137709
-0.0137522
-0.0137309
-0.0137196
-0.0140841
-0.0140078
-0.0139436
-0.0138962
-0.0138368
-0.014267
-0.0141533
-0.0140792
-0.0140196
-0.0139683
-0.0143176
-0.014157
-0.0140033
-0.0139399
-0.0137466
-0.0143266
-0.0141796
-0.0140866
-0.0140268
-0.0138786
-0.0142922
-0.0141187
-0.0139095
-0.0139412
-0.013534
-0.0142134
-0.0139756
-0.0137831
-0.0135729
-0.0124645
-0.0142027
-0.0139574
-0.0136976
-0.0132812
-0.0117237
-0.014086
-0.0140499
-0.0140472
-0.0140612
-0.0171994
-0.0141064
-0.0138708
-0.013788
-0.0134775
-0.0139165
-0.0136744
-0.0134825
-0.0133749
-0.0135607
-0.013065
-0.0137957
-0.0136918
-0.0138553
-0.013599
-0.0122923
-0.0131116
-0.0130905
-0.0132569
-0.0133961
-0.0147335
-0.0130819
-0.0130102
-0.0132103
-0.0130237
-0.012855
-0.0120631
-0.0120366
-0.0121213
-0.01217
-0.0120575
-0.0116292
-0.0116249
-0.0115977
-0.0116454
-0.0116323
-0.00980564
-0.00979094
-0.0098202
-0.00988646
-0.00986165
-0.00883135
-0.00886089
-0.00890647
-0.00908628
-0.00920045
-0.00636051
-0.00638855
-0.00644911
-0.00652713
-0.00657935
-0.00520043
-0.0052346
-0.00531185
-0.00545207
-0.00553476
-0.0021688
-0.00217386
-0.00219497
-0.0021823
-0.00214858
-0.00115623
-0.00118492
-0.00121203
-0.00133874
-0.00144879
-0.0155312
-0.0137069
-0.0131829
-0.0131811
-0.0155264
-0.0155443
-0.0115764
-0.0116801
-0.0107759
-0.0142355
-0.0125152
-0.0127564
-0.013782
-0.0134203
-0.0135721
-0.0141948
-0.0134966
-0.0131028
-0.0149084
-0.0149766
-0.0144719
-0.01429
-0.0137687
-0.0141247
-0.0141151
-0.0145655
-0.0134312
-0.0158012
-0.0148962
-0.0149822
-0.0151356
-0.0156347
-0.0135444
-0.0147842
-0.0152496
-0.0151787
-0.0147696
-0.0147165
-0.0139845
-0.0150475
-0.0156477
-0.0151651
-0.0155303
-0.0151805
-0.0150446
-0.0138595
-0.0149593
-0.0137572
-0.0165577
-0.0154057
-0.0156291
-0.00286821
-0.0134466
-0.0144539
-0.0153356
-0.0156102
-0.0154166
-0.0163616
-0.0160711
-0.0159629
-0.0136607
-0.0141163
-0.0143918
-0.0143049
-0.0145034
-0.0133758
-0.0138031
-0.0149199
-0.0156898
-0.0137979
-0.0142918
-0.0143667
-0.0142752
-0.0116286
-0.0103415
-0.0121057
-0.0151342
-0.0139626
-0.0147669
-0.0141789
-0.014381
-0.012287
-0.0144185
-0.0157598
-0.0117836
-0.0104597
-0.0100006
-0.0125481
-0.0126301
-0.0129588
-0.0121224
-0.00930761
-0.0119873
-0.0140185
-0.0137915
-0.013246
-0.00956154
-0.00501821
-0.0131176
-0.00477668
-0.00676163
-0.00568316
-0.0076499
-0.0105057
-0.0123222
-0.0135685
-0.0135316
-0.014652
-0.0103488
-0.0105858
-0.0121026
-0.0118941
-0.00979977
-0.0121548
-0.0129917
-0.013249
-0.0122893
-0.0053235
-0.0144714
-0.0148934
)
;
    }
    procBoundary0to2
    {
        type            processor;
        value           nonuniform List<scalar> 
320
(
-0.00040905
-0.000408691
-0.000408659
-0.000408507
-0.00040853
-0.000791706
-0.00079159
-0.000791505
-0.00079144
-0.000791404
-0.00191326
-0.00191281
-0.00191262
-0.00191237
-0.00191229
-0.00245417
-0.00245378
-0.00245354
-0.00245328
-0.00245315
-0.0035044
-0.00350375
-0.00350341
-0.00350301
-0.00350283
-0.00411898
-0.00411822
-0.00411778
-0.00411731
-0.00411709
-0.00510446
-0.00510337
-0.00510277
-0.00510213
-0.00510186
-0.00577192
-0.00577051
-0.00576972
-0.0057689
-0.00576854
-0.00670611
-0.00670416
-0.00670311
-0.006702
-0.00670153
-0.00741092
-0.00740831
-0.0074069
-0.00740547
-0.00740487
-0.00830161
-0.00829803
-0.0082962
-0.00829432
-0.00829358
-0.00902942
-0.00902456
-0.00902211
-0.00901966
-0.00901872
-0.00987803
-0.00987162
-0.00986882
-0.00986588
-0.00986492
-0.0106108
-0.0106025
-0.0105994
-0.010596
-0.010595
-0.0114073
-0.0113983
-0.0113982
-0.0113982
-0.0113999
-0.0121074
-0.0120983
-0.0121034
-0.0121158
-0.0121285
-0.0128
-0.0127942
-0.0128071
-0.0128155
-0.0128216
-0.0133566
-0.0133455
-0.0133417
-0.0133348
-0.0133299
-0.013804
-0.0137712
-0.0137526
-0.0137311
-0.0137197
-0.0140848
-0.0140083
-0.0139441
-0.0138964
-0.013837
-0.0142675
-0.0141537
-0.0140796
-0.0140198
-0.0139684
-0.0143185
-0.0141576
-0.0140039
-0.0139402
-0.0137468
-0.0143271
-0.01418
-0.0140869
-0.0140271
-0.0138788
-0.0142932
-0.0141194
-0.0139101
-0.0139416
-0.0135342
-0.0142138
-0.013976
-0.0137835
-0.0135732
-0.0124645
-0.0142038
-0.0139582
-0.0136981
-0.013283
-0.0117241
-0.0140865
-0.0140504
-0.0140476
-0.0140621
-0.0172005
-0.0141075
-0.0138715
-0.013789
-0.0134781
-0.0139167
-0.0136748
-0.0134831
-0.0133757
-0.0135609
-0.0130653
-0.0137964
-0.0136922
-0.0138562
-0.0135996
-0.0122921
-0.0131119
-0.0130908
-0.0132573
-0.0133964
-0.0147332
-0.0130825
-0.0130105
-0.0132107
-0.013024
-0.0128553
-0.0120633
-0.0120367
-0.0121214
-0.0121701
-0.0120575
-0.0116294
-0.011625
-0.0115978
-0.0116454
-0.0116322
-0.0098056
-0.00979096
-0.00982025
-0.00988649
-0.0098616
-0.00883124
-0.0088608
-0.00890637
-0.00908623
-0.00920038
-0.00636055
-0.00638857
-0.00644904
-0.00652702
-0.00657923
-0.0052002
-0.0052345
-0.00531172
-0.00545199
-0.00553466
-0.00216874
-0.00217386
-0.00219496
-0.00218221
-0.00214856
-0.00115593
-0.00118478
-0.00121184
-0.00133862
-0.00144865
-0.0131829
-0.0137071
-0.0155311
-0.0155439
-0.0155263
-0.0131811
-0.0107763
-0.0116801
-0.0115762
-0.0127559
-0.0125144
-0.0142355
-0.0135721
-0.0134196
-0.0137825
-0.0131031
-0.0134968
-0.0141952
-0.0144718
-0.0149765
-0.0149085
-0.0141249
-0.0137694
-0.0142904
-0.0134315
-0.0145655
-0.0141153
-0.0149819
-0.0148961
-0.0158012
-0.0135443
-0.0156346
-0.0151355
-0.0151788
-0.0152498
-0.0147842
-0.0139847
-0.0147163
-0.0147704
-0.0151651
-0.0156481
-0.0150479
-0.0150445
-0.0151804
-0.0155302
-0.0137576
-0.0149592
-0.0138594
-0.0156289
-0.0154056
-0.0165576
-0.0144548
-0.0134468
-0.00286755
-0.015417
-0.0156105
-0.0153358
-0.0159636
-0.0160715
-0.0163622
-0.014392
-0.0141165
-0.0136608
-0.0133759
-0.0145034
-0.0143049
-0.0156897
-0.0149199
-0.0138034
-0.0143667
-0.014292
-0.0137982
-0.0103415
-0.0116287
-0.0142754
-0.0139632
-0.0151346
-0.0121065
-0.0143816
-0.0141792
-0.0147674
-0.0157601
-0.0144185
-0.0122868
-0.0100003
-0.0104596
-0.0117836
-0.0129589
-0.0126299
-0.012548
-0.0119872
-0.00930733
-0.0121228
-0.0132462
-0.0137918
-0.0140185
-0.0131178
-0.00501802
-0.00956171
-0.00568278
-0.00676133
-0.00477646
-0.0123222
-0.0105053
-0.00764987
-0.0146526
-0.0135322
-0.0135688
-0.0121024
-0.0105853
-0.0103485
-0.012155
-0.00979957
-0.0118941
-0.0122891
-0.0132491
-0.0129919
-0.0148934
-0.0144716
-0.00532333
)
;
    }
}


// ************************************************************************* //
