/*--------------------------------*- C++ -*----------------------------------*\
| =========                 |                                                 |
| \\      /  F ield         | OpenFOAM: The Open Source CFD Toolbox           |
|  \\    /   O peration     | Version:  5.x                                   |
|   \\  /    A nd           | Web:      www.OpenFOAM.org                      |
|    \\/     M anipulation  |                                                 |
\*---------------------------------------------------------------------------*/
FoamFile
{
    version     2.0;
    format      ascii;
    class       volScalarField;
    location    "0.13";
    object      Ksl;
}
// * * * * * * * * * * * * * * * * * * * * * * * * * * * * * * * * * * * * * //

dimensions      [1 -3 -1 0 0 0 0];

internalField   nonuniform List<scalar> 
320
(
0.00119714
0.018208
0.00987002
0.000436293
0.0195735
0.355706
0.160153
0.0095441
0.316564
2.95433
1.27011
0.160855
1.71263
3.12964
1.50583
0.842077
0.0787431
1.10051
0.583774
0.0404439
0.00183738
0.0357056
0.0172368
0.000901778
3.71479e-05
0.000738085
0.000333605
1.99124e-05
7.37316e-07
1.50175e-05
6.64771e-06
4.43425e-07
0
0
0
0
0
0
0
0
0
0
0
0
0
0
0
0
0
0
0
0
0
0
0
0
0
0
0
0
0
0
0
0
0
0
0
0
0
0
0
0
0
0
0
0
0
0
0
0
0.018208
0.078001
0.093349
0.0282824
0.355706
22.1184
1.88837
0.315256
2.95433
3.29782
1.55597
1.42112
3.12964
3.19698
1.51196
1.4823
1.10051
4.8105
1.78788
0.57424
0.0357056
0.170107
0.225559
0.0147033
0.000738085
0.0021621
0.00259643
0.00028546
1.50175e-05
3.21173e-05
3.64455e-05
5.68888e-06
0
5.37275e-07
5.82849e-07
0
0
0
0
0
0
0
0
0
0
0
0
0
0
0
0
0
0
0
0
0
0
0
0
0
0
0
0
0
0
0
0
0
0
0
0
0
0
0
0
0
0
0
0
0
0.00987002
0.093349
0.130594
0.00496334
0.160153
1.88837
0.967503
0.116198
1.27011
1.55597
1.03218
0.826978
1.50583
1.51196
1.01069
0.998126
0.583774
1.78788
1.1172
0.396524
0.0172368
0.225559
0.324836
0.0108358
0.000333605
0.00259643
0.0033104
0.000202613
6.64771e-06
3.64455e-05
4.1895e-05
3.99265e-06
0
5.82849e-07
6.49684e-07
0
0
0
0
0
0
0
0
0
0
0
0
0
0
0
0
0
0
0
0
0
0
0
0
0
0
0
0
0
0
0
0
0
0
0
0
0
0
0
0
0
0
0
0
0
0.000436293
0.0282824
0.00496334
0.000217087
0.0095441
0.315256
0.116198
0.00612982
0.160855
1.42112
0.826978
0.107004
0.842077
1.4823
0.998126
0.570459
0.0404439
0.57424
0.396524
0.0280837
0.000901778
0.0147033
0.0108358
0.000620651
1.99124e-05
0.00028546
0.000202613
1.35674e-05
4.43425e-07
5.68888e-06
3.99265e-06
0
0
0
0
0
0
0
0
0
0
0
0
0
0
0
0
0
0
0
0
0
0
0
0
0
0
0
0
0
0
0
0
0
0
0
0
0
0
0
0
0
0
0
0
0
0
0
0
0
)
;

boundaryField
{
    inlet
    {
        type            zeroGradient;
    }
    outlet
    {
        type            zeroGradient;
    }
    walls
    {
        type            zeroGradient;
    }
}


// ************************************************************************* //
