/*--------------------------------*- C++ -*----------------------------------*\
| =========                 |                                                 |
| \\      /  F ield         | OpenFOAM: The Open Source CFD Toolbox           |
|  \\    /   O peration     | Version:  5.x                                   |
|   \\  /    A nd           | Web:      www.OpenFOAM.org                      |
|    \\/     M anipulation  |                                                 |
\*---------------------------------------------------------------------------*/
FoamFile
{
    version     2.0;
    format      ascii;
    class       volScalarField;
    location    "0.13";
    object      p;
}
// * * * * * * * * * * * * * * * * * * * * * * * * * * * * * * * * * * * * * //

dimensions      [0 2 -2 0 0 0 0];

internalField   nonuniform List<scalar> 
320
(
-2.15254e-07
8.24136e-08
-1.33417e-07
-3.08926e-07
-8.63833e-07
7.29612e-07
-3.67254e-07
-1.19072e-06
-3.27034e-06
-6.41907e-07
-2.28848e-06
-3.6442e-06
-8.78882e-06
-6.5162e-06
-8.0044e-06
-8.20469e-06
-1.54948e-05
-1.74934e-05
-1.61047e-05
-1.41016e-05
-1.79207e-05
-2.02896e-05
-1.8141e-05
-1.7135e-05
-1.83686e-05
-1.92217e-05
-1.82683e-05
-1.81542e-05
-1.88744e-05
-1.93724e-05
-1.88475e-05
-1.88567e-05
-1.94043e-05
-1.98609e-05
-1.94387e-05
-1.94486e-05
-1.9907e-05
-2.02895e-05
-2.0007e-05
-1.99641e-05
-2.02091e-05
-2.04714e-05
-2.03226e-05
-2.02592e-05
-2.03011e-05
-2.04357e-05
-2.03468e-05
-2.03392e-05
-2.04144e-05
-2.04887e-05
-2.04481e-05
-2.04383e-05
-2.04015e-05
-2.04351e-05
-2.04115e-05
-2.04155e-05
-2.04694e-05
-2.04897e-05
-2.04784e-05
-2.04778e-05
-2.04326e-05
-2.04405e-05
-2.04343e-05
-2.04366e-05
-2.04776e-05
-2.04831e-05
-2.04801e-05
-2.04802e-05
-2.04477e-05
-2.04498e-05
-2.0448e-05
-2.0449e-05
-2.0472e-05
-2.04736e-05
-2.04731e-05
-2.04731e-05
-2.04579e-05
-2.04601e-05
-2.04594e-05
-2.04587e-05
8.24136e-08
8.67024e-07
3.16901e-07
-1.2823e-07
7.29612e-07
4.56294e-06
1.98831e-06
9.35379e-08
-6.41907e-07
1.13641e-05
4.45991e-06
-1.74524e-06
-6.5162e-06
3.17951e-06
-3.61955e-06
-5.98101e-06
-1.74934e-05
-2.8194e-05
-2.23068e-05
-1.50584e-05
-2.02896e-05
-2.87464e-05
-2.28757e-05
-1.92542e-05
-1.92217e-05
-2.12201e-05
-1.91345e-05
-1.91558e-05
-1.93724e-05
-2.04719e-05
-1.93808e-05
-1.93871e-05
-1.98609e-05
-2.04248e-05
-1.97882e-05
-1.98688e-05
-2.02895e-05
-2.05874e-05
-2.02063e-05
-2.03133e-05
-2.04714e-05
-2.06338e-05
-2.04259e-05
-2.05012e-05
-2.04357e-05
-2.05733e-05
-2.04453e-05
-2.04765e-05
-2.04887e-05
-2.05472e-05
-2.04942e-05
-2.05086e-05
-2.04351e-05
-2.04752e-05
-2.04392e-05
-2.0451e-05
-2.04897e-05
-2.05063e-05
-2.0493e-05
-2.04973e-05
-2.04405e-05
-2.04504e-05
-2.04412e-05
-2.04439e-05
-2.04831e-05
-2.04873e-05
-2.04842e-05
-2.04856e-05
-2.04498e-05
-2.04524e-05
-2.04502e-05
-2.0451e-05
-2.04736e-05
-2.04752e-05
-2.04747e-05
-2.04753e-05
-2.04601e-05
-2.04626e-05
-2.04618e-05
-2.04608e-05
-1.33417e-07
3.16901e-07
-1.1859e-07
-2.566e-07
-3.67254e-07
1.98831e-06
8.6381e-07
-7.39705e-07
-2.28848e-06
4.45991e-06
1.69571e-06
-2.73554e-06
-8.0044e-06
-3.61955e-06
-5.85087e-06
-7.47605e-06
-1.61047e-05
-2.23068e-05
-1.99362e-05
-1.46985e-05
-1.8141e-05
-2.28757e-05
-2.08618e-05
-1.76883e-05
-1.82683e-05
-1.91345e-05
-1.81941e-05
-1.8224e-05
-1.88475e-05
-1.93808e-05
-1.88404e-05
-1.88676e-05
-1.94387e-05
-1.97882e-05
-1.94352e-05
-1.94595e-05
-2.0007e-05
-2.02063e-05
-2.00047e-05
-2.00344e-05
-2.03226e-05
-2.04259e-05
-2.03317e-05
-2.03574e-05
-2.03468e-05
-2.04453e-05
-2.03546e-05
-2.03738e-05
-2.04481e-05
-2.04942e-05
-2.04647e-05
-2.04649e-05
-2.04115e-05
-2.04392e-05
-2.0413e-05
-2.04222e-05
-2.04784e-05
-2.0493e-05
-2.04855e-05
-2.0485e-05
-2.04343e-05
-2.04412e-05
-2.04335e-05
-2.04375e-05
-2.04801e-05
-2.04842e-05
-2.04827e-05
-2.04824e-05
-2.0448e-05
-2.04502e-05
-2.04477e-05
-2.04492e-05
-2.04731e-05
-2.04747e-05
-2.04742e-05
-2.0474e-05
-2.04594e-05
-2.04618e-05
-2.04613e-05
-2.04601e-05
-3.08926e-07
-1.2823e-07
-2.566e-07
-3.79335e-07
-1.19072e-06
9.35379e-08
-7.39705e-07
-1.41276e-06
-3.6442e-06
-1.74524e-06
-2.73554e-06
-3.82933e-06
-8.20469e-06
-5.98101e-06
-7.47605e-06
-7.94069e-06
-1.41016e-05
-1.50584e-05
-1.46985e-05
-1.33994e-05
-1.7135e-05
-1.92542e-05
-1.76883e-05
-1.67308e-05
-1.81542e-05
-1.91558e-05
-1.8224e-05
-1.80101e-05
-1.88567e-05
-1.93871e-05
-1.88676e-05
-1.88264e-05
-1.94486e-05
-1.98688e-05
-1.94595e-05
-1.947e-05
-1.99641e-05
-2.03133e-05
-2.00344e-05
-1.9995e-05
-2.02592e-05
-2.05012e-05
-2.03574e-05
-2.02911e-05
-2.03392e-05
-2.04765e-05
-2.03738e-05
-2.03633e-05
-2.04383e-05
-2.05086e-05
-2.04649e-05
-2.04536e-05
-2.04155e-05
-2.0451e-05
-2.04222e-05
-2.04254e-05
-2.04778e-05
-2.04973e-05
-2.0485e-05
-2.04841e-05
-2.04366e-05
-2.04439e-05
-2.04375e-05
-2.04395e-05
-2.04802e-05
-2.04856e-05
-2.04824e-05
-2.04827e-05
-2.0449e-05
-2.0451e-05
-2.04492e-05
-2.04496e-05
-2.04731e-05
-2.04753e-05
-2.0474e-05
-2.04739e-05
-2.04587e-05
-2.04608e-05
-2.04601e-05
-2.0459e-05
)
;

boundaryField
{
    inlet
    {
        type            zeroGradient;
    }
    outlet
    {
        type            totalPressure;
        rho             rho;
        psi             none;
        gamma           1;
        p0              uniform 0;
        value           nonuniform List<scalar> 
16
(
-5.0724e-12
0
-4.17059e-12
-9.13695e-12
0
0
0
-4.66901e-13
-4.17059e-12
0
0
-7.03895e-12
-9.13695e-12
-4.66901e-13
-7.03895e-12
-1.38315e-11
)
;
    }
    walls
    {
        type            zeroGradient;
    }
}


// ************************************************************************* //
