/*--------------------------------*- C++ -*----------------------------------*\
| =========                 |                                                 |
| \\      /  F ield         | OpenFOAM: The Open Source CFD Toolbox           |
|  \\    /   O peration     | Version:  5.x                                   |
|   \\  /    A nd           | Web:      www.OpenFOAM.org                      |
|    \\/     M anipulation  |                                                 |
\*---------------------------------------------------------------------------*/
FoamFile
{
    version     2.0;
    format      ascii;
    class       surfaceScalarField;
    location    "0.13";
    object      phi;
}
// * * * * * * * * * * * * * * * * * * * * * * * * * * * * * * * * * * * * * //

dimensions      [0 3 -1 0 0 0 0];

internalField   nonuniform List<scalar> 
784
(
-5.41294e-12
2.8029e-11
-5.41294e-12
5.66557e-12
-1.31836e-11
-1.19001e-11
6.57782e-12
1.93778e-11
-7.79819e-12
3.66721e-11
-4.52544e-12
-2.24499e-11
7.29289e-11
-2.24499e-11
2.04857e-11
-3.85029e-12
-5.2269e-11
2.30914e-11
5.30717e-11
-3.62996e-11
7.91209e-11
-1.93574e-11
-4.23247e-11
1.57578e-10
-4.23247e-11
3.37439e-11
6.58475e-11
-1.45766e-10
4.49947e-11
1.26425e-10
-8.46042e-11
1.60769e-10
-3.66538e-11
-1.06461e-10
3.705e-10
-1.06461e-10
7.11092e-11
3.33156e-10
-4.44879e-10
1.0593e-10
3.62826e-10
-2.71222e-10
3.59659e-10
-9.29599e-11
-8.38333e-11
5.38166e-10
-8.38333e-11
5.52926e-11
5.08126e-10
-3.14096e-10
9.32529e-11
5.25113e-10
-2.00247e-10
5.31744e-10
-7.88319e-11
-1.38832e-11
5.65933e-10
-1.38832e-11
1.28538e-11
4.45717e-10
3.56723e-11
2.64141e-11
5.1472e-10
-3.16782e-12
5.71571e-10
-1.3413e-11
1.55234e-11
5.34886e-10
1.55234e-11
-1.39168e-11
3.60932e-10
1.14225e-10
-1.02909e-11
4.66101e-10
4.49928e-11
5.49342e-10
1.19383e-11
3.43307e-11
4.66225e-10
3.43307e-11
-2.95705e-11
2.88011e-10
1.36822e-10
-3.34383e-11
4.03434e-10
6.65354e-11
4.86198e-10
2.97054e-11
4.29039e-11
3.80417e-10
4.29039e-11
-6.01393e-11
2.25148e-10
1.65906e-10
-5.38657e-11
3.43693e-10
5.34673e-11
4.00147e-10
3.21856e-11
7.38866e-11
2.32644e-10
7.38866e-11
-5.87512e-11
1.18831e-10
2.38955e-10
-8.7552e-11
2.09424e-10
1.6307e-10
2.46399e-10
6.61961e-11
6.58795e-11
1.00885e-10
6.58795e-11
-2.79632e-11
2.66873e-11
1.85987e-10
-7.28656e-11
7.53099e-11
1.79016e-10
1.08178e-10
6.5355e-11
2.48001e-11
5.12843e-11
2.48001e-11
-1.70709e-11
6.75911e-12
6.17992e-11
-2.88168e-11
3.2096e-11
5.49598e-11
5.52503e-11
2.41113e-11
1.6034e-11
1.92163e-11
1.6034e-11
-7.5933e-12
-2.82387e-13
3.06688e-11
-1.79295e-11
1.17317e-11
3.07006e-11
2.14383e-11
1.58825e-11
4.68483e-12
9.84661e-12
4.68483e-12
-4.04029e-12
-1.52071e-12
9.96343e-12
-5.79436e-12
4.76903e-12
8.71674e-12
1.11037e-11
4.54023e-12
3.29879e-12
3.24902e-12
3.29879e-12
-1.93229e-12
-8.55389e-13
4.56575e-12
-3.90279e-12
1.94929e-12
4.79024e-12
3.89899e-12
3.30193e-12
7.43368e-13
1.76228e-12
7.43368e-13
-9.76005e-13
-7.12973e-13
1.57695e-12
-1.05386e-12
6.87384e-13
1.33975e-12
2.18155e-12
6.63572e-13
6.4495e-13
4.72378e-13
6.4495e-13
-4.56999e-13
-3.00745e-13
6.89719e-13
-8.58129e-13
3.35854e-13
7.52661e-13
6.47754e-13
6.75671e-13
1.14883e-13
2.42611e-13
1.14883e-13
-2.53529e-13
-1.88472e-13
2.56143e-13
-1.92141e-13
6.6943e-14
2.07528e-13
3.72124e-13
8.34921e-14
1.35589e-13
-2.85641e-14
1.35589e-13
-1.11993e-13
-7.67862e-14
1.35907e-13
-2.21959e-13
3.82759e-14
1.38642e-13
7.07279e-15
1.43098e-13
-1.42787e-14
-1.42787e-14
-7.77471e-14
-1.33068e-14
-2.32614e-14
-1.62017e-14
-1.61837e-14
-1.19001e-11
-1.31836e-11
5.66557e-12
1.02532e-11
-1.2481e-10
1.02532e-11
1.27849e-11
-4.83322e-11
7.49512e-12
4.35569e-12
4.64639e-12
-5.2269e-11
-3.85029e-12
2.04857e-11
4.02031e-11
-3.09754e-10
4.02031e-11
5.25789e-11
-1.18423e-10
2.1415e-11
2.14523e-11
1.61249e-11
-1.45766e-10
6.58475e-11
3.37439e-11
9.64887e-11
-7.94265e-10
9.64887e-11
1.2863e-10
-2.84735e-10
4.95667e-11
8.57415e-11
2.76869e-11
-4.44879e-10
3.33156e-10
7.11092e-11
2.47728e-10
-2.17948e-09
2.47728e-10
4.26802e-10
-8.40854e-10
1.05823e-10
3.63441e-10
5.61435e-11
-3.14096e-10
5.08126e-10
5.52926e-11
1.83944e-10
-3.17556e-09
1.83944e-10
3.5709e-10
-1.29722e-09
8.29698e-11
5.9368e-10
4.80192e-11
3.56723e-11
4.45717e-10
1.28538e-11
1.62593e-11
-3.13673e-09
1.62593e-11
9.86223e-12
-1.3116e-09
1.76127e-11
5.78112e-10
1.20164e-11
1.14225e-10
3.60932e-10
-1.39168e-11
-5.49095e-11
-2.79847e-09
-5.49095e-11
-8.04366e-11
-1.22215e-09
-1.89279e-11
5.21894e-10
-1.22799e-11
1.36822e-10
2.88011e-10
-2.95705e-11
-8.64855e-11
-2.35185e-09
-8.64855e-11
-1.23661e-10
-1.07477e-09
-4.36701e-11
4.54598e-10
-2.66596e-11
1.65906e-10
2.25148e-10
-6.01393e-11
-1.67223e-10
-1.68559e-09
-1.67223e-10
-1.96995e-10
-8.74785e-10
-1.16746e-10
3.44851e-10
-5.50631e-11
2.38955e-10
1.18831e-10
-5.87512e-11
-1.65775e-10
-8.76133e-10
-1.65775e-10
-2.8337e-10
-5.07896e-10
-8.62243e-11
1.7515e-10
-4.74724e-11
1.85987e-10
2.66873e-11
-2.79632e-11
-7.56522e-11
-3.52855e-10
-7.56522e-11
-2.05621e-10
-1.90762e-10
-8.14899e-12
5.2544e-11
-1.76595e-11
6.17992e-11
6.75911e-12
-1.70709e-11
-3.75741e-11
-1.54108e-10
-3.75741e-11
-7.18981e-11
-8.63015e-11
-1.51769e-11
1.88538e-11
-1.40966e-11
3.06688e-11
-2.82387e-13
-7.5933e-12
-1.55417e-11
-6.16871e-11
-1.55417e-11
-3.55214e-11
-3.14032e-11
-4.21797e-12
5.09227e-12
-5.87746e-12
9.96343e-12
-1.52071e-12
-4.04029e-12
-7.66425e-12
-2.64318e-11
-7.66425e-12
-1.21168e-11
-1.42125e-11
-4.02142e-12
1.21888e-12
-3.70321e-12
4.56575e-12
-8.55389e-13
-1.93229e-12
-3.04684e-12
-1.12066e-11
-3.04684e-12
-5.69906e-12
-5.29123e-12
-1.47882e-12
5.61739e-13
-1.74e-12
1.57695e-12
-7.12973e-13
-9.76005e-13
-1.7234e-12
-4.60591e-12
-1.7234e-12
-2.22137e-12
-2.40963e-12
-1.04387e-12
-1.38267e-13
-8.57793e-13
6.89719e-13
-3.00745e-13
-4.56999e-13
-5.68912e-13
-2.08865e-12
-5.68912e-13
-9.28657e-13
-8.79064e-13
-4.18158e-13
1.01341e-13
-4.92592e-13
2.56143e-13
-1.88472e-13
-2.53529e-13
-4.23719e-13
-7.28916e-13
-4.23719e-13
-4.50867e-13
-3.61548e-13
-2.82834e-13
-7.01682e-14
-1.95861e-13
1.35907e-13
-7.67862e-14
-1.11993e-13
-1.27149e-13
-2.02792e-13
-1.27149e-13
-2.12556e-13
-2.96269e-15
-1.34527e-13
3.72008e-15
-1.4334e-13
-1.33068e-14
-7.77471e-14
-1.14697e-13
-1.14697e-13
-5.53037e-14
-7.855e-14
-6.7765e-14
-7.79819e-12
1.93778e-11
6.57782e-12
7.49512e-12
-4.83322e-11
1.27849e-11
7.91362e-12
-2.3631e-12
7.91362e-12
2.87484e-11
5.70531e-12
-3.62996e-11
5.30717e-11
2.30914e-11
2.1415e-11
-1.18423e-10
5.25789e-11
3.98332e-11
-3.91995e-11
3.98332e-11
6.41899e-11
2.05166e-11
-8.46042e-11
1.26425e-10
4.49947e-11
4.95667e-11
-2.84735e-10
1.2863e-10
8.09671e-11
-1.02e-10
8.09671e-11
1.32893e-10
3.99514e-11
-2.71222e-10
3.62826e-10
1.0593e-10
1.05823e-10
-8.40854e-10
4.26802e-10
2.7302e-10
-4.36394e-10
2.7302e-10
3.6836e-10
9.36962e-11
-2.00247e-10
5.25113e-10
9.32529e-11
8.29698e-11
-1.29722e-09
3.5709e-10
2.20013e-10
-7.10481e-10
2.20013e-10
5.51969e-10
8.44239e-11
-3.16782e-12
5.1472e-10
2.64141e-11
1.76127e-11
-1.3116e-09
9.86223e-12
1.73587e-11
-7.09973e-10
1.73587e-11
5.58237e-10
2.31072e-11
4.49928e-11
4.66101e-10
-1.02909e-11
-1.89279e-11
-1.22215e-09
-8.04366e-11
-3.32696e-11
-6.8129e-10
-3.32696e-11
5.21627e-10
-8.93935e-12
6.65354e-11
4.03434e-10
-3.34383e-11
-4.36701e-11
-1.07477e-09
-1.23661e-10
-6.54537e-11
-6.37723e-10
-6.54537e-11
4.59832e-10
-3.03192e-11
5.34673e-11
3.43693e-10
-5.38657e-11
-1.16746e-10
-8.74785e-10
-1.96995e-10
-8.63884e-11
-6.98439e-10
-8.63884e-11
3.62147e-10
-4.3766e-11
1.6307e-10
2.09424e-10
-8.7552e-11
-8.62243e-11
-5.07896e-10
-2.8337e-10
-1.86854e-10
-4.97179e-10
-1.86854e-10
2.0396e-10
-7.61391e-11
1.79016e-10
7.53099e-11
-7.28656e-11
-8.14899e-12
-1.90762e-10
-2.05621e-10
-1.75625e-10
-1.62228e-10
-1.75625e-10
7.90202e-11
-6.83446e-11
5.49598e-11
3.2096e-11
-2.88168e-11
-1.51769e-11
-8.63015e-11
-7.18981e-11
-5.74301e-11
-7.7722e-11
-5.74301e-11
3.44725e-11
-2.6979e-11
3.07006e-11
1.17317e-11
-1.79295e-11
-4.21797e-12
-3.14032e-11
-3.55214e-11
-3.18411e-11
-2.24758e-11
-3.18411e-11
1.4096e-11
-1.7342e-11
8.71674e-12
4.76903e-12
-5.79436e-12
-4.02142e-12
-1.42125e-11
-1.21168e-11
-9.81622e-12
-1.08862e-11
-9.81622e-12
6.16011e-12
-5.58356e-12
4.79024e-12
1.94929e-12
-3.90279e-12
-1.47882e-12
-5.29123e-12
-5.69906e-12
-5.56366e-12
-2.71649e-12
-5.56366e-12
2.76517e-12
-3.90871e-12
1.33975e-12
6.87384e-13
-1.05386e-12
-1.04387e-12
-2.40963e-12
-2.22137e-12
-1.66302e-12
-1.47818e-12
-1.66302e-12
1.22738e-12
-9.83029e-13
7.52661e-13
3.35854e-13
-8.58129e-13
-4.18158e-13
-8.79064e-13
-9.28657e-13
-1.07872e-12
-1.57066e-13
-1.07872e-12
5.58423e-13
-9.02349e-13
2.07528e-13
6.6943e-14
-1.92141e-13
-2.82834e-13
-3.61548e-13
-4.50867e-13
-2.82956e-13
-1.56818e-13
-2.82956e-13
2.47005e-13
-1.67398e-13
1.38642e-13
3.82759e-14
-2.21959e-13
-1.34527e-13
-2.96269e-15
-2.12556e-13
-2.61009e-13
9.6152e-14
-2.61009e-13
7.50483e-14
-2.32388e-13
-1.62017e-14
-2.32614e-14
-7.855e-14
-5.53037e-14
-3.04716e-14
-3.04716e-14
-2.31869e-14
-4.52544e-12
3.66721e-11
4.64639e-12
4.35569e-12
5.70531e-12
2.87484e-11
4.38689e-11
-1.93574e-11
7.91209e-11
1.61249e-11
2.14523e-11
2.05166e-11
6.41899e-11
8.49021e-11
-3.66538e-11
1.60769e-10
2.76869e-11
8.57415e-11
3.99514e-11
1.32893e-10
1.64805e-10
-9.29599e-11
3.59659e-10
5.61435e-11
3.63441e-10
9.36962e-11
3.6836e-10
3.52197e-10
-7.88319e-11
5.31744e-10
4.80192e-11
5.9368e-10
8.44239e-11
5.51969e-10
5.21045e-10
-1.3413e-11
5.71571e-10
1.20164e-11
5.78112e-10
2.31072e-11
5.58237e-10
5.6726e-10
1.19383e-11
5.49342e-10
-1.22799e-11
5.21894e-10
-8.93935e-12
5.21627e-10
5.49381e-10
2.97054e-11
4.86198e-10
-2.66596e-11
4.54598e-10
-3.03192e-11
4.59832e-10
4.88743e-10
3.21856e-11
4.00147e-10
-5.50631e-11
3.44851e-10
-4.3766e-11
3.62147e-10
4.01211e-10
6.61961e-11
2.46399e-10
-4.74724e-11
1.7515e-10
-7.61391e-11
2.0396e-10
2.48932e-10
6.5355e-11
1.08178e-10
-1.76595e-11
5.2544e-11
-6.83446e-11
7.90202e-11
1.12243e-10
2.41113e-11
5.52503e-11
-1.40966e-11
1.88538e-11
-2.6979e-11
3.44725e-11
5.82853e-11
1.58825e-11
2.14383e-11
-5.87746e-12
5.09227e-12
-1.7342e-11
1.4096e-11
2.36012e-11
4.54023e-12
1.11037e-11
-3.70321e-12
1.21888e-12
-5.58356e-12
6.16011e-12
1.24341e-11
3.30193e-12
3.89899e-12
-1.74e-12
5.61739e-13
-3.90871e-12
2.76517e-12
4.6167e-12
6.63572e-13
2.18155e-12
-8.57793e-13
-1.38267e-13
-9.83029e-13
1.22738e-12
2.65064e-12
6.75671e-13
6.47754e-13
-4.92592e-13
1.01341e-13
-9.02349e-13
5.58423e-13
8.45943e-13
8.34921e-14
3.72124e-13
-1.95861e-13
-7.01682e-14
-1.67398e-13
2.47005e-13
5.11148e-13
1.43098e-13
7.07279e-15
-1.4334e-13
3.72008e-15
-2.32388e-13
7.50483e-14
4.63736e-14
-1.61837e-14
-6.7765e-14
-2.31869e-14
)
;

boundaryField
{
    inlet
    {
        type            calculated;
        value           uniform 0;
    }
    outlet
    {
        type            calculated;
        value           nonuniform List<scalar> 
16
(
-1.72031e-11
1.40052e-11
-1.24918e-11
-2.55689e-11
1.40052e-11
8.05038e-11
3.05071e-11
-7.42588e-13
-1.24918e-11
3.05071e-11
1.5261e-12
-2.18938e-11
-2.55689e-11
-7.42588e-13
-2.18938e-11
-3.24582e-11
)
;
    }
    walls
    {
        type            calculated;
        value           nonuniform List<scalar> 
320
(
2.1765e-25
1.53425e-22
9.11166e-20
1.20678e-17
1.50143e-20
4.67933e-24
1.26365e-27
3.35018e-31
0
0
0
0
0
0
0
0
0
0
0
0
4.85118e-23
5.12548e-20
2.08381e-17
8.10526e-16
7.71414e-18
3.34328e-21
9.23108e-25
2.5088e-28
0
0
0
0
0
0
0
0
0
0
0
0
2.53014e-23
2.24911e-20
8.84531e-18
3.9012e-16
4.09233e-18
1.63511e-21
4.2816e-25
1.15418e-28
0
0
0
0
0
0
0
0
0
0
0
0
3.15004e-26
3.72702e-23
3.07789e-20
5.93462e-18
7.71277e-21
3.4902e-24
1.39032e-27
5.23634e-31
0
0
0
0
0
0
0
0
0
0
0
0
-3.15004e-26
-3.72702e-23
-3.07789e-20
-5.93462e-18
-7.71277e-21
-3.4902e-24
-1.39032e-27
-5.23634e-31
0
0
0
0
0
0
0
0
0
0
0
0
-3.7343e-23
-3.01058e-20
-9.96239e-18
-3.84093e-16
-4.00051e-18
-2.06551e-21
-7.1872e-25
-2.40656e-28
0
0
0
0
0
0
0
0
0
0
0
0
-6.38601e-24
-1.09545e-20
-5.79819e-18
-2.5865e-16
-2.7986e-18
-1.562e-21
-5.30132e-25
-1.77728e-28
0
0
0
0
0
0
0
0
0
0
0
0
-7.85223e-27
-1.6031e-23
-2.05413e-20
-4.02161e-18
-8.08658e-21
-4.86675e-24
-2.41412e-27
0
0
0
0
0
0
0
0
0
0
0
0
0
2.1765e-25
1.53425e-22
9.11166e-20
1.20678e-17
1.50143e-20
4.67933e-24
1.26365e-27
3.35018e-31
0
0
0
0
0
0
0
0
0
0
0
0
4.85118e-23
5.12548e-20
2.08381e-17
8.10526e-16
7.71414e-18
3.34328e-21
9.23108e-25
2.5088e-28
0
0
0
0
0
0
0
0
0
0
0
0
2.53014e-23
2.24911e-20
8.84531e-18
3.9012e-16
4.09233e-18
1.63511e-21
4.2816e-25
1.15418e-28
0
0
0
0
0
0
0
0
0
0
0
0
3.15004e-26
3.72702e-23
3.07789e-20
5.93462e-18
7.71277e-21
3.4902e-24
1.39032e-27
5.23634e-31
0
0
0
0
0
0
0
0
0
0
0
0
-3.15004e-26
-3.72702e-23
-3.07789e-20
-5.93462e-18
-7.71277e-21
-3.4902e-24
-1.39032e-27
-5.23634e-31
0
0
0
0
0
0
0
0
0
0
0
0
-3.7343e-23
-3.01058e-20
-9.96239e-18
-3.84093e-16
-4.00051e-18
-2.06551e-21
-7.1872e-25
-2.40656e-28
0
0
0
0
0
0
0
0
0
0
0
0
-6.38601e-24
-1.09545e-20
-5.79819e-18
-2.5865e-16
-2.7986e-18
-1.562e-21
-5.30132e-25
-1.77728e-28
0
0
0
0
0
0
0
0
0
0
0
0
-7.85223e-27
-1.6031e-23
-2.05413e-20
-4.02161e-18
-8.08658e-21
-4.86675e-24
-2.41412e-27
0
0
0
0
0
0
0
0
0
0
0
0
0
)
;
    }
}


// ************************************************************************* //
