/*--------------------------------*- C++ -*----------------------------------*\
| =========                 |                                                 |
| \\      /  F ield         | OpenFOAM: The Open Source CFD Toolbox           |
|  \\    /   O peration     | Version:  5.x                                   |
|   \\  /    A nd           | Web:      www.OpenFOAM.org                      |
|    \\/     M anipulation  |                                                 |
\*---------------------------------------------------------------------------*/
FoamFile
{
    version     2.0;
    format      ascii;
    class       volVectorField;
    location    "0.13";
    object      U;
}
// * * * * * * * * * * * * * * * * * * * * * * * * * * * * * * * * * * * * * //

dimensions      [0 1 -1 0 0 0 0];

internalField   nonuniform List<vector> 
320
(
(-1.08509e-06 3.04866e-06 -1.08509e-06)
(-1.64924e-07 -2.40793e-06 -2.2303e-06)
(1.56964e-06 2.14307e-06 -1.48106e-06)
(5.12362e-07 4.44414e-06 -9.54293e-07)
(-4.1293e-06 7.07326e-06 -4.1293e-06)
(-8.22356e-07 -3.4896e-07 -9.23149e-06)
(5.58946e-06 5.22342e-06 -6.05134e-06)
(1.74963e-06 8.29676e-06 -3.49978e-06)
(-7.98971e-06 1.58416e-05 -7.98971e-06)
(-2.18245e-06 -8.77577e-07 -2.49581e-05)
(1.05231e-05 1.044e-05 -1.42389e-05)
(3.44314e-06 1.70477e-05 -7.03054e-06)
(-2.01475e-05 3.8491e-05 -2.01475e-05)
(-6.82239e-06 2.49091e-05 -8.12784e-05)
(2.44367e-05 3.44073e-05 -4.59031e-05)
(8.35666e-06 3.83984e-05 -1.69668e-05)
(-1.9175e-05 7.31763e-05 -1.9175e-05)
(-6.9571e-06 6.67984e-05 -7.37435e-05)
(2.38249e-05 7.08578e-05 -4.18189e-05)
(7.27077e-06 7.14847e-05 -1.68886e-05)
(-4.96777e-06 9.14099e-05 -4.96777e-06)
(-2.07676e-06 8.37214e-05 2.72791e-06)
(8.46569e-06 8.7624e-05 -3.0203e-06)
(7.58761e-07 9.05786e-05 -4.8896e-06)
(3.92087e-06 9.15194e-05 3.92087e-06)
(-6.40478e-07 6.91431e-05 2.27155e-05)
(-2.27947e-06 8.33241e-05 9.026e-06)
(-1.37026e-06 9.29294e-05 2.94127e-06)
(8.15757e-06 8.22932e-05 8.15757e-06)
(8.67453e-07 5.20714e-05 3.02763e-05)
(-8.59598e-06 7.01906e-05 1.50219e-05)
(-2.7111e-06 8.50069e-05 7.05999e-06)
(1.22963e-05 6.99698e-05 1.22963e-05)
(-5.02726e-07 4.13874e-05 4.34613e-05)
(-1.65264e-05 6.19845e-05 2.13918e-05)
(-1.75001e-06 7.35074e-05 1.05841e-05)
(1.57474e-05 5.2377e-05 1.57474e-05)
(5.69496e-06 2.99216e-05 5.25566e-05)
(-2.26894e-05 4.74861e-05 3.26701e-05)
(-6.21403e-06 5.52148e-05 1.38665e-05)
(1.12416e-05 2.28778e-05 1.12416e-05)
(8.19246e-06 8.6555e-06 3.41648e-05)
(-1.62212e-05 1.99746e-05 2.58212e-05)
(-6.97259e-06 2.45423e-05 1.02205e-05)
(4.79893e-06 1.04957e-05 4.79893e-06)
(2.39927e-06 5.65586e-07 1.25049e-05)
(-7.29275e-06 5.37169e-06 8.97487e-06)
(-2.27431e-06 1.1224e-05 4.43471e-06)
(2.8257e-06 5.25394e-06 2.8257e-06)
(1.87785e-06 1.31322e-06 5.85914e-06)
(-4.04853e-06 4.25475e-06 4.65711e-06)
(-1.77738e-06 5.77296e-06 2.63305e-06)
(9.4425e-07 1.38504e-06 9.4425e-07)
(3.9371e-07 -1.34104e-06 2.11911e-06)
(-1.54038e-06 -8.35553e-08 1.51914e-06)
(-4.15949e-07 1.60914e-06 8.87778e-07)
(6.10915e-07 1.42937e-06 6.10915e-07)
(3.43374e-07 7.11818e-07 9.23995e-07)
(-8.91239e-07 1.35781e-06 7.88228e-07)
(-3.97471e-07 1.58175e-06 5.90646e-07)
(1.71272e-07 -1.96153e-07 1.71272e-07)
(3.52277e-08 -8.82922e-07 3.65684e-07)
(-3.10643e-07 -5.77901e-07 2.61236e-07)
(-5.24255e-08 -1.20318e-07 1.4479e-07)
(1.23411e-07 6.28996e-07 1.23411e-07)
(5.98392e-08 5.67859e-07 1.47751e-07)
(-1.88234e-07 7.1336e-07 1.35667e-07)
(-9.4822e-08 6.70786e-07 1.3091e-07)
(3.39069e-08 -4.16261e-07 3.39069e-08)
(-3.62827e-09 -6.13839e-07 6.81001e-08)
(-6.71035e-08 -5.52733e-07 4.93586e-08)
(-1.09086e-09 -3.90987e-07 2.27765e-08)
(2.5532e-08 4.56422e-07 2.5532e-08)
(1.23973e-08 5.19929e-07 2.85646e-08)
(-4.42824e-08 5.54322e-07 2.75478e-08)
(-2.44824e-08 4.6323e-07 2.88453e-08)
(-1.46906e-08 -4.55176e-07 -1.46906e-08)
(7.91053e-09 -5.28721e-07 -1.5516e-08)
(-2.90925e-08 -5.30923e-07 -1.95274e-08)
(2.29008e-08 -4.50511e-07 -1.59503e-08)
(-2.2303e-06 -2.40793e-06 -1.64924e-07)
(-4.67708e-07 -1.43808e-05 -4.67708e-07)
(2.90621e-06 -5.57732e-06 -2.81803e-07)
(1.04407e-06 2.02603e-08 -1.51392e-07)
(-9.23149e-06 -3.4896e-07 -8.22356e-07)
(-2.41493e-06 -2.45884e-05 -2.41493e-06)
(1.15794e-05 -8.24708e-06 -2.39492e-06)
(4.32706e-06 2.09717e-06 -8.62124e-07)
(-2.49581e-05 -8.77577e-07 -2.18245e-06)
(-7.72514e-06 -7.83375e-05 -7.72514e-06)
(2.92491e-05 -3.18084e-05 -5.46807e-06)
(1.06432e-05 3.63478e-06 -2.05147e-06)
(-8.12784e-05 2.49091e-05 -6.82239e-06)
(-3.12519e-05 -0.000140508 -3.12519e-05)
(9.14613e-05 -4.55315e-05 -2.48485e-05)
(3.71811e-05 2.84521e-05 -6.51071e-06)
(-7.37435e-05 6.67984e-05 -6.9571e-06)
(-2.75436e-05 -0.000597682 -2.75436e-05)
(8.58654e-05 -0.000254747 -2.24719e-05)
(3.18194e-05 7.5747e-05 -6.6202e-06)
(2.72791e-06 8.37214e-05 -2.07676e-06)
(2.18972e-06 -0.000460141 2.18972e-06)
(6.31767e-06 -0.000187359 -2.66613e-07)
(-1.67647e-06 9.98099e-05 -1.71192e-06)
(2.27155e-05 6.91431e-05 -6.40478e-07)
(5.83283e-06 -0.00046276 5.83283e-06)
(-1.83852e-05 -0.0001953 1.99995e-06)
(-7.81357e-06 9.35737e-05 -6.03057e-07)
(3.02763e-05 5.20714e-05 8.67453e-07)
(7.62846e-06 -0.000417768 7.62846e-06)
(-3.09013e-05 -0.00018857 3.31285e-06)
(-1.05494e-05 7.99602e-05 6.4328e-07)
(4.34613e-05 4.13874e-05 -5.02726e-07)
(5.03401e-06 -0.000336244 5.03401e-06)
(-5.39377e-05 -0.000155095 -6.25117e-06)
(-1.18107e-05 6.80115e-05 -1.89089e-06)
(5.25566e-05 2.99216e-05 5.69496e-06)
(1.97787e-05 -0.000207757 1.97787e-05)
(-6.92528e-05 -0.000127732 1.68845e-05)
(-2.43846e-05 4.22517e-05 5.31119e-06)
(3.41648e-05 8.6555e-06 8.19246e-06)
(2.26878e-05 -7.51527e-05 2.26878e-05)
(-4.51199e-05 -3.62301e-05 2.94548e-05)
(-2.24963e-05 1.46253e-05 9.11876e-06)
(1.25049e-05 5.65586e-07 2.39927e-06)
(6.00373e-06 -3.88426e-05 6.00373e-06)
(-1.70185e-05 -2.41509e-05 7.61483e-06)
(-6.87301e-06 3.02958e-06 2.53716e-06)
(5.85914e-06 1.31322e-06 1.87785e-06)
(3.37202e-06 -1.11678e-05 3.37202e-06)
(-7.9272e-06 -4.32167e-06 4.67841e-06)
(-3.8215e-06 2.60316e-06 2.02927e-06)
(2.11911e-06 -1.34104e-06 3.9371e-07)
(8.017e-07 -7.82242e-06 8.017e-07)
(-3.0106e-06 -5.08062e-06 1.06174e-06)
(-1.0721e-06 -7.2563e-07 3.99749e-07)
(9.23995e-07 7.11818e-07 3.43374e-07)
(4.21736e-07 -1.20424e-06 4.21736e-07)
(-1.30186e-06 9.14712e-08 6.40487e-07)
(-6.02683e-07 9.90681e-07 3.64434e-07)
(3.65684e-07 -8.82922e-07 3.52277e-08)
(8.59985e-08 -2.02354e-06 8.59985e-08)
(-5.79585e-07 -1.52568e-06 1.25589e-07)
(-1.76139e-07 -7.27453e-07 3.78701e-08)
(1.47751e-07 5.67859e-07 5.98392e-08)
(5.0819e-08 3.30576e-07 5.0819e-08)
(-2.12372e-07 5.92794e-07 8.40526e-08)
(-1.02761e-07 6.46508e-07 6.07645e-08)
(6.81001e-08 -6.13839e-07 -3.62827e-09)
(3.0655e-09 -8.67986e-07 3.0655e-09)
(-1.24431e-07 -7.87247e-07 7.83785e-09)
(-2.91995e-08 -5.82135e-07 -1.01608e-09)
(2.85646e-08 5.19929e-07 1.23973e-08)
(9.63964e-09 5.69324e-07 9.63964e-09)
(-4.57305e-08 6.24678e-07 1.15775e-08)
(-2.431e-08 5.40327e-07 1.05915e-08)
(-1.5516e-08 -5.28721e-07 7.91053e-09)
(9.00487e-09 -6.09337e-07 9.00487e-09)
(-4.12068e-08 -6.15662e-07 1.194e-08)
(2.59144e-08 -5.28568e-07 8.49243e-09)
(-1.48106e-06 2.14307e-06 1.56964e-06)
(-2.81803e-07 -5.57732e-06 2.90621e-06)
(2.00337e-06 -4.86152e-07 2.00337e-06)
(7.01586e-07 3.65119e-06 1.35142e-06)
(-6.05134e-06 5.22342e-06 5.58946e-06)
(-2.39492e-06 -8.24708e-06 1.15794e-05)
(7.54528e-06 7.94698e-10 7.54528e-06)
(3.45258e-06 6.74172e-06 4.63471e-06)
(-1.42389e-05 1.044e-05 1.05231e-05)
(-5.46807e-06 -3.18084e-05 2.92491e-05)
(1.71213e-05 -1.2543e-05 1.71213e-05)
(7.17591e-06 1.22746e-05 9.07512e-06)
(-4.59031e-05 3.44073e-05 2.44367e-05)
(-2.48485e-05 -4.55315e-05 9.14613e-05)
(5.12884e-05 -1.5204e-05 5.12884e-05)
(2.70587e-05 3.52132e-05 2.02751e-05)
(-4.18189e-05 7.08578e-05 2.38249e-05)
(-2.24719e-05 -0.000254747 8.58654e-05)
(4.82345e-05 -0.000144501 4.82345e-05)
(2.34074e-05 7.33841e-05 2.04429e-05)
(-3.0203e-06 8.7624e-05 8.46569e-06)
(-2.66613e-07 -0.000187359 6.31767e-06)
(8.46865e-06 -9.94417e-05 8.46865e-06)
(-4.08639e-07 9.25375e-05 7.39326e-06)
(9.026e-06 8.33241e-05 -2.27947e-06)
(1.99995e-06 -0.0001953 -1.83852e-05)
(-6.12775e-06 -0.000103922 -6.12775e-06)
(-4.03367e-06 9.15629e-05 -1.90452e-06)
(1.50219e-05 7.01906e-05 -8.59598e-06)
(3.31285e-06 -0.00018857 -3.09013e-05)
(-1.50661e-05 -0.000110776 -1.50661e-05)
(-5.98147e-06 7.95396e-05 -7.56967e-06)
(2.13918e-05 6.19845e-05 -1.65264e-05)
(-6.25117e-06 -0.000155095 -5.39377e-05)
(-2.82326e-05 -9.2431e-05 -2.82326e-05)
(-5.12011e-07 7.09166e-05 -1.36709e-05)
(3.26701e-05 4.74861e-05 -2.26894e-05)
(1.68845e-05 -0.000127732 -6.92528e-05)
(-4.26092e-05 -0.000133865 -4.26092e-05)
(-1.82134e-05 4.45816e-05 -1.89162e-05)
(2.58212e-05 1.99746e-05 -1.62212e-05)
(2.94548e-05 -3.62301e-05 -4.51199e-05)
(-3.16822e-05 -2.60318e-05 -3.16822e-05)
(-2.48308e-05 2.10728e-05 -1.40667e-05)
(8.97487e-06 5.37169e-06 -7.29275e-06)
(7.61483e-06 -2.41509e-05 -1.70185e-05)
(-1.19414e-05 -2.39989e-05 -1.19414e-05)
(-7.03408e-06 5.52291e-06 -6.50976e-06)
(4.65711e-06 4.25475e-06 -4.04853e-06)
(4.67841e-06 -4.32167e-06 -7.9272e-06)
(-5.86463e-06 -1.98539e-06 -5.86463e-06)
(-4.30971e-06 4.84814e-06 -3.68119e-06)
(1.51914e-06 -8.35553e-08 -1.54038e-06)
(1.06174e-06 -5.08062e-06 -3.0106e-06)
(-2.19963e-06 -4.56866e-06 -2.19963e-06)
(-1.09939e-06 1.19949e-07 -1.43671e-06)
(7.88228e-07 1.35781e-06 -8.91239e-07)
(6.40487e-07 9.14712e-08 -1.30186e-06)
(-1.0624e-06 6.67418e-07 -1.0624e-06)
(-7.1134e-07 1.56308e-06 -8.5328e-07)
(2.61236e-07 -5.77901e-07 -3.10643e-07)
(1.25589e-07 -1.52568e-06 -5.79585e-07)
(-4.18496e-07 -1.3393e-06 -4.18496e-07)
(-1.5324e-07 -4.90966e-07 -2.77604e-07)
(1.35667e-07 7.1336e-07 -1.88234e-07)
(8.40526e-08 5.92794e-07 -2.12372e-07)
(-2.04652e-07 7.3429e-07 -2.04652e-07)
(-1.35154e-07 7.69394e-07 -1.9875e-07)
(4.93586e-08 -5.52733e-07 -6.71035e-08)
(7.83785e-09 -7.87247e-07 -1.24431e-07)
(-8.62127e-08 -7.46266e-07 -8.62127e-08)
(-1.39633e-08 -5.21725e-07 -5.40219e-08)
(2.75478e-08 5.54322e-07 -4.42824e-08)
(1.15775e-08 6.24678e-07 -4.57305e-08)
(-5.04982e-08 6.64239e-07 -5.04982e-08)
(-3.06732e-08 5.62078e-07 -5.07125e-08)
(-1.95274e-08 -5.30923e-07 -2.90925e-08)
(1.194e-08 -6.15662e-07 -4.12068e-08)
(-3.38453e-08 -6.15743e-07 -3.38453e-08)
(2.61309e-08 -5.22173e-07 -2.71761e-08)
(-9.54293e-07 4.44414e-06 5.12362e-07)
(-1.51392e-07 2.02603e-08 1.04407e-06)
(1.35142e-06 3.65119e-06 7.01586e-07)
(4.58658e-07 5.57802e-06 4.58658e-07)
(-3.49978e-06 8.29676e-06 1.74963e-06)
(-8.62124e-07 2.09717e-06 4.32706e-06)
(4.63471e-06 6.74172e-06 3.45258e-06)
(1.63012e-06 9.37009e-06 1.63012e-06)
(-7.03054e-06 1.70477e-05 3.44314e-06)
(-2.05147e-06 3.63478e-06 1.06432e-05)
(9.07512e-06 1.22746e-05 7.17591e-06)
(3.24179e-06 1.81325e-05 3.24179e-06)
(-1.69668e-05 3.83984e-05 8.35666e-06)
(-6.51071e-06 2.84521e-05 3.71811e-05)
(2.02751e-05 3.52132e-05 2.70587e-05)
(7.99784e-06 3.84948e-05 7.99784e-06)
(-1.68886e-05 7.14847e-05 7.27077e-06)
(-6.6202e-06 7.5747e-05 3.18194e-05)
(2.04429e-05 7.33841e-05 2.34074e-05)
(7.39269e-06 6.9902e-05 7.39269e-06)
(-4.8896e-06 9.05786e-05 7.58761e-07)
(-1.71192e-06 9.98099e-05 -1.67647e-06)
(7.39326e-06 9.25375e-05 -4.08639e-07)
(1.05616e-06 8.88711e-05 1.05616e-06)
(2.94127e-06 9.29294e-05 -1.37026e-06)
(-6.03057e-07 9.35737e-05 -7.81357e-06)
(-1.90452e-06 9.15629e-05 -4.03367e-06)
(-1.03965e-06 9.24532e-05 -1.03965e-06)
(7.05999e-06 8.50069e-05 -2.7111e-06)
(6.4328e-07 7.99602e-05 -1.05494e-05)
(-7.56967e-06 7.95396e-05 -5.98147e-06)
(-2.53106e-06 8.50737e-05 -2.53106e-06)
(1.05841e-05 7.35074e-05 -1.75001e-06)
(-1.89089e-06 6.80115e-05 -1.18107e-05)
(-1.36709e-05 7.09166e-05 -5.12011e-07)
(-1.27626e-06 7.40374e-05 -1.27626e-06)
(1.38665e-05 5.52148e-05 -6.21403e-06)
(5.31119e-06 4.22517e-05 -2.43846e-05)
(-1.89162e-05 4.45816e-05 -1.82134e-05)
(-6.24271e-06 5.51074e-05 -6.24271e-06)
(1.02205e-05 2.45423e-05 -6.97259e-06)
(9.11876e-06 1.46253e-05 -2.24963e-05)
(-1.40667e-05 2.10728e-05 -2.48308e-05)
(-7.59023e-06 2.54432e-05 -7.59023e-06)
(4.43471e-06 1.1224e-05 -2.27431e-06)
(2.53716e-06 3.02958e-06 -6.87301e-06)
(-6.50976e-06 5.52291e-06 -7.03408e-06)
(-2.46476e-06 1.16903e-05 -2.46476e-06)
(2.63305e-06 5.77296e-06 -1.77738e-06)
(2.02927e-06 2.60316e-06 -3.8215e-06)
(-3.68119e-06 4.84814e-06 -4.30971e-06)
(-1.94149e-06 6.25732e-06 -1.94149e-06)
(8.87778e-07 1.60914e-06 -4.15949e-07)
(3.99749e-07 -7.2563e-07 -1.0721e-06)
(-1.43671e-06 1.19949e-07 -1.09939e-06)
(-4.54375e-07 1.84465e-06 -4.54375e-07)
(5.90646e-07 1.58175e-06 -3.97471e-07)
(3.64434e-07 9.90681e-07 -6.02683e-07)
(-8.5328e-07 1.56308e-06 -7.1134e-07)
(-4.35403e-07 1.74769e-06 -4.35403e-07)
(1.4479e-07 -1.20318e-07 -5.24255e-08)
(3.78701e-08 -7.27453e-07 -1.76139e-07)
(-2.77604e-07 -4.90966e-07 -1.5324e-07)
(-6.09384e-08 -3.52865e-08 -6.09384e-08)
(1.3091e-07 6.70786e-07 -9.4822e-08)
(6.07645e-08 6.46508e-07 -1.02761e-07)
(-1.9875e-07 7.69394e-07 -1.35154e-07)
(-1.0271e-07 7.17971e-07 -1.0271e-07)
(2.27765e-08 -3.90987e-07 -1.09086e-09)
(-1.01608e-09 -5.82135e-07 -2.91995e-08)
(-5.40219e-08 -5.21725e-07 -1.39633e-08)
(-3.98657e-09 -3.62983e-07 -3.98657e-09)
(2.88453e-08 4.6323e-07 -2.44824e-08)
(1.05915e-08 5.40327e-07 -2.431e-08)
(-5.07125e-08 5.62078e-07 -3.06732e-08)
(-2.57279e-08 4.70709e-07 -2.57279e-08)
(-1.59503e-08 -4.50511e-07 2.29008e-08)
(8.49243e-09 -5.28568e-07 2.59144e-08)
(-2.71761e-08 -5.22173e-07 2.61309e-08)
(2.1264e-08 -4.43153e-07 2.1264e-08)
)
;

boundaryField
{
    inlet
    {
        type            fixedValue;
        value           uniform (0 0 0);
    }
    outlet
    {
        type            zeroGradient;
    }
    walls
    {
        type            fixedValue;
        value           uniform (0 0 0);
    }
}


// ************************************************************************* //
