/*--------------------------------*- C++ -*----------------------------------*\
| =========                 |                                                 |
| \\      /  F ield         | OpenFOAM: The Open Source CFD Toolbox           |
|  \\    /   O peration     | Version:  5.x                                   |
|   \\  /    A nd           | Web:      www.OpenFOAM.org                      |
|    \\/     M anipulation  |                                                 |
\*---------------------------------------------------------------------------*/
FoamFile
{
    version     2.0;
    format      ascii;
    class       volVectorField;
    location    "0.13";
    object      Us;
}
// * * * * * * * * * * * * * * * * * * * * * * * * * * * * * * * * * * * * * //

dimensions      [0 1 -1 0 0 0 0];

internalField   nonuniform List<vector> 
320
(
(-2.94153e-13 -1.2337e-09 -2.94153e-13)
(-4.30384e-12 -1.80506e-08 -4.30384e-12)
(-4.14091e-12 -1.73672e-08 -4.14091e-12)
(-1.16814e-13 -4.89926e-10 -1.16814e-13)
(-1.2702e-11 -5.32732e-08 -1.2702e-11)
(-2.3314e-10 -9.77803e-07 -2.3314e-10)
(-2.27217e-10 -9.52964e-07 -2.27217e-10)
(-6.32807e-12 -2.65403e-08 -6.32807e-12)
(-4.6644e-10 -1.95628e-06 -4.6644e-10)
(-1.14153e-08 -4.78764e-05 -1.14153e-08)
(-1.1269e-08 -4.7263e-05 -1.1269e-08)
(-3.10079e-10 -1.30049e-06 -3.10079e-10)
(-1.14205e-08 -4.78983e-05 -1.14205e-08)
(-4.19153e-07 -0.00175796 -4.19153e-07)
(-4.19227e-07 -0.00175827 -4.19227e-07)
(-1.14215e-08 -4.79024e-05 -1.14215e-08)
(-3.08988e-10 -1.29592e-06 -3.08988e-10)
(-1.13426e-08 -4.75715e-05 -1.13426e-08)
(-1.13426e-08 -4.75718e-05 -1.13426e-08)
(-3.09033e-10 -1.2961e-06 -3.09033e-10)
(-4.12696e-12 -1.73087e-08 -4.12696e-12)
(-1.51496e-10 -6.35382e-07 -1.51496e-10)
(-1.53479e-10 -6.43703e-07 -1.53479e-10)
(-6.27184e-12 -2.63045e-08 -6.27184e-12)
(-5.51234e-14 -2.31191e-10 -5.51234e-14)
(-2.02351e-12 -8.48673e-09 -2.02351e-12)
(-2.0765e-12 -8.70896e-09 -2.0765e-12)
(-1.13146e-13 -4.74543e-10 -1.13146e-13)
(-7.36307e-16 -3.08812e-12 -7.36307e-16)
(-2.70289e-14 -1.13361e-10 -2.70289e-14)
(-2.80905e-14 -1.17814e-10 -2.80905e-14)
(-1.91363e-15 -8.02587e-12 -1.91363e-15)
(-9.83558e-18 -4.1251e-14 -9.83558e-18)
(-3.61052e-16 -1.51427e-12 -3.61052e-16)
(-3.7996e-16 -1.59358e-12 -3.7996e-16)
(-3.10701e-17 -1.3031e-13 -3.10701e-17)
(-1.3133e-19 -5.50805e-16 -1.3133e-19)
(-4.82182e-18 -2.0223e-14 -4.82182e-18)
(-5.13749e-18 -2.1547e-14 -5.13749e-18)
(-4.90294e-19 -2.05632e-15 -4.90294e-19)
(0 0 0)
(0 0 0)
(0 0 0)
(0 0 0)
(0 0 0)
(0 0 0)
(0 0 0)
(0 0 0)
(0 0 0)
(0 0 0)
(0 0 0)
(0 0 0)
(0 0 0)
(0 0 0)
(0 0 0)
(0 0 0)
(0 0 0)
(0 0 0)
(0 0 0)
(0 0 0)
(0 0 0)
(0 0 0)
(0 0 0)
(0 0 0)
(0 0 0)
(0 0 0)
(0 0 0)
(0 0 0)
(0 0 0)
(0 0 0)
(0 0 0)
(0 0 0)
(0 0 0)
(0 0 0)
(0 0 0)
(0 0 0)
(0 0 0)
(0 0 0)
(0 0 0)
(0 0 0)
(-4.30384e-12 -1.80506e-08 -4.30384e-12)
(-7.87531e-11 -3.30296e-07 -7.87531e-11)
(-7.67363e-11 -3.21837e-07 -7.67363e-11)
(-2.13287e-12 -8.94538e-09 -2.13287e-12)
(-2.3314e-10 -9.77803e-07 -2.3314e-10)
(-5.70711e-09 -2.3936e-05 -5.70711e-09)
(-5.63356e-09 -2.36275e-05 -5.63356e-09)
(-1.54511e-10 -6.48028e-07 -1.54511e-10)
(-1.14153e-08 -4.78764e-05 -1.14153e-08)
(-4.19073e-07 -0.00175762 -4.19073e-07)
(-4.19077e-07 -0.00175763 -4.19077e-07)
(-1.13437e-08 -4.75761e-05 -1.13437e-08)
(-4.19153e-07 -0.00175796 -4.19153e-07)
(-3.07564e-05 -0.128994 -3.07564e-05)
(-3.07564e-05 -0.128994 -3.07564e-05)
(-4.19305e-07 -0.00175859 -4.19305e-07)
(-1.13426e-08 -4.75715e-05 -1.13426e-08)
(-4.19222e-07 -0.00175824 -4.19222e-07)
(-4.19153e-07 -0.00175796 -4.19153e-07)
(-1.12721e-08 -4.7276e-05 -1.12721e-08)
(-1.51496e-10 -6.35382e-07 -1.51496e-10)
(-5.56368e-09 -2.33344e-05 -5.56368e-09)
(-5.63459e-09 -2.36319e-05 -5.63459e-09)
(-2.27285e-10 -9.53247e-07 -2.27285e-10)
(-2.02351e-12 -8.48673e-09 -2.02351e-12)
(-7.38379e-11 -3.09681e-07 -7.38379e-11)
(-7.57322e-11 -3.17626e-07 -7.57322e-11)
(-4.07355e-12 -1.70847e-08 -4.07355e-12)
(-2.70289e-14 -1.13361e-10 -2.70289e-14)
(-9.79939e-13 -4.10993e-09 -9.79939e-13)
(-1.01772e-12 -4.2684e-09 -1.01772e-12)
(-6.8443e-14 -2.87054e-10 -6.8443e-14)
(-3.61052e-16 -1.51427e-12 -3.61052e-16)
(-1.30053e-14 -5.45451e-11 -1.30053e-14)
(-1.36745e-14 -5.73519e-11 -1.36745e-14)
(-1.10392e-15 -4.62991e-12 -1.10392e-15)
(-4.82182e-18 -2.0223e-14 -4.82182e-18)
(-1.7257e-16 -7.23771e-13 -1.7257e-16)
(-1.83676e-16 -7.70349e-13 -1.83676e-16)
(-1.73062e-17 -7.25832e-14 -1.73062e-17)
(0 0 0)
(0 0 0)
(0 0 0)
(0 0 0)
(0 0 0)
(0 0 0)
(0 0 0)
(0 0 0)
(0 0 0)
(0 0 0)
(0 0 0)
(0 0 0)
(0 0 0)
(0 0 0)
(0 0 0)
(0 0 0)
(0 0 0)
(0 0 0)
(0 0 0)
(0 0 0)
(0 0 0)
(0 0 0)
(0 0 0)
(0 0 0)
(0 0 0)
(0 0 0)
(0 0 0)
(0 0 0)
(0 0 0)
(0 0 0)
(0 0 0)
(0 0 0)
(0 0 0)
(0 0 0)
(0 0 0)
(0 0 0)
(0 0 0)
(0 0 0)
(0 0 0)
(0 0 0)
(-4.14091e-12 -1.73672e-08 -4.14091e-12)
(-7.67363e-11 -3.21837e-07 -7.67363e-11)
(-7.48187e-11 -3.13794e-07 -7.48187e-11)
(-2.07838e-12 -8.71687e-09 -2.07838e-12)
(-2.27217e-10 -9.52964e-07 -2.27217e-10)
(-5.63356e-09 -2.36275e-05 -5.63356e-09)
(-5.56367e-09 -2.33344e-05 -5.56367e-09)
(-1.52531e-10 -6.39724e-07 -1.52531e-10)
(-1.1269e-08 -4.7263e-05 -1.1269e-08)
(-4.19077e-07 -0.00175763 -4.19077e-07)
(-4.1922e-07 -0.00175824 -4.1922e-07)
(-1.13447e-08 -4.75803e-05 -1.13447e-08)
(-4.19227e-07 -0.00175827 -4.19227e-07)
(-3.07564e-05 -0.128994 -3.07564e-05)
(-3.07564e-05 -0.128994 -3.07564e-05)
(-4.19307e-07 -0.0017586 -4.19307e-07)
(-1.13426e-08 -4.75718e-05 -1.13426e-08)
(-4.19153e-07 -0.00175796 -4.19153e-07)
(-4.19224e-07 -0.00175825 -4.19224e-07)
(-1.14195e-08 -4.78942e-05 -1.14195e-08)
(-1.53479e-10 -6.43703e-07 -1.53479e-10)
(-5.63459e-09 -2.36319e-05 -5.63459e-09)
(-5.70919e-09 -2.39447e-05 -5.70919e-09)
(-2.33227e-10 -9.78171e-07 -2.33227e-10)
(-2.0765e-12 -8.70896e-09 -2.0765e-12)
(-7.57322e-11 -3.17626e-07 -7.57322e-11)
(-7.77242e-11 -3.2598e-07 -7.77242e-11)
(-4.23327e-12 -1.77546e-08 -4.23327e-12)
(-2.80905e-14 -1.17814e-10 -2.80905e-14)
(-1.01772e-12 -4.2684e-09 -1.01772e-12)
(-1.05778e-12 -4.4364e-09 -1.05778e-12)
(-7.20205e-14 -3.02059e-10 -7.20205e-14)
(-3.7996e-16 -1.59358e-12 -3.7996e-16)
(-1.36745e-14 -5.73519e-11 -1.36745e-14)
(-1.43912e-14 -6.03574e-11 -1.43912e-14)
(-1.17603e-15 -4.93234e-12 -1.17603e-15)
(-5.13749e-18 -2.1547e-14 -5.13749e-18)
(-1.83676e-16 -7.70349e-13 -1.83676e-16)
(-1.95696e-16 -8.20762e-13 -1.95696e-16)
(-1.86624e-17 -7.82713e-14 -1.86624e-17)
(0 0 0)
(0 0 0)
(0 0 0)
(0 0 0)
(0 0 0)
(0 0 0)
(0 0 0)
(0 0 0)
(0 0 0)
(0 0 0)
(0 0 0)
(0 0 0)
(0 0 0)
(0 0 0)
(0 0 0)
(0 0 0)
(0 0 0)
(0 0 0)
(0 0 0)
(0 0 0)
(0 0 0)
(0 0 0)
(0 0 0)
(0 0 0)
(0 0 0)
(0 0 0)
(0 0 0)
(0 0 0)
(0 0 0)
(0 0 0)
(0 0 0)
(0 0 0)
(0 0 0)
(0 0 0)
(0 0 0)
(0 0 0)
(0 0 0)
(0 0 0)
(0 0 0)
(0 0 0)
(-1.16814e-13 -4.89926e-10 -1.16814e-13)
(-2.13287e-12 -8.94538e-09 -2.13287e-12)
(-2.07838e-12 -8.71687e-09 -2.07838e-12)
(-5.85216e-14 -2.45443e-10 -5.85216e-14)
(-6.32807e-12 -2.65403e-08 -6.32807e-12)
(-1.54511e-10 -6.48028e-07 -1.54511e-10)
(-1.52531e-10 -6.39724e-07 -1.52531e-10)
(-4.23797e-12 -1.77743e-08 -4.23797e-12)
(-3.10079e-10 -1.30049e-06 -3.10079e-10)
(-1.13437e-08 -4.75761e-05 -1.13437e-08)
(-1.13447e-08 -4.75803e-05 -1.13447e-08)
(-3.11083e-10 -1.3047e-06 -3.11083e-10)
(-1.14215e-08 -4.79024e-05 -1.14215e-08)
(-4.19305e-07 -0.00175859 -4.19305e-07)
(-4.19307e-07 -0.0017586 -4.19307e-07)
(-1.14248e-08 -4.79162e-05 -1.14248e-08)
(-3.09033e-10 -1.2961e-06 -3.09033e-10)
(-1.12721e-08 -4.7276e-05 -1.12721e-08)
(-1.14195e-08 -4.78942e-05 -1.14195e-08)
(-4.66614e-10 -1.95701e-06 -4.66614e-10)
(-6.27184e-12 -2.63045e-08 -6.27184e-12)
(-2.27285e-10 -9.53247e-07 -2.27285e-10)
(-2.33227e-10 -9.78171e-07 -2.33227e-10)
(-1.27068e-11 -5.32931e-08 -1.27068e-11)
(-1.13146e-13 -4.74543e-10 -1.13146e-13)
(-4.07355e-12 -1.70847e-08 -4.07355e-12)
(-4.23327e-12 -1.77546e-08 -4.23327e-12)
(-2.88344e-13 -1.20934e-09 -2.88344e-13)
(-1.91363e-15 -8.02587e-12 -1.91363e-15)
(-6.8443e-14 -2.87054e-10 -6.8443e-14)
(-7.20205e-14 -3.02059e-10 -7.20205e-14)
(-5.88834e-15 -2.46961e-11 -5.88834e-15)
(-3.10701e-17 -1.3031e-13 -3.10701e-17)
(-1.10392e-15 -4.62991e-12 -1.10392e-15)
(-1.17603e-15 -4.93234e-12 -1.17603e-15)
(-1.1222e-16 -4.70658e-13 -1.1222e-16)
(-4.90294e-19 -2.05632e-15 -4.90294e-19)
(-1.73062e-17 -7.25832e-14 -1.73062e-17)
(-1.86624e-17 -7.82713e-14 -1.86624e-17)
(-2.03616e-18 -8.5398e-15 -2.03616e-18)
(0 0 0)
(0 0 0)
(0 0 0)
(0 0 0)
(0 0 0)
(0 0 0)
(0 0 0)
(0 0 0)
(0 0 0)
(0 0 0)
(0 0 0)
(0 0 0)
(0 0 0)
(0 0 0)
(0 0 0)
(0 0 0)
(0 0 0)
(0 0 0)
(0 0 0)
(0 0 0)
(0 0 0)
(0 0 0)
(0 0 0)
(0 0 0)
(0 0 0)
(0 0 0)
(0 0 0)
(0 0 0)
(0 0 0)
(0 0 0)
(0 0 0)
(0 0 0)
(0 0 0)
(0 0 0)
(0 0 0)
(0 0 0)
(0 0 0)
(0 0 0)
(0 0 0)
(0 0 0)
)
;

boundaryField
{
    inlet
    {
        type            zeroGradient;
    }
    outlet
    {
        type            zeroGradient;
    }
    walls
    {
        type            zeroGradient;
    }
}


// ************************************************************************* //
