FoamFile
{version 2.0; format ascii;class Cloud<passiveParticle>; location 0;object  positions;}
2
(
( 0.499979 0.499979 3.23205 ) 0 
( 0.49998 0.499979 2.89229 ) 0 
)
