/*--------------------------------*- C++ -*----------------------------------*\
| =========                 |                                                 |
| \\      /  F ield         | OpenFOAM: The Open Source CFD Toolbox           |
|  \\    /   O peration     | Version:  5.x                                   |
|   \\  /    A nd           | Web:      www.OpenFOAM.org                      |
|    \\/     M anipulation  |                                                 |
\*---------------------------------------------------------------------------*/
FoamFile
{
    version     2.0;
    format      ascii;
    class       volScalarField;
    location    "0.14";
    object      Ksl;
}
// * * * * * * * * * * * * * * * * * * * * * * * * * * * * * * * * * * * * * //

dimensions      [1 -3 -1 0 0 0 0];

internalField   nonuniform List<scalar> 
320
(
0.000663589
0.0118202
0.00590867
0.000264416
0.0117822
0.186838
0.100995
0.00575087
0.176485
1.90948
0.958357
0.0935932
1.39611
3.0789
1.48379
0.693049
0.0703089
1.13324
0.558201
0.0350942
0.001837
0.0390689
0.01786
0.000882064
3.85628e-05
0.00085043
0.000355236
2.03814e-05
7.71646e-07
1.65963e-05
7.00381e-06
4.58762e-07
0
0
0
0
0
0
0
0
0
0
0
0
0
0
0
0
0
0
0
0
0
0
0
0
0
0
0
0
0
0
0
0
0
0
0
0
0
0
0
0
0
0
0
0
0
0
0
0
0.0118202
0.0434506
0.052423
0.0155333
0.186838
2.58284
1.86044
0.188949
1.90948
3.27752
1.54169
1.0742
3.0789
3.19579
1.50941
1.45838
1.13324
4.47913
1.73912
0.52206
0.0390689
0.169858
0.219423
0.014954
0.00085043
0.00222145
0.00260625
0.000305902
1.65963e-05
3.38028e-05
3.78289e-05
6.02115e-06
0
5.6746e-07
6.06593e-07
0
0
0
0
0
0
0
0
0
0
0
0
0
0
0
0
0
0
0
0
0
0
0
0
0
0
0
0
0
0
0
0
0
0
0
0
0
0
0
0
0
0
0
0
0
0.00590867
0.052423
0.0802711
0.00317246
0.100995
1.86044
1.04056
0.0765455
0.958357
1.54169
1.0225
0.658669
1.48379
1.50941
1.0086
0.983879
0.558201
1.73912
1.09461
0.364834
0.01786
0.219423
0.320915
0.0108249
0.000355236
0.00260625
0.0033255
0.00020957
7.00381e-06
3.78289e-05
4.39811e-05
4.12032e-06
0
6.06593e-07
6.74754e-07
0
0
0
0
0
0
0
0
0
0
0
0
0
0
0
0
0
0
0
0
0
0
0
0
0
0
0
0
0
0
0
0
0
0
0
0
0
0
0
0
0
0
0
0
0
0.000264416
0.0155333
0.00317246
0.000137291
0.00575087
0.188949
0.0765455
0.00380263
0.0935932
1.0742
0.658669
0.0649448
0.693049
1.45838
0.983879
0.474697
0.0350942
0.52206
0.364834
0.0240683
0.000882064
0.014954
0.0108249
0.000598987
2.03814e-05
0.000305902
0.00020957
1.37724e-05
4.58762e-07
6.02115e-06
4.12032e-06
0
0
0
0
0
0
0
0
0
0
0
0
0
0
0
0
0
0
0
0
0
0
0
0
0
0
0
0
0
0
0
0
0
0
0
0
0
0
0
0
0
0
0
0
0
0
0
0
0
)
;

boundaryField
{
    inlet
    {
        type            zeroGradient;
    }
    outlet
    {
        type            zeroGradient;
    }
    walls
    {
        type            zeroGradient;
    }
}


// ************************************************************************* //
