/*--------------------------------*- C++ -*----------------------------------*\
| =========                 |                                                 |
| \\      /  F ield         | OpenFOAM: The Open Source CFD Toolbox           |
|  \\    /   O peration     | Version:  5.x                                   |
|   \\  /    A nd           | Web:      www.OpenFOAM.org                      |
|    \\/     M anipulation  |                                                 |
\*---------------------------------------------------------------------------*/
FoamFile
{
    version     2.0;
    format      ascii;
    class       volScalarField;
    location    "0.14";
    object      p;
}
// * * * * * * * * * * * * * * * * * * * * * * * * * * * * * * * * * * * * * //

dimensions      [0 2 -2 0 0 0 0];

internalField   nonuniform List<scalar> 
320
(
-3.14524e-07
2.81527e-08
-2.26578e-07
-3.35309e-07
-1.122e-06
-1.50165e-07
-8.86197e-07
-1.17209e-06
-2.18387e-06
1.84042e-06
-8.24244e-07
-2.43026e-06
-6.92685e-06
-5.80099e-06
-6.61806e-06
-6.94838e-06
-1.28816e-05
-1.58554e-05
-1.40791e-05
-1.27069e-05
-1.58961e-05
-1.83279e-05
-1.66043e-05
-1.56683e-05
-1.72159e-05
-1.80347e-05
-1.73627e-05
-1.70956e-05
-1.79991e-05
-1.84534e-05
-1.804e-05
-1.79655e-05
-1.85468e-05
-1.89238e-05
-1.8586e-05
-1.85745e-05
-1.90092e-05
-1.93384e-05
-1.91015e-05
-1.90594e-05
-1.92873e-05
-1.95183e-05
-1.93922e-05
-1.93349e-05
-1.93692e-05
-1.94864e-05
-1.94127e-05
-1.94063e-05
-1.94711e-05
-1.95385e-05
-1.95025e-05
-1.94942e-05
-1.94625e-05
-1.94917e-05
-1.94727e-05
-1.94769e-05
-1.95207e-05
-1.95393e-05
-1.9529e-05
-1.95287e-05
-1.94918e-05
-1.94988e-05
-1.94936e-05
-1.94959e-05
-1.95291e-05
-1.95342e-05
-1.95314e-05
-1.95316e-05
-1.95056e-05
-1.95076e-05
-1.95063e-05
-1.95071e-05
-1.95255e-05
-1.95272e-05
-1.95268e-05
-1.9527e-05
-1.95143e-05
-1.95163e-05
-1.95158e-05
-1.95153e-05
2.81527e-08
9.81494e-07
3.21917e-07
-2.71058e-08
-1.50165e-07
3.16229e-06
6.82971e-07
-2.36464e-07
1.84042e-06
2.00572e-05
8.96668e-06
8.71938e-07
-5.80099e-06
-2.70763e-06
-5.21832e-06
-5.86672e-06
-1.58554e-05
-3.7034e-05
-2.39318e-05
-1.51987e-05
-1.83279e-05
-2.49694e-05
-2.02343e-05
-1.77125e-05
-1.80347e-05
-1.9654e-05
-1.82757e-05
-1.78482e-05
-1.84534e-05
-1.91735e-05
-1.84465e-05
-1.83834e-05
-1.89238e-05
-1.93078e-05
-1.8835e-05
-1.89153e-05
-1.93384e-05
-1.95522e-05
-1.92503e-05
-1.93592e-05
-1.95183e-05
-1.96391e-05
-1.947e-05
-1.95502e-05
-1.94864e-05
-1.95987e-05
-1.94931e-05
-1.95259e-05
-1.95385e-05
-1.9586e-05
-1.95412e-05
-1.95576e-05
-1.94917e-05
-1.9527e-05
-1.94968e-05
-1.95085e-05
-1.95393e-05
-1.95533e-05
-1.95417e-05
-1.95464e-05
-1.94988e-05
-1.95079e-05
-1.94998e-05
-1.95022e-05
-1.95342e-05
-1.95379e-05
-1.95351e-05
-1.95364e-05
-1.95076e-05
-1.951e-05
-1.95082e-05
-1.9509e-05
-1.95272e-05
-1.95287e-05
-1.95284e-05
-1.95297e-05
-1.95163e-05
-1.95187e-05
-1.95182e-05
-1.95174e-05
-2.26578e-07
3.21917e-07
1.11306e-07
-2.2732e-07
-8.86197e-07
6.82971e-07
-6.57281e-07
-9.52635e-07
-8.24244e-07
8.96668e-06
4.97202e-06
-1.1383e-06
-6.61806e-06
-5.21832e-06
-6.25737e-06
-6.71946e-06
-1.40791e-05
-2.39318e-05
-1.99106e-05
-1.40276e-05
-1.66043e-05
-2.02343e-05
-1.80621e-05
-1.63543e-05
-1.73627e-05
-1.82757e-05
-1.7546e-05
-1.72272e-05
-1.804e-05
-1.84465e-05
-1.80642e-05
-1.79835e-05
-1.8586e-05
-1.8835e-05
-1.85641e-05
-1.85796e-05
-1.91015e-05
-1.92503e-05
-1.90859e-05
-1.91209e-05
-1.93922e-05
-1.947e-05
-1.93923e-05
-1.94229e-05
-1.94127e-05
-1.94931e-05
-1.94162e-05
-1.94387e-05
-1.95025e-05
-1.95412e-05
-1.95165e-05
-1.95185e-05
-1.94727e-05
-1.94968e-05
-1.94745e-05
-1.94836e-05
-1.9529e-05
-1.95417e-05
-1.95353e-05
-1.95353e-05
-1.94936e-05
-1.94998e-05
-1.94933e-05
-1.9497e-05
-1.95314e-05
-1.95351e-05
-1.95337e-05
-1.95336e-05
-1.95063e-05
-1.95082e-05
-1.95062e-05
-1.95074e-05
-1.95268e-05
-1.95284e-05
-1.95279e-05
-1.95279e-05
-1.95158e-05
-1.95182e-05
-1.95176e-05
-1.95165e-05
-3.35309e-07
-2.71058e-08
-2.2732e-07
-3.48521e-07
-1.17209e-06
-2.36464e-07
-9.52635e-07
-1.24898e-06
-2.43026e-06
8.71938e-07
-1.1383e-06
-2.6439e-06
-6.94838e-06
-5.86672e-06
-6.71946e-06
-6.98563e-06
-1.27069e-05
-1.51987e-05
-1.40276e-05
-1.24406e-05
-1.56683e-05
-1.77125e-05
-1.63543e-05
-1.54702e-05
-1.70956e-05
-1.78482e-05
-1.72272e-05
-1.6975e-05
-1.79655e-05
-1.83834e-05
-1.79835e-05
-1.79181e-05
-1.85745e-05
-1.89153e-05
-1.85796e-05
-1.85827e-05
-1.90594e-05
-1.93592e-05
-1.91209e-05
-1.90864e-05
-1.93349e-05
-1.95502e-05
-1.94229e-05
-1.93645e-05
-1.94063e-05
-1.95259e-05
-1.94387e-05
-1.94306e-05
-1.94942e-05
-1.95576e-05
-1.95185e-05
-1.95094e-05
-1.94769e-05
-1.95085e-05
-1.94836e-05
-1.94874e-05
-1.95287e-05
-1.95464e-05
-1.95353e-05
-1.95352e-05
-1.94959e-05
-1.95022e-05
-1.9497e-05
-1.94993e-05
-1.95316e-05
-1.95364e-05
-1.95336e-05
-1.95343e-05
-1.95071e-05
-1.9509e-05
-1.95074e-05
-1.95079e-05
-1.9527e-05
-1.95297e-05
-1.95279e-05
-1.95278e-05
-1.95153e-05
-1.95174e-05
-1.95165e-05
-1.95154e-05
)
;

boundaryField
{
    inlet
    {
        type            zeroGradient;
    }
    outlet
    {
        type            totalPressure;
        rho             rho;
        psi             none;
        gamma           1;
        p0              uniform 0;
        value           nonuniform List<scalar> 
16
(
-1.64135e-11
0
-1.16005e-11
-2.47173e-11
0
0
0
-1.53875e-12
-1.16005e-11
0
0
-1.71417e-11
-2.47173e-11
-1.53875e-12
-1.71417e-11
-3.43532e-11
)
;
    }
    walls
    {
        type            zeroGradient;
    }
}


// ************************************************************************* //
