/*--------------------------------*- C++ -*----------------------------------*\
| =========                 |                                                 |
| \\      /  F ield         | OpenFOAM: The Open Source CFD Toolbox           |
|  \\    /   O peration     | Version:  5.x                                   |
|   \\  /    A nd           | Web:      www.OpenFOAM.org                      |
|    \\/     M anipulation  |                                                 |
\*---------------------------------------------------------------------------*/
FoamFile
{
    version     2.0;
    format      ascii;
    class       surfaceScalarField;
    location    "0.14";
    object      phi;
}
// * * * * * * * * * * * * * * * * * * * * * * * * * * * * * * * * * * * * * //

dimensions      [0 3 -1 0 0 0 0];

internalField   nonuniform List<scalar> 
784
(
-8.43792e-12
4.9554e-11
-8.43792e-12
7.85143e-12
-1.14385e-11
-2.1126e-11
9.39823e-12
3.44967e-11
-1.3239e-11
5.91348e-11
-7.38663e-12
-3.16154e-11
1.12785e-10
-3.16154e-11
2.61284e-11
2.04355e-11
-8.96178e-11
3.41683e-11
8.16346e-11
-5.51779e-11
1.2198e-10
-2.86769e-11
-8.01865e-11
2.73158e-10
-8.01865e-11
5.72749e-11
2.09485e-10
-3.2651e-10
7.7565e-11
2.5599e-10
-1.94646e-10
2.68345e-10
-6.88002e-11
-1.03473e-10
4.80103e-10
-1.03473e-10
6.9587e-11
4.51612e-10
-4.15188e-10
1.05773e-10
4.74912e-10
-2.55108e-10
4.66449e-10
-9.23302e-11
-3.85341e-11
5.57171e-10
-3.85341e-11
2.80681e-11
4.79327e-10
-9.43169e-11
5.42699e-11
5.22872e-10
-7.41618e-11
5.59658e-10
-3.89398e-11
3.06964e-12
5.51032e-10
3.06964e-12
3.50029e-12
3.88998e-10
8.98984e-11
3.08791e-12
4.87868e-10
3.54158e-11
5.63987e-10
-1.24066e-12
1.9475e-11
5.12082e-10
1.9475e-11
-1.74664e-11
3.19182e-10
1.06758e-10
-1.63003e-11
4.4168e-10
4.50225e-11
5.32211e-10
1.54753e-11
3.34713e-11
4.45139e-10
3.34713e-11
-3.05122e-11
2.55594e-10
1.27571e-10
-3.4136e-11
3.8224e-10
6.30636e-11
4.69246e-10
2.88293e-11
4.13518e-11
3.62436e-10
4.13518e-11
-5.87642e-11
2.02512e-10
1.53198e-10
-5.37475e-11
3.24641e-10
5.25819e-11
3.84294e-10
3.12044e-11
6.9784e-11
2.22868e-10
6.9784e-11
-5.70909e-11
1.09111e-10
2.20276e-10
-8.44581e-11
1.99002e-10
1.53006e-10
2.3713e-10
6.27064e-11
6.25415e-11
9.77847e-11
6.25415e-11
-2.76138e-11
2.55262e-11
1.7374e-10
-6.98222e-11
7.35775e-11
1.67633e-10
1.05061e-10
6.22468e-11
2.4135e-11
4.95147e-11
2.4135e-11
-1.65483e-11
6.40213e-12
5.98074e-11
-2.8199e-11
3.14256e-11
5.38026e-11
5.32064e-11
2.36553e-11
1.53201e-11
1.88745e-11
1.53201e-11
-7.41857e-12
-1.6245e-13
2.93033e-11
-1.71014e-11
1.16754e-11
2.9433e-11
2.08923e-11
1.52127e-11
4.6315e-12
9.61148e-12
4.6315e-12
-3.89895e-12
-1.40047e-12
9.76846e-12
-5.66421e-12
4.81646e-12
8.62418e-12
1.06922e-11
4.53588e-12
3.17491e-12
3.26165e-12
3.17491e-12
-1.86902e-12
-8.05044e-13
4.44848e-12
-3.69691e-12
1.97834e-12
4.66601e-12
3.81699e-12
3.17831e-12
7.54335e-13
1.75297e-12
7.54335e-13
-9.39651e-13
-6.66656e-13
1.55561e-12
-1.03063e-12
7.3959e-13
1.32975e-12
2.0972e-12
6.89184e-13
6.31419e-13
4.90138e-13
6.31419e-13
-4.41304e-13
-2.86062e-13
6.92156e-13
-8.03127e-13
3.47595e-13
7.53841e-13
6.36775e-13
6.57315e-13
1.21861e-13
2.46434e-13
1.21861e-13
-2.41317e-13
-1.78635e-13
2.55772e-13
-1.92334e-13
9.24086e-14
2.06221e-13
3.49627e-13
9.48272e-14
1.37744e-13
-2.90414e-14
1.37744e-13
-1.10292e-13
-7.39975e-14
1.43406e-13
-2.04467e-13
3.87413e-14
1.47853e-13
2.68163e-16
1.44902e-13
-1.45194e-14
-1.45194e-14
-7.28781e-14
-1.56351e-14
-1.62868e-14
-1.78428e-14
-1.60112e-14
-2.1126e-11
-1.14385e-11
7.85143e-12
1.6406e-11
-2.15224e-10
1.6406e-11
2.16798e-11
-8.07335e-11
9.45034e-12
9.36949e-12
6.48636e-12
-8.96178e-11
2.04355e-11
2.61284e-11
6.34462e-11
-5.21352e-10
6.34462e-11
8.56168e-11
-1.93327e-10
3.52453e-11
4.3887e-11
2.24224e-11
-3.2651e-10
2.09485e-10
5.72749e-11
1.90607e-10
-1.55559e-09
1.90607e-10
2.95427e-10
-5.77003e-10
8.42104e-11
2.2637e-10
4.41436e-11
-4.15188e-10
4.51612e-10
6.9587e-11
2.38038e-10
-2.86204e-09
2.38038e-10
4.2131e-10
-1.11794e-09
1.0256e-10
4.99364e-10
5.59861e-11
-9.43169e-11
4.79327e-10
2.80681e-11
6.58012e-11
-3.18228e-09
6.58012e-11
1.6481e-10
-1.32803e-09
3.69128e-11
5.97938e-10
2.72967e-11
8.98984e-11
3.88998e-10
3.50029e-12
-1.35503e-11
-2.97538e-09
-1.35503e-11
-4.5431e-11
-1.26659e-09
5.85649e-12
5.47376e-10
3.89051e-12
1.06758e-10
3.19182e-10
-1.74664e-11
-5.66672e-11
-2.64853e-09
-5.66672e-11
-8.2699e-11
-1.17298e-09
-2.25514e-11
4.96227e-10
-1.60748e-11
1.27571e-10
2.55594e-10
-3.05122e-11
-8.56788e-11
-2.22203e-09
-8.56788e-11
-1.22112e-10
-1.02867e-09
-4.48108e-11
4.30888e-10
-2.79442e-11
1.53198e-10
2.02512e-10
-5.87642e-11
-1.60873e-10
-1.59389e-09
-1.60873e-10
-1.89973e-10
-8.34195e-10
-1.12796e-10
3.26053e-10
-5.3933e-11
2.20276e-10
1.09111e-10
-5.70909e-11
-1.58428e-10
-8.36479e-10
-1.58428e-10
-2.68359e-10
-4.86917e-10
-8.43414e-11
1.66619e-10
-4.62189e-11
1.7374e-10
2.55262e-11
-2.76138e-11
-7.3423e-11
-3.42153e-10
-7.3423e-11
-1.9506e-10
-1.87019e-10
-1.06273e-11
5.14381e-11
-1.76324e-11
5.98074e-11
6.40213e-12
-1.65483e-11
-3.65296e-11
-1.49479e-10
-3.65296e-11
-7.05036e-11
-8.40843e-11
-1.51585e-11
1.82614e-11
-1.36716e-11
2.93033e-11
-1.6245e-13
-7.41857e-12
-1.51999e-11
-6.04723e-11
-1.51999e-11
-3.43104e-11
-3.10334e-11
-4.50743e-12
4.95691e-12
-5.79307e-12
9.76846e-12
-1.40047e-12
-3.89895e-12
-7.48647e-12
-2.59624e-11
-7.48647e-12
-1.19282e-11
-1.39606e-11
-4.00692e-12
1.173e-12
-3.60842e-12
4.44848e-12
-8.05044e-13
-1.86902e-12
-3.00115e-12
-1.10632e-11
-3.00115e-12
-5.55027e-12
-5.24592e-12
-1.49951e-12
4.98863e-13
-1.69781e-12
1.55561e-12
-6.66656e-13
-9.39651e-13
-1.68239e-12
-4.58717e-12
-1.68239e-12
-2.17262e-12
-2.38366e-12
-1.04225e-12
-1.41269e-13
-8.43275e-13
6.92156e-13
-2.86062e-13
-4.41304e-13
-5.67018e-13
-2.06879e-12
-5.67018e-13
-9.1284e-13
-8.7033e-13
-4.13635e-13
7.51159e-14
-4.7189e-13
2.55772e-13
-1.78635e-13
-2.41317e-13
-4.13088e-13
-7.31046e-13
-4.13088e-13
-4.40892e-13
-3.53527e-13
-2.82757e-13
-7.56599e-14
-1.95272e-13
1.43406e-13
-7.39975e-14
-1.10292e-13
-1.27162e-13
-1.89899e-13
-1.27162e-13
-2.07928e-13
6.50146e-15
-1.31393e-13
-3.25187e-15
-1.3542e-13
-1.56351e-14
-7.28781e-14
-1.1058e-13
-1.1058e-13
-4.58435e-14
-7.60655e-14
-6.51e-14
-1.3239e-11
3.44967e-11
9.39823e-12
9.45034e-12
-8.07335e-11
2.16798e-11
1.45231e-11
-1.6127e-11
1.45231e-11
4.62793e-11
8.51517e-12
-5.51779e-11
8.16346e-11
3.41683e-11
3.52453e-11
-1.93327e-10
8.56168e-11
5.48771e-11
-5.53905e-11
5.48771e-11
9.30336e-11
3.05452e-11
-1.94646e-10
2.5599e-10
7.7565e-11
8.42104e-11
-5.77003e-10
2.95427e-10
1.90682e-10
-2.68333e-10
1.90682e-10
2.59289e-10
6.85696e-11
-2.55108e-10
4.74912e-10
1.05773e-10
1.0256e-10
-1.11794e-09
4.2131e-10
2.63957e-10
-5.91127e-10
2.63957e-10
4.8534e-10
9.38925e-11
-7.41618e-11
5.22872e-10
5.42699e-11
3.69128e-11
-1.32803e-09
1.6481e-10
1.00896e-10
-7.19094e-10
1.00896e-10
5.63068e-10
5.04646e-11
3.54158e-11
4.87868e-10
3.08791e-12
5.85649e-12
-1.26659e-09
-4.5431e-11
-1.63018e-11
-6.74777e-10
-1.63018e-11
5.45636e-10
5.02122e-12
4.50225e-11
4.4168e-10
-1.63003e-11
-2.25514e-11
-1.17298e-09
-8.2699e-11
-3.71551e-11
-6.4557e-10
-3.71551e-11
5.06754e-10
-1.43487e-11
6.30636e-11
3.8224e-10
-3.4136e-11
-4.48108e-11
-1.02867e-09
-1.22112e-10
-6.49977e-11
-6.05196e-10
-6.49977e-11
4.44665e-10
-3.08526e-11
5.25819e-11
3.24641e-10
-5.37475e-11
-1.12796e-10
-8.34195e-10
-1.89973e-10
-8.79698e-11
-6.54848e-10
-8.79698e-11
3.4674e-10
-4.39778e-11
1.53006e-10
1.99002e-10
-8.44581e-11
-8.43414e-11
-4.86917e-10
-2.68359e-10
-1.78749e-10
-4.66033e-10
-1.78749e-10
1.95125e-10
-7.33528e-11
1.67633e-10
7.35775e-11
-6.98222e-11
-1.06273e-11
-1.87019e-10
-1.9506e-10
-1.65366e-10
-1.56555e-10
-1.65366e-10
7.74139e-11
-6.52874e-11
5.38026e-11
3.14256e-11
-2.8199e-11
-1.51585e-11
-8.40843e-11
-7.05036e-11
-5.65166e-11
-7.38391e-11
-5.65166e-11
3.37174e-11
-2.64918e-11
2.9433e-11
1.16754e-11
-1.71014e-11
-4.50743e-12
-3.10334e-11
-3.43104e-11
-3.05522e-11
-2.17494e-11
-3.05522e-11
1.391e-11
-1.65379e-11
8.62418e-12
4.81646e-12
-5.66421e-12
-4.00692e-12
-1.39606e-11
-1.19282e-11
-9.71274e-12
-1.03378e-11
-9.71274e-12
6.08964e-12
-5.50079e-12
4.66601e-12
1.97834e-12
-3.69691e-12
-1.49951e-12
-5.24592e-12
-5.55027e-12
-5.37077e-12
-2.59527e-12
-5.37077e-12
2.72777e-12
-3.70669e-12
1.32975e-12
7.3959e-13
-1.03063e-12
-1.04225e-12
-2.38366e-12
-2.17262e-12
-1.64336e-12
-1.39301e-12
-1.64336e-12
1.21662e-12
-9.75467e-13
7.53841e-13
3.47595e-13
-8.03127e-13
-4.13635e-13
-8.7033e-13
-9.1284e-13
-1.04271e-12
-1.34827e-13
-1.04271e-12
5.49326e-13
-8.47287e-13
2.06221e-13
9.24086e-14
-1.92334e-13
-2.82757e-13
-3.53527e-13
-4.40892e-13
-2.82033e-13
-1.36251e-13
-2.82033e-13
2.42528e-13
-1.7049e-13
1.47853e-13
3.87413e-14
-2.04467e-13
-1.31393e-13
6.50146e-15
-2.07928e-13
-2.5299e-13
1.06962e-13
-2.5299e-13
7.05364e-14
-2.16406e-13
-1.78428e-14
-1.62868e-14
-7.60655e-14
-4.58435e-14
-2.25788e-14
-2.25788e-14
-1.7136e-14
-7.38663e-12
5.91348e-11
6.48636e-12
9.36949e-12
8.51517e-12
4.62793e-11
6.758e-11
-2.86769e-11
1.2198e-10
2.24224e-11
4.3887e-11
3.05452e-11
9.30336e-11
1.2867e-10
-6.88002e-11
2.68345e-10
4.41436e-11
2.2637e-10
6.85696e-11
2.59289e-10
2.6581e-10
-9.23302e-11
4.66449e-10
5.59861e-11
4.99364e-10
9.38925e-11
4.8534e-10
4.53595e-10
-3.89398e-11
5.59658e-10
2.72967e-11
5.97938e-10
5.04646e-11
5.63068e-10
5.54524e-10
-1.24066e-12
5.63987e-10
3.89051e-12
5.47376e-10
5.02122e-12
5.45636e-10
5.64566e-10
1.54753e-11
5.32211e-10
-1.60748e-11
4.96227e-10
-1.43487e-11
5.06754e-10
5.35869e-10
2.88293e-11
4.69246e-10
-2.79442e-11
4.30888e-10
-3.08526e-11
4.44665e-10
4.74163e-10
3.12044e-11
3.84294e-10
-5.3933e-11
3.26053e-10
-4.39778e-11
3.4674e-10
3.86208e-10
6.27064e-11
2.3713e-10
-4.62189e-11
1.66619e-10
-7.33528e-11
1.95125e-10
2.39502e-10
6.22468e-11
1.05061e-10
-1.76324e-11
5.14381e-11
-6.52874e-11
7.74139e-11
1.08928e-10
2.36553e-11
5.32064e-11
-1.36716e-11
1.82614e-11
-2.64918e-11
3.37174e-11
5.59442e-11
1.52127e-11
2.08923e-11
-5.79307e-12
4.95691e-12
-1.65379e-11
1.391e-11
2.28685e-11
4.53588e-12
1.06922e-11
-3.60842e-12
1.173e-12
-5.50079e-12
6.08964e-12
1.18669e-11
3.17831e-12
3.81699e-12
-1.69781e-12
4.98863e-13
-3.70669e-12
2.72777e-12
4.45353e-12
6.89184e-13
2.0972e-12
-8.43275e-13
-1.41269e-13
-9.75467e-13
1.21662e-12
2.50261e-12
6.57315e-13
6.36775e-13
-4.7189e-13
7.51159e-14
-8.47287e-13
5.49326e-13
8.0805e-13
9.48272e-14
3.49627e-13
-1.95272e-13
-7.56599e-14
-1.7049e-13
2.42528e-13
4.67078e-13
1.44902e-13
2.68163e-16
-1.3542e-13
-3.25187e-15
-2.16406e-13
7.05364e-14
3.42721e-14
-1.60112e-14
-6.51e-14
-1.7136e-14
)
;

boundaryField
{
    inlet
    {
        type            calculated;
        value           uniform 0;
    }
    outlet
    {
        type            calculated;
        value           nonuniform List<scalar> 
16
(
-3.26782e-11
1.62751e-11
-2.28045e-11
-4.235e-11
1.62751e-11
1.4016e-10
5.27704e-11
-1.56271e-12
-2.28045e-11
5.27704e-11
5.98151e-12
-3.37851e-11
-4.235e-11
-1.56271e-12
-3.37851e-11
-5.05497e-11
)
;
    }
    walls
    {
        type            calculated;
        value           nonuniform List<scalar> 
320
(
1.22589e-25
9.38412e-23
5.16164e-20
9.99628e-18
1.36221e-20
4.75373e-24
1.3329e-27
3.56264e-31
0
0
0
0
0
0
0
0
0
0
0
0
3.2e-23
2.73561e-20
1.36866e-17
8.10221e-16
8.07158e-18
3.71715e-21
1.08075e-24
2.81722e-28
0
0
0
0
0
0
0
0
0
0
0
0
1.53906e-23
1.44118e-20
6.7819e-18
3.906e-16
3.97611e-18
1.72152e-21
4.63265e-25
1.23559e-28
0
0
0
0
0
0
0
0
0
0
0
0
1.93983e-26
2.28191e-23
1.81973e-20
4.96307e-18
6.80038e-21
3.46889e-24
1.446e-27
5.50473e-31
0
0
0
0
0
0
0
0
0
0
0
0
-1.93983e-26
-2.28191e-23
-1.81973e-20
-4.96307e-18
-6.80038e-21
-3.46889e-24
-1.446e-27
-5.50473e-31
0
0
0
0
0
0
0
0
0
0
0
0
-2.08399e-23
-1.83348e-20
-7.65186e-18
-3.83989e-16
-3.6956e-18
-2.13452e-21
-7.82579e-25
-2.58814e-28
0
0
0
0
0
0
0
0
0
0
0
0
-4.14754e-24
-7.33254e-21
-4.69256e-18
-2.59066e-16
-2.61642e-18
-1.58557e-21
-5.57168e-25
-1.86366e-28
0
0
0
0
0
0
0
0
0
0
0
0
-5.04593e-27
-1.0105e-23
-1.26681e-20
-3.40044e-18
-7.04202e-21
-4.77253e-24
-2.49006e-27
0
0
0
0
0
0
0
0
0
0
0
0
0
1.22589e-25
9.38412e-23
5.16164e-20
9.99628e-18
1.36221e-20
4.75373e-24
1.3329e-27
3.56264e-31
0
0
0
0
0
0
0
0
0
0
0
0
3.2e-23
2.73561e-20
1.36866e-17
8.10221e-16
8.07158e-18
3.71715e-21
1.08075e-24
2.81722e-28
0
0
0
0
0
0
0
0
0
0
0
0
1.53906e-23
1.44118e-20
6.7819e-18
3.906e-16
3.97611e-18
1.72152e-21
4.63265e-25
1.23559e-28
0
0
0
0
0
0
0
0
0
0
0
0
1.93983e-26
2.28191e-23
1.81973e-20
4.96307e-18
6.80038e-21
3.46889e-24
1.446e-27
5.50473e-31
0
0
0
0
0
0
0
0
0
0
0
0
-1.93983e-26
-2.28191e-23
-1.81973e-20
-4.96307e-18
-6.80038e-21
-3.46889e-24
-1.446e-27
-5.50473e-31
0
0
0
0
0
0
0
0
0
0
0
0
-2.08399e-23
-1.83348e-20
-7.65186e-18
-3.83989e-16
-3.6956e-18
-2.13452e-21
-7.82579e-25
-2.58814e-28
0
0
0
0
0
0
0
0
0
0
0
0
-4.14754e-24
-7.33254e-21
-4.69256e-18
-2.59066e-16
-2.61642e-18
-1.58557e-21
-5.57168e-25
-1.86366e-28
0
0
0
0
0
0
0
0
0
0
0
0
-5.04593e-27
-1.0105e-23
-1.26681e-20
-3.40044e-18
-7.04202e-21
-4.77253e-24
-2.49006e-27
0
0
0
0
0
0
0
0
0
0
0
0
0
)
;
    }
}


// ************************************************************************* //
