/*--------------------------------*- C++ -*----------------------------------*\
| =========                 |                                                 |
| \\      /  F ield         | OpenFOAM: The Open Source CFD Toolbox           |
|  \\    /   O peration     | Version:  5.x                                   |
|   \\  /    A nd           | Web:      www.OpenFOAM.org                      |
|    \\/     M anipulation  |                                                 |
\*---------------------------------------------------------------------------*/
FoamFile
{
    version     2.0;
    format      ascii;
    class       volVectorField;
    location    "0.14";
    object      U;
}
// * * * * * * * * * * * * * * * * * * * * * * * * * * * * * * * * * * * * * //

dimensions      [0 1 -1 0 0 0 0];

internalField   nonuniform List<vector> 
320
(
(-1.6749e-06 5.54351e-06 -1.6749e-06)
(-3.49613e-07 -2.73078e-06 -3.98038e-06)
(2.2794e-06 3.76939e-06 -2.50308e-06)
(7.19903e-07 7.15596e-06 -1.44555e-06)
(-6.2234e-06 1.14395e-05 -6.2234e-06)
(-1.58682e-06 -1.83364e-06 -1.67282e-05)
(8.08356e-06 7.68165e-06 -9.99161e-06)
(2.60254e-06 1.31019e-05 -5.49615e-06)
(-1.42634e-05 2.8083e-05 -1.42634e-05)
(-4.45209e-06 1.21652e-05 -5.49298e-05)
(1.77357e-05 2.34352e-05 -3.08653e-05)
(6.02042e-06 2.88594e-05 -1.19803e-05)
(-2.12116e-05 5.81795e-05 -2.12116e-05)
(-7.1627e-06 4.86628e-05 -8.41705e-05)
(2.59404e-05 5.55203e-05 -4.73163e-05)
(8.19673e-06 5.66275e-05 -1.82637e-05)
(-1.24855e-05 8.53007e-05 -1.24855e-05)
(-4.3262e-06 7.91622e-05 -3.69666e-05)
(1.63523e-05 8.28276e-05 -2.33191e-05)
(3.31693e-06 8.37793e-05 -1.20449e-05)
(1.44979e-07 9.17423e-05 1.44979e-07)
(-4.6479e-07 7.53577e-05 1.36291e-05)
(2.6832e-06 8.49298e-05 3.93744e-06)
(-1.3307e-06 9.25041e-05 -9.47361e-07)
(4.97063e-06 8.79818e-05 4.97063e-06)
(-3.33836e-07 5.86779e-05 2.32665e-05)
(-3.88783e-06 7.79193e-05 9.84445e-06)
(-1.67688e-06 9.05693e-05 3.9953e-06)
(8.25966e-06 7.83345e-05 8.25966e-06)
(8.45564e-07 4.56632e-05 2.94711e-05)
(-9.13878e-06 6.61231e-05 1.49661e-05)
(-2.52218e-06 8.19065e-05 7.22849e-06)
(1.1916e-05 6.64864e-05 1.1916e-05)
(-3.47596e-07 3.67816e-05 4.08238e-05)
(-1.65092e-05 5.84553e-05 2.07077e-05)
(-1.70714e-06 7.05779e-05 1.03284e-05)
(1.49231e-05 4.97648e-05 1.49231e-05)
(5.44401e-06 2.71177e-05 4.8764e-05)
(-2.20764e-05 4.45975e-05 3.08516e-05)
(-5.8035e-06 5.2755e-05 1.32114e-05)
(1.07133e-05 2.21717e-05 1.07133e-05)
(7.8028e-06 8.27294e-06 3.20411e-05)
(-1.57917e-05 1.93735e-05 2.44166e-05)
(-6.4795e-06 2.38483e-05 9.78464e-06)
(4.65157e-06 1.01597e-05 4.65157e-06)
(2.39867e-06 5.60045e-07 1.208e-05)
(-7.17934e-06 5.36031e-06 8.80773e-06)
(-2.16242e-06 1.08604e-05 4.34241e-06)
(2.70512e-06 5.07869e-06 2.70512e-06)
(1.80107e-06 1.22094e-06 5.61997e-06)
(-3.93238e-06 4.10023e-06 4.50635e-06)
(-1.64161e-06 5.54905e-06 2.5371e-06)
(9.31158e-07 1.40868e-06 9.31158e-07)
(4.03142e-07 -1.22726e-06 2.07823e-06)
(-1.51898e-06 1.9658e-08 1.51254e-06)
(-3.89168e-07 1.60639e-06 8.88148e-07)
(5.89781e-07 1.36552e-06 5.89781e-07)
(3.31015e-07 6.5191e-07 9.06854e-07)
(-8.62631e-07 1.29122e-06 7.76556e-07)
(-3.61935e-07 1.49495e-06 5.73381e-07)
(1.72133e-07 -1.46358e-07 1.72133e-07)
(3.97886e-08 -8.18161e-07 3.61577e-07)
(-3.06751e-07 -5.15747e-07 2.62447e-07)
(-4.76523e-08 -8.30816e-08 1.50382e-07)
(1.21612e-07 5.89829e-07 1.21612e-07)
(5.83004e-08 5.2854e-07 1.49794e-07)
(-1.82418e-07 6.73511e-07 1.37299e-07)
(-8.51004e-08 6.24389e-07 1.28493e-07)
(3.46806e-08 -3.76723e-07 3.46806e-08)
(-1.80455e-09 -5.75739e-07 6.79324e-08)
(-6.64388e-08 -5.13832e-07 5.01035e-08)
(-9.10374e-10 -3.56183e-07 2.49757e-08)
(2.5806e-08 4.21768e-07 2.5806e-08)
(1.26091e-08 4.88976e-07 2.99377e-08)
(-4.34071e-08 5.22486e-07 2.88333e-08)
(-2.16082e-08 4.27329e-07 2.8883e-08)
(-1.54201e-08 -4.22061e-07 -1.54201e-08)
(8.68688e-09 -4.98615e-07 -1.73596e-08)
(-2.87018e-08 -5.00006e-07 -2.10816e-08)
(2.45461e-08 -4.18687e-07 -1.65634e-08)
(-3.98038e-06 -2.73078e-06 -3.49613e-07)
(-1.03469e-06 -2.43539e-05 -1.03469e-06)
(4.93453e-06 -9.071e-06 -7.57239e-07)
(1.78309e-06 2.55105e-07 -3.35571e-07)
(-1.67282e-05 -1.83364e-06 -1.58682e-06)
(-4.84247e-06 -5.5413e-05 -4.84247e-06)
(1.97825e-05 -2.19086e-05 -3.68917e-06)
(7.11535e-06 2.46474e-06 -1.52151e-06)
(-5.49298e-05 1.21652e-05 -4.45209e-06)
(-2.00639e-05 -7.22685e-05 -2.00639e-05)
(6.22448e-05 -2.15714e-05 -1.55275e-05)
(2.48637e-05 1.63187e-05 -4.30419e-06)
(-8.41705e-05 4.86628e-05 -7.1627e-06)
(-3.15074e-05 -0.000434658 -3.15074e-05)
(9.60115e-05 -0.00017529 -2.53145e-05)
(3.69868e-05 5.29483e-05 -6.90615e-06)
(-3.69666e-05 7.91622e-05 -4.3262e-06)
(-1.26731e-05 -0.000518084 -1.26731e-05)
(4.70413e-05 -0.000216025 -1.1592e-05)
(1.40424e-05 9.13156e-05 -4.27596e-06)
(1.36291e-05 7.53577e-05 -4.6479e-07)
(5.57769e-06 -0.000461258 5.57769e-06)
(-6.92474e-06 -0.000191871 3.1598e-06)
(-6.75438e-06 9.73741e-05 -5.26244e-07)
(2.32665e-05 5.86779e-05 -3.33836e-07)
(5.64697e-06 -0.000448531 5.64697e-06)
(-2.02112e-05 -0.000193393 2.09002e-06)
(-7.74674e-06 8.71192e-05 -4.09957e-07)
(2.94711e-05 4.56632e-05 8.45564e-07)
(7.10382e-06 -0.000395604 7.10382e-06)
(-3.11364e-05 -0.00018085 3.06521e-06)
(-1.00397e-05 7.53689e-05 5.41401e-07)
(4.08238e-05 3.67816e-05 -3.47596e-07)
(4.5515e-06 -0.000317293 4.5515e-06)
(-5.21367e-05 -0.000148375 -5.48817e-06)
(-1.13117e-05 6.42037e-05 -1.73833e-06)
(4.8764e-05 2.71177e-05 5.44401e-06)
(1.82968e-05 -0.000197037 1.82968e-05)
(-6.58742e-05 -0.00012132 1.58847e-05)
(-2.28192e-05 3.97246e-05 5.05637e-06)
(3.20411e-05 8.27294e-06 7.8028e-06)
(2.12904e-05 -7.26997e-05 2.12904e-05)
(-4.31945e-05 -3.56885e-05 2.75174e-05)
(-2.10279e-05 1.43098e-05 8.68874e-06)
(1.208e-05 5.60045e-07 2.39867e-06)
(5.93364e-06 -3.74164e-05 5.93364e-06)
(-1.67154e-05 -2.32263e-05 7.51156e-06)
(-6.6765e-06 3.00549e-06 2.54323e-06)
(5.61997e-06 1.22094e-06 1.80107e-06)
(3.24185e-06 -1.11009e-05 3.24185e-06)
(-7.7242e-06 -4.45989e-06 4.47468e-06)
(-3.62897e-06 2.45698e-06 1.9418e-06)
(2.07823e-06 -1.22726e-06 4.03142e-07)
(8.01657e-07 -7.55787e-06 8.01657e-07)
(-2.97348e-06 -4.87897e-06 1.05463e-06)
(-1.03719e-06 -6.43655e-07 4.08348e-07)
(9.06854e-07 6.5191e-07 3.31015e-07)
(4.11927e-07 -1.26032e-06 4.11927e-07)
(-1.28417e-06 1.60485e-08 6.2086e-07)
(-5.72119e-07 9.07298e-07 3.48727e-07)
(3.61577e-07 -8.18161e-07 3.97886e-08)
(8.65086e-08 -1.95839e-06 8.65086e-08)
(-5.70924e-07 -1.46194e-06 1.23641e-07)
(-1.67131e-07 -6.76242e-07 4.13893e-08)
(1.49794e-07 5.2854e-07 5.83004e-08)
(5.09414e-08 2.9391e-07 5.09414e-08)
(-2.12964e-07 5.54505e-07 8.39337e-08)
(-9.68229e-08 5.98732e-07 5.88883e-08)
(6.79324e-08 -5.75739e-07 -1.80455e-09)
(3.61441e-09 -8.38919e-07 3.61441e-09)
(-1.22498e-07 -7.55466e-07 7.38709e-09)
(-2.76032e-08 -5.47648e-07 2.06311e-10)
(2.99377e-08 4.88976e-07 1.26091e-08)
(1.06218e-08 5.46136e-07 1.06218e-08)
(-4.66588e-08 6.00667e-07 1.29364e-08)
(-2.27132e-08 5.07331e-07 1.11916e-08)
(-1.73596e-08 -4.98615e-07 8.68688e-09)
(9.98439e-09 -5.85264e-07 9.98439e-09)
(-4.11008e-08 -5.90531e-07 1.29111e-08)
(2.85612e-08 -4.99431e-07 9.14225e-09)
(-2.50308e-06 3.76939e-06 2.2794e-06)
(-7.57239e-07 -9.071e-06 4.93453e-06)
(3.16174e-06 -6.01418e-07 3.16174e-06)
(1.22687e-06 5.65624e-06 1.94378e-06)
(-9.99161e-06 7.68165e-06 8.08356e-06)
(-3.68917e-06 -2.19086e-05 1.97825e-05)
(1.20395e-05 -7.15953e-06 1.20395e-05)
(5.00399e-06 9.71971e-06 7.00001e-06)
(-3.08653e-05 2.34352e-05 1.77357e-05)
(-1.55275e-05 -2.15714e-05 6.22448e-05)
(3.49304e-05 -1.68095e-06 3.49304e-05)
(1.76157e-05 2.47954e-05 1.4618e-05)
(-4.73163e-05 5.55203e-05 2.59404e-05)
(-2.53145e-05 -0.00017529 9.60115e-05)
(5.34692e-05 -9.57137e-05 5.34692e-05)
(2.69472e-05 5.6108e-05 2.17448e-05)
(-2.33191e-05 8.28276e-05 1.63523e-05)
(-1.1592e-05 -0.000216025 4.70413e-05)
(2.88534e-05 -0.00011554 2.88534e-05)
(1.09878e-05 8.64315e-05 1.48434e-05)
(3.93744e-06 8.49298e-05 2.6832e-06)
(3.1598e-06 -0.000191871 -6.92474e-06)
(3.60711e-07 -0.000101362 3.60711e-07)
(-4.65984e-06 9.24625e-05 2.79394e-06)
(9.84445e-06 7.79193e-05 -3.88783e-06)
(2.09002e-06 -0.000193393 -2.02112e-05)
(-7.72581e-06 -0.000102505 -7.72581e-06)
(-4.22231e-06 8.82777e-05 -3.47083e-06)
(1.49661e-05 6.61231e-05 -9.13878e-06)
(3.06521e-06 -0.00018085 -3.11364e-05)
(-1.56851e-05 -0.000104831 -1.56851e-05)
(-5.73275e-06 7.67815e-05 -8.09975e-06)
(2.07077e-05 5.84553e-05 -1.65092e-05)
(-5.48817e-06 -0.000148375 -5.21367e-05)
(-2.81547e-05 -8.80514e-05 -2.81547e-05)
(-1.18034e-06 6.8052e-05 -1.36806e-05)
(3.08516e-05 4.45975e-05 -2.20764e-05)
(1.58847e-05 -0.00012132 -6.58742e-05)
(-4.12117e-05 -0.000124175 -4.12117e-05)
(-1.71835e-05 4.21908e-05 -1.83949e-05)
(2.44166e-05 1.93735e-05 -1.57917e-05)
(2.75174e-05 -3.56885e-05 -4.31945e-05)
(-3.05191e-05 -2.57686e-05 -3.05191e-05)
(-2.29203e-05 2.04832e-05 -1.36682e-05)
(8.80773e-06 5.36031e-06 -7.17934e-06)
(7.51156e-06 -2.32263e-05 -1.67154e-05)
(-1.18716e-05 -2.25398e-05 -1.18716e-05)
(-6.8061e-06 5.53056e-06 -6.4263e-06)
(4.50635e-06 4.10023e-06 -3.93238e-06)
(4.47468e-06 -4.45989e-06 -7.7242e-06)
(-5.76044e-06 -2.09756e-06 -5.76044e-06)
(-4.05856e-06 4.65464e-06 -3.57993e-06)
(1.51254e-06 1.9658e-08 -1.51898e-06)
(1.05463e-06 -4.87897e-06 -2.97348e-06)
(-2.19809e-06 -4.28325e-06 -2.19809e-06)
(-1.06043e-06 2.12226e-07 -1.42582e-06)
(7.76556e-07 1.29122e-06 -8.62631e-07)
(6.2086e-07 1.60485e-08 -1.28417e-06)
(-1.05222e-06 6.05731e-07 -1.05222e-06)
(-6.73031e-07 1.47727e-06 -8.27542e-07)
(2.62447e-07 -5.15747e-07 -3.06751e-07)
(1.23641e-07 -1.46194e-06 -5.70924e-07)
(-4.18455e-07 -1.2616e-06 -4.18455e-07)
(-1.4485e-07 -4.36748e-07 -2.78297e-07)
(1.37299e-07 6.73511e-07 -1.82418e-07)
(8.39337e-08 5.54505e-07 -2.12964e-07)
(-2.03666e-07 7.00385e-07 -2.03666e-07)
(-1.27697e-07 7.23757e-07 -1.91466e-07)
(5.01035e-08 -5.13832e-07 -6.64388e-08)
(7.38709e-09 -7.55466e-07 -1.22498e-07)
(-8.65841e-08 -7.11555e-07 -8.65841e-08)
(-1.26706e-08 -4.86579e-07 -5.51172e-08)
(2.88333e-08 5.22486e-07 -4.34071e-08)
(1.29364e-08 6.00667e-07 -4.66588e-08)
(-5.07255e-08 6.41102e-07 -5.07255e-08)
(-2.8695e-08 5.29696e-07 -4.90186e-08)
(-2.10816e-08 -5.00006e-07 -2.87018e-08)
(1.29111e-08 -5.90531e-07 -4.11008e-08)
(-3.41602e-08 -5.90116e-07 -3.41602e-08)
(2.86465e-08 -4.93133e-07 -2.70358e-08)
(-1.44555e-06 7.15596e-06 7.19903e-07)
(-3.35571e-07 2.55105e-07 1.78309e-06)
(1.94378e-06 5.65624e-06 1.22687e-06)
(6.79999e-07 8.5528e-06 6.79999e-07)
(-5.49615e-06 1.31019e-05 2.60254e-06)
(-1.52151e-06 2.46474e-06 7.11535e-06)
(7.00001e-06 9.71971e-06 5.00399e-06)
(2.46211e-06 1.44207e-05 2.46211e-06)
(-1.19803e-05 2.88594e-05 6.02042e-06)
(-4.30419e-06 1.63187e-05 2.48637e-05)
(1.4618e-05 2.47954e-05 1.76157e-05)
(5.68016e-06 2.94707e-05 5.68016e-06)
(-1.82637e-05 5.66275e-05 8.19673e-06)
(-6.90615e-06 5.29483e-05 3.69868e-05)
(2.17448e-05 5.6108e-05 2.69472e-05)
(8.01318e-06 5.54711e-05 8.01318e-06)
(-1.20449e-05 8.37793e-05 3.31693e-06)
(-4.27596e-06 9.13156e-05 1.40424e-05)
(1.48434e-05 8.64315e-05 1.09878e-05)
(3.96142e-06 8.20127e-05 3.96142e-06)
(-9.47361e-07 9.25041e-05 -1.3307e-06)
(-5.26244e-07 9.73741e-05 -6.75438e-06)
(2.79394e-06 9.24625e-05 -4.65984e-06)
(-6.87803e-07 9.17605e-05 -6.87803e-07)
(3.9953e-06 9.05693e-05 -1.67688e-06)
(-4.09957e-07 8.71192e-05 -7.74674e-06)
(-3.47083e-06 8.82777e-05 -4.22231e-06)
(-1.40724e-06 9.08515e-05 -1.40724e-06)
(7.22849e-06 8.19065e-05 -2.52218e-06)
(5.41401e-07 7.53689e-05 -1.00397e-05)
(-8.09975e-06 7.67815e-05 -5.73275e-06)
(-2.42667e-06 8.25142e-05 -2.42667e-06)
(1.03284e-05 7.05779e-05 -1.70714e-06)
(-1.73833e-06 6.42037e-05 -1.13117e-05)
(-1.36806e-05 6.8052e-05 -1.18034e-06)
(-1.33545e-06 7.14088e-05 -1.33545e-06)
(1.32114e-05 5.2755e-05 -5.8035e-06)
(5.05637e-06 3.97246e-05 -2.28192e-05)
(-1.83949e-05 4.21908e-05 -1.71835e-05)
(-5.87884e-06 5.26583e-05 -5.87884e-06)
(9.78464e-06 2.38483e-05 -6.4795e-06)
(8.68874e-06 1.43098e-05 -2.10279e-05)
(-1.36682e-05 2.04832e-05 -2.29203e-05)
(-7.07285e-06 2.47041e-05 -7.07285e-06)
(4.34241e-06 1.08604e-05 -2.16242e-06)
(2.54323e-06 3.00549e-06 -6.6765e-06)
(-6.4263e-06 5.53056e-06 -6.8061e-06)
(-2.37488e-06 1.1289e-05 -2.37488e-06)
(2.5371e-06 5.54905e-06 -1.64161e-06)
(1.9418e-06 2.45698e-06 -3.62897e-06)
(-3.57993e-06 4.65464e-06 -4.05856e-06)
(-1.80501e-06 5.98911e-06 -1.80501e-06)
(8.88148e-07 1.60639e-06 -3.89168e-07)
(4.08348e-07 -6.43655e-07 -1.03719e-06)
(-1.42582e-06 2.12226e-07 -1.06043e-06)
(-4.34575e-07 1.818e-06 -4.34575e-07)
(5.73381e-07 1.49495e-06 -3.61935e-07)
(3.48727e-07 9.07298e-07 -5.72119e-07)
(-8.27542e-07 1.47727e-06 -6.73031e-07)
(-4.00419e-07 1.64084e-06 -4.00419e-07)
(1.50382e-07 -8.30816e-08 -4.76523e-08)
(4.13893e-08 -6.76242e-07 -1.67131e-07)
(-2.78297e-07 -4.36748e-07 -1.4485e-07)
(-5.76281e-08 -8.45042e-09 -5.76281e-08)
(1.28493e-07 6.24389e-07 -8.51004e-08)
(5.88883e-08 5.98732e-07 -9.68229e-08)
(-1.91466e-07 7.23757e-07 -1.27697e-07)
(-9.30191e-08 6.65147e-07 -9.30191e-08)
(2.49757e-08 -3.56183e-07 -9.10374e-10)
(2.06311e-10 -5.47648e-07 -2.76032e-08)
(-5.51172e-08 -4.86579e-07 -1.26706e-08)
(-4.13667e-09 -3.32697e-07 -4.13667e-09)
(2.8883e-08 4.27329e-07 -2.16082e-08)
(1.11916e-08 5.07331e-07 -2.27132e-08)
(-4.90186e-08 5.29696e-07 -2.8695e-08)
(-2.29778e-08 4.341e-07 -2.29778e-08)
(-1.65634e-08 -4.18687e-07 2.45461e-08)
(9.14225e-09 -4.99431e-07 2.85612e-08)
(-2.70358e-08 -4.93133e-07 2.86465e-08)
(2.27845e-08 -4.13318e-07 2.27845e-08)
)
;

boundaryField
{
    inlet
    {
        type            fixedValue;
        value           uniform (0 0 0);
    }
    outlet
    {
        type            zeroGradient;
    }
    walls
    {
        type            fixedValue;
        value           uniform (0 0 0);
    }
}


// ************************************************************************* //
