/*--------------------------------*- C++ -*----------------------------------*\
| =========                 |                                                 |
| \\      /  F ield         | OpenFOAM: The Open Source CFD Toolbox           |
|  \\    /   O peration     | Version:  5.x                                   |
|   \\  /    A nd           | Web:      www.OpenFOAM.org                      |
|    \\/     M anipulation  |                                                 |
\*---------------------------------------------------------------------------*/
FoamFile
{
    version     2.0;
    format      ascii;
    class       volVectorField;
    location    "0.14";
    object      Us;
}
// * * * * * * * * * * * * * * * * * * * * * * * * * * * * * * * * * * * * * //

dimensions      [0 1 -1 0 0 0 0];

internalField   nonuniform List<vector> 
320
(
(-2.9889e-13 -1.23301e-09 -2.9889e-13)
(-4.37316e-12 -1.80406e-08 -4.37316e-12)
(-4.2076e-12 -1.73577e-08 -4.2076e-12)
(-1.18695e-13 -4.89656e-10 -1.18695e-13)
(-1.29066e-11 -5.32438e-08 -1.29066e-11)
(-2.36895e-10 -9.77264e-07 -2.36895e-10)
(-2.30877e-10 -9.52439e-07 -2.30877e-10)
(-6.42999e-12 -2.65257e-08 -6.42999e-12)
(-4.73952e-10 -1.9552e-06 -4.73952e-10)
(-1.15991e-08 -4.785e-05 -1.15991e-08)
(-1.14505e-08 -4.7237e-05 -1.14505e-08)
(-3.15073e-10 -1.29977e-06 -3.15073e-10)
(-1.16044e-08 -4.78718e-05 -1.16044e-08)
(-4.25904e-07 -0.00175699 -4.25904e-07)
(-4.25979e-07 -0.0017573 -4.25979e-07)
(-1.16054e-08 -4.7876e-05 -1.16054e-08)
(-3.13965e-10 -1.2952e-06 -3.13965e-10)
(-1.15252e-08 -4.75452e-05 -1.15252e-08)
(-1.15253e-08 -4.75455e-05 -1.15253e-08)
(-3.1401e-10 -1.29539e-06 -3.1401e-10)
(-4.19343e-12 -1.72992e-08 -4.19343e-12)
(-1.53936e-10 -6.35031e-07 -1.53936e-10)
(-1.55951e-10 -6.43347e-07 -1.55951e-10)
(-6.37285e-12 -2.629e-08 -6.37285e-12)
(-5.60112e-14 -2.31063e-10 -5.60112e-14)
(-2.0561e-12 -8.48204e-09 -2.0561e-12)
(-2.10994e-12 -8.70416e-09 -2.10994e-12)
(-1.14969e-13 -4.74281e-10 -1.14969e-13)
(-7.48166e-16 -3.08642e-12 -7.48166e-16)
(-2.74642e-14 -1.13298e-10 -2.74642e-14)
(-2.8543e-14 -1.17749e-10 -2.8543e-14)
(-1.94445e-15 -8.02144e-12 -1.94445e-15)
(-9.99399e-18 -4.12283e-14 -9.99399e-18)
(-3.66867e-16 -1.51344e-12 -3.66867e-16)
(-3.8608e-16 -1.5927e-12 -3.8608e-16)
(-3.15705e-17 -1.30238e-13 -3.15705e-17)
(-1.33445e-19 -5.50501e-16 -1.33445e-19)
(-4.89948e-18 -2.02119e-14 -4.89948e-18)
(-5.22023e-18 -2.15351e-14 -5.22023e-18)
(-4.98191e-19 -2.05519e-15 -4.98191e-19)
(0 0 0)
(0 0 0)
(0 0 0)
(0 0 0)
(0 0 0)
(0 0 0)
(0 0 0)
(0 0 0)
(0 0 0)
(0 0 0)
(0 0 0)
(0 0 0)
(0 0 0)
(0 0 0)
(0 0 0)
(0 0 0)
(0 0 0)
(0 0 0)
(0 0 0)
(0 0 0)
(0 0 0)
(0 0 0)
(0 0 0)
(0 0 0)
(0 0 0)
(0 0 0)
(0 0 0)
(0 0 0)
(0 0 0)
(0 0 0)
(0 0 0)
(0 0 0)
(0 0 0)
(0 0 0)
(0 0 0)
(0 0 0)
(0 0 0)
(0 0 0)
(0 0 0)
(0 0 0)
(-4.37316e-12 -1.80406e-08 -4.37316e-12)
(-8.00215e-11 -3.30113e-07 -8.00215e-11)
(-7.79722e-11 -3.21659e-07 -7.79722e-11)
(-2.16722e-12 -8.94045e-09 -2.16722e-12)
(-2.36895e-10 -9.77264e-07 -2.36895e-10)
(-5.79903e-09 -2.39228e-05 -5.79903e-09)
(-5.7243e-09 -2.36145e-05 -5.7243e-09)
(-1.56999e-10 -6.47671e-07 -1.56999e-10)
(-1.15991e-08 -4.785e-05 -1.15991e-08)
(-4.25822e-07 -0.00175665 -4.25822e-07)
(-4.25826e-07 -0.00175666 -4.25826e-07)
(-1.15264e-08 -4.75499e-05 -1.15264e-08)
(-4.25904e-07 -0.00175699 -4.25904e-07)
(-3.12518e-05 -0.128923 -3.12518e-05)
(-3.12518e-05 -0.128923 -3.12518e-05)
(-4.26058e-07 -0.00175762 -4.26058e-07)
(-1.15252e-08 -4.75452e-05 -1.15252e-08)
(-4.25974e-07 -0.00175727 -4.25974e-07)
(-4.25904e-07 -0.00175699 -4.25904e-07)
(-1.14537e-08 -4.72499e-05 -1.14537e-08)
(-1.53936e-10 -6.35031e-07 -1.53936e-10)
(-5.65329e-09 -2.33215e-05 -5.65329e-09)
(-5.72534e-09 -2.36188e-05 -5.72534e-09)
(-2.30945e-10 -9.52721e-07 -2.30945e-10)
(-2.0561e-12 -8.48204e-09 -2.0561e-12)
(-7.50272e-11 -3.0951e-07 -7.50272e-11)
(-7.6952e-11 -3.17451e-07 -7.6952e-11)
(-4.13915e-12 -1.70753e-08 -4.13915e-12)
(-2.74642e-14 -1.13298e-10 -2.74642e-14)
(-9.95722e-13 -4.10766e-09 -9.95722e-13)
(-1.03412e-12 -4.26605e-09 -1.03412e-12)
(-6.95454e-14 -2.86896e-10 -6.95454e-14)
(-3.66867e-16 -1.51344e-12 -3.66867e-16)
(-1.32148e-14 -5.4515e-11 -1.32148e-14)
(-1.38948e-14 -5.73203e-11 -1.38948e-14)
(-1.1217e-15 -4.62736e-12 -1.1217e-15)
(-4.89948e-18 -2.02119e-14 -4.89948e-18)
(-1.7535e-16 -7.23372e-13 -1.7535e-16)
(-1.86634e-16 -7.69924e-13 -1.86634e-16)
(-1.75849e-17 -7.25431e-14 -1.75849e-17)
(0 0 0)
(0 0 0)
(0 0 0)
(0 0 0)
(0 0 0)
(0 0 0)
(0 0 0)
(0 0 0)
(0 0 0)
(0 0 0)
(0 0 0)
(0 0 0)
(0 0 0)
(0 0 0)
(0 0 0)
(0 0 0)
(0 0 0)
(0 0 0)
(0 0 0)
(0 0 0)
(0 0 0)
(0 0 0)
(0 0 0)
(0 0 0)
(0 0 0)
(0 0 0)
(0 0 0)
(0 0 0)
(0 0 0)
(0 0 0)
(0 0 0)
(0 0 0)
(0 0 0)
(0 0 0)
(0 0 0)
(0 0 0)
(0 0 0)
(0 0 0)
(0 0 0)
(0 0 0)
(-4.2076e-12 -1.73577e-08 -4.2076e-12)
(-7.79722e-11 -3.21659e-07 -7.79722e-11)
(-7.60237e-11 -3.13621e-07 -7.60237e-11)
(-2.11186e-12 -8.71206e-09 -2.11186e-12)
(-2.30877e-10 -9.52439e-07 -2.30877e-10)
(-5.7243e-09 -2.36145e-05 -5.7243e-09)
(-5.65327e-09 -2.33215e-05 -5.65327e-09)
(-1.54987e-10 -6.39371e-07 -1.54987e-10)
(-1.14505e-08 -4.7237e-05 -1.14505e-08)
(-4.25826e-07 -0.00175666 -4.25826e-07)
(-4.25972e-07 -0.00175727 -4.25972e-07)
(-1.15274e-08 -4.75541e-05 -1.15274e-08)
(-4.25979e-07 -0.0017573 -4.25979e-07)
(-3.12518e-05 -0.128923 -3.12518e-05)
(-3.12518e-05 -0.128923 -3.12518e-05)
(-4.2606e-07 -0.00175763 -4.2606e-07)
(-1.15253e-08 -4.75455e-05 -1.15253e-08)
(-4.25904e-07 -0.00175699 -4.25904e-07)
(-4.25976e-07 -0.00175728 -4.25976e-07)
(-1.16034e-08 -4.78678e-05 -1.16034e-08)
(-1.55951e-10 -6.43347e-07 -1.55951e-10)
(-5.72534e-09 -2.36188e-05 -5.72534e-09)
(-5.80114e-09 -2.39315e-05 -5.80114e-09)
(-2.36984e-10 -9.77631e-07 -2.36984e-10)
(-2.10994e-12 -8.70416e-09 -2.10994e-12)
(-7.6952e-11 -3.17451e-07 -7.6952e-11)
(-7.8976e-11 -3.25801e-07 -7.8976e-11)
(-4.30145e-12 -1.77448e-08 -4.30145e-12)
(-2.8543e-14 -1.17749e-10 -2.8543e-14)
(-1.03412e-12 -4.26605e-09 -1.03412e-12)
(-1.07482e-12 -4.43395e-09 -1.07482e-12)
(-7.31804e-14 -3.01892e-10 -7.31804e-14)
(-3.8608e-16 -1.5927e-12 -3.8608e-16)
(-1.38948e-14 -5.73203e-11 -1.38948e-14)
(-1.46229e-14 -6.03241e-11 -1.46229e-14)
(-1.19497e-15 -4.92962e-12 -1.19497e-15)
(-5.22023e-18 -2.15351e-14 -5.22023e-18)
(-1.86634e-16 -7.69924e-13 -1.86634e-16)
(-1.98848e-16 -8.20309e-13 -1.98848e-16)
(-1.8963e-17 -7.82281e-14 -1.8963e-17)
(0 0 0)
(0 0 0)
(0 0 0)
(0 0 0)
(0 0 0)
(0 0 0)
(0 0 0)
(0 0 0)
(0 0 0)
(0 0 0)
(0 0 0)
(0 0 0)
(0 0 0)
(0 0 0)
(0 0 0)
(0 0 0)
(0 0 0)
(0 0 0)
(0 0 0)
(0 0 0)
(0 0 0)
(0 0 0)
(0 0 0)
(0 0 0)
(0 0 0)
(0 0 0)
(0 0 0)
(0 0 0)
(0 0 0)
(0 0 0)
(0 0 0)
(0 0 0)
(0 0 0)
(0 0 0)
(0 0 0)
(0 0 0)
(0 0 0)
(0 0 0)
(0 0 0)
(0 0 0)
(-1.18695e-13 -4.89656e-10 -1.18695e-13)
(-2.16722e-12 -8.94045e-09 -2.16722e-12)
(-2.11186e-12 -8.71206e-09 -2.11186e-12)
(-5.94642e-14 -2.45308e-10 -5.94642e-14)
(-6.42999e-12 -2.65257e-08 -6.42999e-12)
(-1.56999e-10 -6.47671e-07 -1.56999e-10)
(-1.54987e-10 -6.39371e-07 -1.54987e-10)
(-4.30623e-12 -1.77645e-08 -4.30623e-12)
(-3.15073e-10 -1.29977e-06 -3.15073e-10)
(-1.15264e-08 -4.75499e-05 -1.15264e-08)
(-1.15274e-08 -4.75541e-05 -1.15274e-08)
(-3.16093e-10 -1.30398e-06 -3.16093e-10)
(-1.16054e-08 -4.7876e-05 -1.16054e-08)
(-4.26058e-07 -0.00175762 -4.26058e-07)
(-4.2606e-07 -0.00175763 -4.2606e-07)
(-1.16088e-08 -4.78897e-05 -1.16088e-08)
(-3.1401e-10 -1.29539e-06 -3.1401e-10)
(-1.14537e-08 -4.72499e-05 -1.14537e-08)
(-1.16034e-08 -4.78678e-05 -1.16034e-08)
(-4.7413e-10 -1.95593e-06 -4.7413e-10)
(-6.37285e-12 -2.629e-08 -6.37285e-12)
(-2.30945e-10 -9.52721e-07 -2.30945e-10)
(-2.36984e-10 -9.77631e-07 -2.36984e-10)
(-1.29115e-11 -5.32637e-08 -1.29115e-11)
(-1.14969e-13 -4.74281e-10 -1.14969e-13)
(-4.13915e-12 -1.70753e-08 -4.13915e-12)
(-4.30145e-12 -1.77448e-08 -4.30145e-12)
(-2.92988e-13 -1.20867e-09 -2.92988e-13)
(-1.94445e-15 -8.02144e-12 -1.94445e-15)
(-6.95454e-14 -2.86896e-10 -6.95454e-14)
(-7.31804e-14 -3.01892e-10 -7.31804e-14)
(-5.98318e-15 -2.46825e-11 -5.98318e-15)
(-3.15705e-17 -1.30238e-13 -3.15705e-17)
(-1.1217e-15 -4.62736e-12 -1.1217e-15)
(-1.19497e-15 -4.92962e-12 -1.19497e-15)
(-1.14027e-16 -4.70398e-13 -1.14027e-16)
(-4.98191e-19 -2.05519e-15 -4.98191e-19)
(-1.75849e-17 -7.25431e-14 -1.75849e-17)
(-1.8963e-17 -7.82281e-14 -1.8963e-17)
(-2.06896e-18 -8.53508e-15 -2.06896e-18)
(0 0 0)
(0 0 0)
(0 0 0)
(0 0 0)
(0 0 0)
(0 0 0)
(0 0 0)
(0 0 0)
(0 0 0)
(0 0 0)
(0 0 0)
(0 0 0)
(0 0 0)
(0 0 0)
(0 0 0)
(0 0 0)
(0 0 0)
(0 0 0)
(0 0 0)
(0 0 0)
(0 0 0)
(0 0 0)
(0 0 0)
(0 0 0)
(0 0 0)
(0 0 0)
(0 0 0)
(0 0 0)
(0 0 0)
(0 0 0)
(0 0 0)
(0 0 0)
(0 0 0)
(0 0 0)
(0 0 0)
(0 0 0)
(0 0 0)
(0 0 0)
(0 0 0)
(0 0 0)
)
;

boundaryField
{
    inlet
    {
        type            zeroGradient;
    }
    outlet
    {
        type            zeroGradient;
    }
    walls
    {
        type            zeroGradient;
    }
}


// ************************************************************************* //
