/*--------------------------------*- C++ -*----------------------------------*\
| =========                 |                                                 |
| \\      /  F ield         | OpenFOAM: The Open Source CFD Toolbox           |
|  \\    /   O peration     | Version:  5.x                                   |
|   \\  /    A nd           | Web:      www.OpenFOAM.org                      |
|    \\/     M anipulation  |                                                 |
\*---------------------------------------------------------------------------*/
FoamFile
{
    version     2.0;
    format      ascii;
    class       volVectorField;
    location    "0.006";
    object      U;
}
// * * * * * * * * * * * * * * * * * * * * * * * * * * * * * * * * * * * * * //

dimensions      [0 1 -1 0 0 0 0];

internalField   nonuniform List<vector> 
1581
(
(3.86527e-09 3.86504e-09 -0.000386003)
(3.75339e-08 5.05412e-09 -0.000386001)
(5.01671e-08 6.69739e-09 -0.000385988)
(6.59878e-08 7.56392e-09 -0.000385991)
(4.37127e-08 9.16715e-09 -0.000385976)
(5.05463e-09 3.75335e-08 -0.000386001)
(3.83564e-08 3.83559e-08 -0.000385999)
(5.09524e-08 3.94399e-08 -0.000385986)
(6.6879e-08 3.99678e-08 -0.000385989)
(4.43127e-08 4.10531e-08 -0.000385974)
(6.69737e-09 5.01671e-08 -0.000385988)
(3.94402e-08 5.09525e-08 -0.000385986)
(5.17787e-08 5.17785e-08 -0.000385973)
(6.75985e-08 5.21472e-08 -0.000385976)
(4.48042e-08 5.28587e-08 -0.00038596)
(7.56385e-09 6.59872e-08 -0.000385991)
(3.99683e-08 6.68784e-08 -0.000385989)
(5.21471e-08 6.75984e-08 -0.000385976)
(6.79572e-08 6.79566e-08 -0.00038598)
(4.50285e-08 6.84506e-08 -0.000385963)
(9.16752e-09 4.37125e-08 -0.000385976)
(4.10535e-08 4.43122e-08 -0.000385974)
(5.28586e-08 4.48036e-08 -0.00038596)
(6.84509e-08 4.50277e-08 -0.000385963)
(4.53015e-08 4.53007e-08 -0.000385947)
(4.50576e-09 4.50597e-09 0.000200693)
(3.90049e-08 6.80938e-09 0.0002007)
(5.51122e-08 8.73517e-09 0.000200722)
(7.12446e-08 9.8435e-09 0.000200737)
(4.47996e-08 1.06232e-08 0.000200776)
(6.80954e-09 3.90046e-08 0.0002007)
(4.08698e-08 4.087e-08 0.000200708)
(5.64692e-08 4.24281e-08 0.00020073)
(7.21086e-08 4.33773e-08 0.000200745)
(4.51411e-08 4.39971e-08 0.000200784)
(8.73526e-09 5.51123e-08 0.000200722)
(4.24282e-08 5.64689e-08 0.00020073)
(5.76193e-08 5.7619e-08 0.000200752)
(7.2811e-08 5.83216e-08 0.000200768)
(4.54242e-08 5.87234e-08 0.000200806)
(9.84332e-09 7.12448e-08 0.000200737)
(4.33769e-08 7.21087e-08 0.000200745)
(5.83219e-08 7.28114e-08 0.000200768)
(7.32107e-08 7.32113e-08 0.000200783)
(4.55461e-08 7.33128e-08 0.000200822)
(1.06233e-08 4.47997e-08 0.000200776)
(4.39966e-08 4.51415e-08 0.000200784)
(5.87238e-08 4.54241e-08 0.000200806)
(7.33124e-08 4.55467e-08 0.000200822)
(4.55278e-08 4.55281e-08 0.00020086)
(1.17182e-08 1.17183e-08 -0.000270857)
(6.71288e-08 1.32826e-08 -0.000270842)
(8.73023e-08 1.51467e-08 -0.000270802)
(1.2028e-07 1.61206e-08 -0.000270776)
(8.31216e-08 1.74278e-08 -0.000270713)
(1.32828e-08 6.71286e-08 -0.000270842)
(6.85382e-08 6.85384e-08 -0.000270827)
(8.84715e-08 6.99515e-08 -0.000270787)
(1.21261e-07 7.07734e-08 -0.000270761)
(8.36468e-08 7.16056e-08 -0.000270699)
(1.51469e-08 8.73024e-08 -0.000270802)
(6.99516e-08 8.84712e-08 -0.000270787)
(8.95378e-08 8.95376e-08 -0.000270747)
(1.21932e-07 9.01241e-08 -0.000270721)
(8.39583e-08 9.05399e-08 -0.000270659)
(1.61211e-08 1.2028e-07 -0.000270776)
(7.07735e-08 1.21261e-07 -0.000270761)
(9.01243e-08 1.21931e-07 -0.000270721)
(1.22262e-07 1.22261e-07 -0.000270695)
(8.40649e-08 1.22296e-07 -0.000270633)
(1.74278e-08 8.31217e-08 -0.000270713)
(7.16053e-08 8.3647e-08 -0.000270699)
(9.05404e-08 8.3958e-08 -0.000270659)
(1.22296e-07 8.40652e-08 -0.000270633)
(8.39942e-08 8.3994e-08 -0.000270572)
(1.99124e-08 1.99126e-08 8.41273e-05)
(9.44461e-08 2.19235e-08 8.41517e-05)
(1.21858e-07 2.3856e-08 8.42162e-05)
(1.59573e-07 2.48523e-08 8.42615e-05)
(1.07227e-07 2.58075e-08 8.43608e-05)
(2.19231e-08 9.4446e-08 8.41517e-05)
(9.62546e-08 9.62545e-08 8.41764e-05)
(1.23102e-07 9.75946e-08 8.42406e-05)
(1.60405e-07 9.8354e-08 8.42858e-05)
(1.0756e-07 9.8667e-08 8.43847e-05)
(2.38559e-08 1.21858e-07 8.42162e-05)
(9.75947e-08 1.23102e-07 8.42406e-05)
(1.23957e-07 1.23957e-07 8.43043e-05)
(1.60643e-07 1.24387e-07 8.43491e-05)
(1.07542e-07 1.2423e-07 8.44471e-05)
(2.48502e-08 1.59573e-07 8.42615e-05)
(9.8354e-08 1.60405e-07 8.42858e-05)
(1.24387e-07 1.60643e-07 8.43491e-05)
(1.60677e-07 1.60677e-07 8.43936e-05)
(1.07403e-07 1.60002e-07 8.44909e-05)
(2.58073e-08 1.07227e-07 8.43608e-05)
(9.86672e-08 1.0756e-07 8.43847e-05)
(1.2423e-07 1.07541e-07 8.44471e-05)
(1.60002e-07 1.07403e-07 8.44909e-05)
(1.06865e-07 1.06865e-07 8.4587e-05)
(3.75241e-08 3.75238e-08 -0.000172467)
(1.56062e-07 3.88441e-08 -0.000172427)
(1.97095e-07 4.03389e-08 -0.000172324)
(2.64918e-07 4.10695e-08 -0.000172252)
(1.82873e-07 4.18382e-08 -0.000172092)
(3.88443e-08 1.56062e-07 -0.000172427)
(1.57451e-07 1.57451e-07 -0.000172388)
(1.97898e-07 1.58088e-07 -0.000172285)
(2.65362e-07 1.58362e-07 -0.000172214)
(1.82957e-07 1.57878e-07 -0.000172055)
(4.03387e-08 1.97096e-07 -0.000172324)
(1.58089e-07 1.97898e-07 -0.000172285)
(1.98007e-07 1.98007e-07 -0.000172183)
(2.64705e-07 1.97872e-07 -0.000172113)
(1.82388e-07 1.96757e-07 -0.000171955)
(4.107e-08 2.64917e-07 -0.000172252)
(1.58362e-07 2.65362e-07 -0.000172214)
(1.97872e-07 2.64704e-07 -0.000172113)
(2.64111e-07 2.6411e-07 -0.000172044)
(1.81837e-07 2.62223e-07 -0.000171887)
(4.18385e-08 1.82873e-07 -0.000172092)
(1.57878e-07 1.82957e-07 -0.000172055)
(1.96757e-07 1.82388e-07 -0.000171955)
(2.62222e-07 1.81837e-07 -0.000171887)
(1.80493e-07 1.80493e-07 -0.000171732)
(6.13286e-08 6.13286e-08 4.39024e-06)
(2.37431e-07 6.22442e-08 4.45029e-06)
(2.96993e-07 6.32924e-08 4.60845e-06)
(3.91438e-07 6.36683e-08 4.71784e-06)
(2.68405e-07 6.38431e-08 4.95995e-06)
(6.22465e-08 2.37431e-07 4.45029e-06)
(2.38442e-07 2.38442e-07 4.51019e-06)
(2.97122e-07 2.37853e-07 4.66712e-06)
(3.91105e-07 2.373e-07 4.7758e-06)
(2.67957e-07 2.35227e-07 5.01654e-06)
(6.32926e-08 2.96993e-07 4.60845e-06)
(2.37853e-07 2.97122e-07 4.66712e-06)
(2.95852e-07 2.95851e-07 4.82184e-06)
(3.88811e-07 2.94786e-07 4.92896e-06)
(2.66324e-07 2.91833e-07 5.16677e-06)
(6.36698e-08 3.91439e-07 4.71784e-06)
(2.37299e-07 3.91105e-07 4.77581e-06)
(2.94786e-07 3.88811e-07 4.92896e-06)
(3.87086e-07 3.87086e-07 5.03512e-06)
(2.64992e-07 3.82901e-07 5.27084e-06)
(6.38448e-08 2.68404e-07 4.95995e-06)
(2.35227e-07 2.67957e-07 5.01654e-06)
(2.91833e-07 2.66324e-07 5.16677e-06)
(3.82901e-07 2.64992e-07 5.27084e-06)
(2.62123e-07 2.62123e-07 5.5023e-06)
(1.00098e-07 1.001e-07 -0.000113434)
(3.74278e-07 1.00002e-07 -0.000113342)
(4.64639e-07 1.00172e-07 -0.000113097)
(6.16399e-07 9.99438e-08 -0.00011293)
(4.26028e-07 9.92529e-08 -0.00011255)
(1.00002e-07 3.74278e-07 -0.000113342)
(3.7428e-07 3.74279e-07 -0.000113251)
(4.63513e-07 3.71477e-07 -0.000113008)
(6.14773e-07 3.69486e-07 -0.000112841)
(4.24738e-07 3.64704e-07 -0.000112464)
(1.00172e-07 4.64639e-07 -0.000113097)
(3.71477e-07 4.63513e-07 -0.000113008)
(4.59845e-07 4.59846e-07 -0.000112768)
(6.09626e-07 4.57189e-07 -0.000112604)
(4.21228e-07 4.5105e-07 -0.000112232)
(9.9942e-08 6.16399e-07 -0.00011293)
(3.69486e-07 6.14772e-07 -0.000112841)
(4.57189e-07 6.09625e-07 -0.000112604)
(6.05977e-07 6.05977e-07 -0.000112442)
(4.18573e-07 5.97746e-07 -0.000112073)
(9.92529e-08 4.26028e-07 -0.00011255)
(3.64704e-07 4.24738e-07 -0.000112464)
(4.51051e-07 4.21228e-07 -0.000112232)
(5.97745e-07 4.18573e-07 -0.000112073)
(4.12962e-07 4.12962e-07 -0.000111712)
(1.56051e-07 1.56051e-07 -3.92451e-05)
(5.74493e-07 1.54899e-07 -3.91071e-05)
(7.09697e-07 1.53896e-07 -3.87332e-05)
(9.38585e-07 1.52925e-07 -3.84804e-05)
(6.49936e-07 1.50822e-07 -3.79015e-05)
(1.549e-07 5.74493e-07 -3.91071e-05)
(5.73188e-07 5.73188e-07 -3.89697e-05)
(7.06848e-07 5.66989e-07 -3.85984e-05)
(9.34972e-07 5.62789e-07 -3.83472e-05)
(6.47264e-07 5.53346e-07 -3.77719e-05)
(1.53896e-07 7.09697e-07 -3.87332e-05)
(5.66989e-07 7.06848e-07 -3.85984e-05)
(6.99297e-07 6.99297e-07 -3.82334e-05)
(9.24942e-07 6.94092e-07 -3.79864e-05)
(6.40454e-07 6.82402e-07 -3.74203e-05)
(1.52925e-07 9.38585e-07 -3.84804e-05)
(5.62788e-07 9.34971e-07 -3.83472e-05)
(6.94092e-07 9.24942e-07 -3.79864e-05)
(9.18076e-07 9.18076e-07 -3.77419e-05)
(6.35523e-07 9.02744e-07 -3.7182e-05)
(1.50822e-07 6.49935e-07 -3.79015e-05)
(5.53347e-07 6.47264e-07 -3.77719e-05)
(6.82402e-07 6.40454e-07 -3.74203e-05)
(9.02744e-07 6.35522e-07 -3.7182e-05)
(6.25057e-07 6.25057e-07 -3.66356e-05)
(2.4113e-07 2.41132e-07 -8.57252e-05)
(8.8619e-07 2.38781e-07 -8.55157e-05)
(1.0914e-06 2.36027e-07 -8.49405e-05)
(1.44811e-06 2.34006e-07 -8.45562e-05)
(1.00755e-06 2.29587e-07 -8.36613e-05)
(2.38784e-07 8.8619e-07 -8.55157e-05)
(8.8295e-07 8.82949e-07 -8.53074e-05)
(1.08603e-06 8.71198e-07 -8.47362e-05)
(1.44127e-06 8.63416e-07 -8.43544e-05)
(1.00257e-06 8.45857e-07 -8.34656e-05)
(2.36028e-07 1.0914e-06 -8.49405e-05)
(8.71198e-07 1.08603e-06 -8.47362e-05)
(1.07187e-06 1.07187e-06 -8.4176e-05)
(1.42277e-06 1.06244e-06 -8.38013e-05)
(9.89915e-07 1.041e-06 -8.29286e-05)
(2.34006e-07 1.44811e-06 -8.45562e-05)
(8.63417e-07 1.44127e-06 -8.43544e-05)
(1.06244e-06 1.42276e-06 -8.38013e-05)
(1.4104e-06 1.4104e-06 -8.34308e-05)
(9.81024e-07 1.38247e-06 -8.25689e-05)
(2.29588e-07 1.00755e-06 -8.36613e-05)
(8.45857e-07 1.00257e-06 -8.34656e-05)
(1.041e-06 9.89915e-07 -8.29286e-05)
(1.38247e-06 9.81024e-07 -8.25689e-05)
(9.61856e-07 9.61856e-07 -8.1731e-05)
(3.68238e-07 3.6824e-07 -6.04502e-05)
(1.35919e-06 3.64698e-07 -6.01316e-05)
(1.6692e-06 3.59213e-07 -5.92488e-05)
(2.21778e-06 3.55589e-07 -5.86661e-05)
(1.54901e-06 3.47249e-07 -5.7293e-05)
(3.64698e-07 1.35919e-06 -6.01316e-05)
(1.3527e-06 1.3527e-06 -5.98152e-05)
(1.65984e-06 1.33151e-06 -5.89394e-05)
(2.20558e-06 1.31774e-06 -5.83608e-05)
(1.54012e-06 1.28601e-06 -5.69985e-05)
(3.59214e-07 1.6692e-06 -5.92488e-05)
(1.33151e-06 1.65984e-06 -5.89394e-05)
(1.63424e-06 1.63424e-06 -5.80831e-05)
(2.17228e-06 1.61769e-06 -5.7517e-05)
(1.51714e-06 1.57911e-06 -5.61836e-05)
(3.55588e-07 2.21778e-06 -5.86661e-05)
(1.31774e-06 2.20558e-06 -5.83608e-05)
(1.61769e-06 2.17228e-06 -5.7517e-05)
(2.15046e-06 2.15046e-06 -5.69582e-05)
(1.50136e-06 2.10039e-06 -5.56438e-05)
(3.47249e-07 1.54901e-06 -5.7293e-05)
(1.28601e-06 1.54012e-06 -5.69985e-05)
(1.57912e-06 1.51714e-06 -5.61836e-05)
(2.10039e-06 1.50136e-06 -5.56438e-05)
(1.46684e-06 1.46684e-06 -5.43722e-05)
(5.6155e-07 5.6155e-07 -7.7327e-05)
(2.08767e-06 5.56535e-07 -7.68401e-05)
(2.55694e-06 5.46353e-07 -7.54809e-05)
(3.40385e-06 5.40022e-07 -7.45947e-05)
(2.38705e-06 5.24712e-07 -7.24814e-05)
(5.56535e-07 2.08767e-06 -7.68401e-05)
(2.07511e-06 2.07511e-06 -7.63579e-05)
(2.54048e-06 2.03687e-06 -7.50111e-05)
(3.38217e-06 2.01245e-06 -7.41321e-05)
(2.37123e-06 1.95523e-06 -7.20378e-05)
(5.46353e-07 2.55694e-06 -7.54809e-05)
(2.03687e-06 2.54048e-06 -7.50111e-05)
(2.49427e-06 2.49427e-06 -7.36993e-05)
(3.32221e-06 2.46506e-06 -7.28426e-05)
(2.32955e-06 2.39573e-06 -7.07997e-05)
(5.40022e-07 3.40385e-06 -7.45947e-05)
(2.01245e-06 3.38217e-06 -7.41321e-05)
(2.46506e-06 3.32221e-06 -7.28426e-05)
(3.28363e-06 3.28363e-06 -7.19985e-05)
(2.30156e-06 3.19392e-06 -6.9989e-05)
(5.24712e-07 2.38705e-06 -7.24814e-05)
(1.95523e-06 2.37123e-06 -7.20378e-05)
(2.39573e-06 2.32955e-06 -7.07997e-05)
(3.19392e-06 2.30156e-06 -6.9989e-05)
(2.23943e-06 2.23942e-06 -6.80548e-05)
(8.55357e-07 8.55357e-07 -7.26103e-05)
(3.2053e-06 8.48105e-07 -7.18646e-05)
(3.91463e-06 8.29867e-07 -6.97696e-05)
(5.21728e-06 8.18832e-07 -6.84197e-05)
(3.67238e-06 7.91369e-07 -6.51723e-05)
(8.48104e-07 3.2053e-06 -7.18646e-05)
(3.18171e-06 3.18171e-06 -7.11276e-05)
(3.88565e-06 3.11312e-06 -6.90551e-05)
(5.1789e-06 3.06984e-06 -6.77183e-05)
(3.64443e-06 2.96774e-06 -6.45048e-05)
(8.29867e-07 3.91463e-06 -6.97696e-05)
(3.11312e-06 3.88565e-06 -6.90551e-05)
(3.80277e-06 3.80277e-06 -6.70469e-05)
(5.0719e-06 3.75126e-06 -6.57503e-05)
(3.56978e-06 3.62788e-06 -6.26294e-05)
(8.18832e-07 5.21728e-06 -6.84197e-05)
(3.06984e-06 5.1789e-06 -6.77183e-05)
(3.75126e-06 5.0719e-06 -6.57503e-05)
(5.00401e-06 5.00401e-06 -6.44762e-05)
(3.52043e-06 4.84523e-06 -6.14145e-05)
(7.91368e-07 3.67238e-06 -6.51723e-05)
(2.96774e-06 3.64443e-06 -6.45048e-05)
(3.62788e-06 3.56978e-06 -6.26294e-05)
(4.84523e-06 3.52043e-06 -6.14145e-05)
(3.41023e-06 3.41023e-06 -5.84864e-05)
(1.30571e-06 1.30571e-06 -8.13931e-05)
(4.92839e-06 1.29432e-06 -8.02467e-05)
(6.0018e-06 1.26146e-06 -7.7012e-05)
(8.00116e-06 1.24204e-06 -7.4953e-05)
(5.6503e-06 1.19258e-06 -6.99646e-05)
(1.29432e-06 4.92839e-06 -8.02467e-05)
(4.88459e-06 4.88459e-06 -7.91166e-05)
(5.94975e-06 4.75958e-06 -7.59242e-05)
(7.93251e-06 4.68184e-06 -7.3889e-05)
(5.60033e-06 4.49814e-06 -6.89606e-05)
(1.26146e-06 6.0018e-06 -7.7012e-05)
(4.75958e-06 5.94975e-06 -7.59242e-05)
(5.79905e-06 5.79905e-06 -7.28498e-05)
(7.73972e-06 5.70713e-06 -7.08873e-05)
(5.46568e-06 5.48606e-06 -6.61225e-05)
(1.24204e-06 8.00116e-06 -7.4953e-05)
(4.68184e-06 7.93251e-06 -7.3889e-05)
(5.70713e-06 7.73972e-06 -7.08873e-05)
(7.61952e-06 7.61952e-06 -6.89646e-05)
(5.37812e-06 7.33691e-06 -6.43047e-05)
(1.19258e-06 5.6503e-06 -6.99646e-05)
(4.49813e-06 5.60033e-06 -6.89606e-05)
(5.48606e-06 5.46568e-06 -6.61225e-05)
(7.33691e-06 5.37812e-06 -6.43047e-05)
(5.18167e-06 5.18167e-06 -5.98774e-05)
(1.99943e-06 1.99943e-06 -8.68517e-05)
(7.58644e-06 1.97846e-06 -8.51126e-05)
(9.20825e-06 1.91813e-06 -8.0155e-05)
(1.22647e-05 1.88343e-06 -7.70005e-05)
(8.68552e-06 1.79571e-06 -6.93332e-05)
(1.97846e-06 7.58644e-06 -8.51126e-05)
(7.50417e-06 7.50416e-06 -8.33949e-05)
(9.11326e-06 7.27533e-06 -7.84924e-05)
(1.21425e-05 7.13559e-06 -7.53773e-05)
(8.59719e-06 6.80983e-06 -6.78178e-05)
(1.91813e-06 9.20825e-06 -8.0155e-05)
(7.27533e-06 9.11326e-06 -7.84924e-05)
(8.83967e-06 8.83967e-06 -7.37846e-05)
(1.17992e-05 8.67565e-06 -7.07994e-05)
(8.35809e-06 8.28379e-06 -6.35338e-05)
(1.88343e-06 1.22647e-05 -7.70005e-05)
(7.13559e-06 1.21425e-05 -7.53773e-05)
(8.67565e-06 1.17992e-05 -7.07994e-05)
(1.15866e-05 1.15866e-05 -6.78861e-05)
(8.20325e-06 1.10904e-05 -6.08104e-05)
(1.79571e-06 8.68552e-06 -6.93332e-05)
(6.80983e-06 8.59719e-06 -6.78178e-05)
(8.28379e-06 8.35809e-06 -6.35338e-05)
(1.10904e-05 8.20325e-06 -6.08104e-05)
(7.85934e-06 7.85934e-06 -5.41501e-05)
(3.04375e-06 3.04375e-06 -9.94069e-05)
(1.16251e-05 3.01241e-06 -9.65447e-05)
(1.41139e-05 2.92446e-06 -8.86554e-05)
(1.8823e-05 2.8658e-06 -8.37689e-05)
(1.33563e-05 2.70818e-06 -7.19954e-05)
(3.0124e-06 1.16251e-05 -9.65447e-05)
(1.15047e-05 1.15047e-05 -9.37629e-05)
(1.39674e-05 1.113e-05 -8.60817e-05)
(1.86072e-05 1.08829e-05 -8.12826e-05)
(1.31979e-05 1.02975e-05 -6.97097e-05)
(2.92445e-06 1.41139e-05 -8.86554e-05)
(1.113e-05 1.39674e-05 -8.60817e-05)
(1.34921e-05 1.34921e-05 -7.88599e-05)
(1.79905e-05 1.31984e-05 -7.43092e-05)
(1.27678e-05 1.24935e-05 -6.32579e-05)
(2.8658e-06 1.8823e-05 -8.37689e-05)
(1.08829e-05 1.86072e-05 -8.12826e-05)
(1.31984e-05 1.79905e-05 -7.43092e-05)
(1.76086e-05 1.76086e-05 -6.98902e-05)
(1.24892e-05 1.67207e-05 -5.91702e-05)
(2.70818e-06 1.33563e-05 -7.19954e-05)
(1.02975e-05 1.31979e-05 -6.97097e-05)
(1.24935e-05 1.27678e-05 -6.32579e-05)
(1.67207e-05 1.24892e-05 -5.91702e-05)
(1.18754e-05 1.18754e-05 -4.91242e-05)
(4.86378e-06 4.86378e-06 -0.00011687)
(1.83379e-05 4.76156e-06 -0.00011238)
(2.1984e-05 4.49257e-06 -0.000100363)
(2.89247e-05 4.37033e-06 -9.24891e-05)
(2.05196e-05 4.08159e-06 -7.44332e-05)
(4.76156e-06 1.83379e-05 -0.00011238)
(1.79671e-05 1.79671e-05 -0.000108099)
(2.15935e-05 1.70709e-05 -9.62795e-05)
(2.85147e-05 1.65953e-05 -8.867e-05)
(2.02295e-05 1.55473e-05 -7.09661e-05)
(4.49257e-06 2.1984e-05 -0.000100363)
(1.70709e-05 2.15935e-05 -9.62795e-05)
(2.06122e-05 2.06122e-05 -8.51642e-05)
(2.74012e-05 2.00681e-05 -7.8112e-05)
(1.94661e-05 1.88232e-05 -6.13353e-05)
(4.37033e-06 2.89247e-05 -9.24891e-05)
(1.65953e-05 2.85147e-05 -8.867e-05)
(2.00681e-05 2.74012e-05 -7.8112e-05)
(2.67257e-05 2.67257e-05 -7.13808e-05)
(1.89778e-05 2.52242e-05 -5.52634e-05)
(4.08159e-06 2.05196e-05 -7.44332e-05)
(1.55473e-05 2.02295e-05 -7.09661e-05)
(1.88232e-05 1.94661e-05 -6.13353e-05)
(2.52242e-05 1.89778e-05 -5.52634e-05)
(1.79564e-05 1.79564e-05 -4.05428e-05)
(7.53958e-06 7.53958e-06 -0.000143565)
(2.81325e-05 7.29572e-06 -0.000136586)
(3.40046e-05 7.00932e-06 -0.000117966)
(4.47527e-05 6.68576e-06 -0.000105975)
(3.15069e-05 6.1752e-06 -7.81867e-05)
(7.29572e-06 2.81325e-05 -0.000136586)
(2.7605e-05 2.7605e-05 -0.000129788)
(3.33969e-05 2.63284e-05 -0.000111638)
(4.39207e-05 2.526e-05 -9.99424e-05)
(3.09942e-05 2.33954e-05 -7.28883e-05)
(7.00932e-06 3.40046e-05 -0.000117966)
(2.63284e-05 3.33969e-05 -0.000111638)
(3.16596e-05 3.16596e-05 -9.4708e-05)
(4.18196e-05 3.04875e-05 -8.3859e-05)
(2.96322e-05 2.81962e-05 -5.84663e-05)
(6.68576e-06 4.47527e-05 -0.000105975)
(2.526e-05 4.39207e-05 -9.99424e-05)
(3.04875e-05 4.18196e-05 -8.3859e-05)
(4.04573e-05 4.04573e-05 -7.35681e-05)
(2.86906e-05 3.75134e-05 -4.93025e-05)
(6.1752e-06 3.15069e-05 -7.81867e-05)
(2.33954e-05 3.09942e-05 -7.28883e-05)
(2.81962e-05 2.96322e-05 -5.84663e-05)
(3.75134e-05 2.86906e-05 -4.93025e-05)
(2.66735e-05 2.66735e-05 -2.70936e-05)
(1.18505e-05 1.18505e-05 -0.000186096)
(4.39373e-05 1.15641e-05 -0.000173884)
(5.25949e-05 1.08234e-05 -0.0001456)
(6.87042e-05 1.04043e-05 -0.00012644)
(4.84551e-05 9.38043e-06 -8.43528e-05)
(1.15641e-05 4.39373e-05 -0.000173884)
(4.29144e-05 4.29144e-05 -0.000162606)
(5.1439e-05 4.03287e-05 -0.00013553)
(6.7265e-05 3.8711e-05 -0.000117005)
(4.74274e-05 3.52678e-05 -7.60442e-05)
(1.08234e-05 5.25949e-05 -0.0001456)
(4.03287e-05 5.1439e-05 -0.00013553)
(4.83915e-05 4.83915e-05 -0.000110073)
(6.36432e-05 4.64424e-05 -9.28885e-05)
(4.49941e-05 4.2409e-05 -5.46773e-05)
(1.04043e-05 6.87042e-05 -0.00012644)
(3.8711e-05 6.7265e-05 -0.000117005)
(4.64424e-05 6.36432e-05 -9.28885e-05)
(6.12824e-05 6.12824e-05 -7.69294e-05)
(4.33722e-05 5.65971e-05 -4.07732e-05)
(9.38043e-06 4.84551e-05 -8.43528e-05)
(3.52678e-05 4.74274e-05 -7.60442e-05)
(4.2409e-05 4.49941e-05 -5.46773e-05)
(5.65971e-05 4.33722e-05 -4.07732e-05)
(4.0284e-05 4.0284e-05 -7.67257e-06)
(1.97588e-05 1.97588e-05 -0.000252557)
(6.86289e-05 1.85804e-05 -0.000231433)
(8.14487e-05 1.70834e-05 -0.000185947)
(0.000106 1.61234e-05 -0.00015388)
(7.38242e-05 1.44843e-05 -9.08256e-05)
(1.85804e-05 6.86289e-05 -0.000231433)
(6.59588e-05 6.59588e-05 -0.000212011)
(7.89978e-05 6.18555e-05 -0.000168959)
(0.000103407 5.88115e-05 -0.000139473)
(7.21785e-05 5.30709e-05 -7.82362e-05)
(1.70834e-05 8.14487e-05 -0.000185947)
(6.18555e-05 7.89978e-05 -0.000168959)
(7.43014e-05 7.43014e-05 -0.000130582)
(9.72158e-05 7.05634e-05 -0.000104099)
(6.80518e-05 6.34672e-05 -4.73272e-05)
(1.61234e-05 0.000106 -0.00015388)
(5.88115e-05 0.000103407 -0.000139473)
(7.05634e-05 9.72158e-05 -0.000104099)
(9.2573e-05 9.2573e-05 -7.94195e-05)
(6.50436e-05 8.45185e-05 -2.61455e-05)
(1.44843e-05 7.38242e-05 -9.08256e-05)
(5.30709e-05 7.21785e-05 -7.82362e-05)
(6.34672e-05 6.80518e-05 -4.73272e-05)
(8.45185e-05 6.50436e-05 -2.61455e-05)
(5.99515e-05 5.99515e-05 1.89864e-05)
(3.29894e-05 3.29894e-05 -0.000366239)
(0.000110547 3.09988e-05 -0.000328971)
(0.000130148 2.7822e-05 -0.000256473)
(0.000163827 2.48182e-05 -0.000201367)
(0.000111868 2.19734e-05 -0.000103022)
(3.09988e-05 0.000110547 -0.000328971)
(0.000105388 0.000105388 -0.000295416)
(0.000123977 9.56937e-05 -0.000227276)
(0.000157989 8.84924e-05 -0.000176762)
(0.000109009 7.87661e-05 -8.32455e-05)
(2.7822e-05 0.000130148 -0.000256473)
(9.56937e-05 0.000123977 -0.000227276)
(0.000113252 0.000113252 -0.000166498)
(0.000146899 0.000106496 -0.000123467)
(0.000102085 9.44997e-05 -3.80641e-05)
(2.48182e-05 0.000163827 -0.000201367)
(8.84924e-05 0.000157989 -0.000176762)
(0.000106496 0.000146899 -0.000123467)
(0.000139236 0.000139236 -8.46309e-05)
(9.6945e-05 0.000122911 -5.63679e-06)
(2.19734e-05 0.000111868 -0.000103022)
(7.87661e-05 0.000109009 -8.32455e-05)
(9.44997e-05 0.000102085 -3.80641e-05)
(0.000122911 9.6945e-05 -5.63679e-06)
(8.56795e-05 8.56795e-05 5.68918e-05)
(5.70462e-05 5.70462e-05 -0.000537616)
(0.000178395 5.21533e-05 -0.000469094)
(0.000209053 4.62944e-05 -0.00035618)
(0.000259453 4.07368e-05 -0.000263312)
(0.000172733 3.42641e-05 -0.000112002)
(5.21533e-05 0.000178395 -0.000469094)
(0.000167655 0.000167655 -0.000410259)
(0.000197651 0.000151831 -0.000306712)
(0.000247439 0.000136711 -0.000222841)
(0.000166233 0.000118029 -8.20564e-05)
(4.62944e-05 0.000209053 -0.00035618)
(0.000151831 0.000197651 -0.000306712)
(0.00017811 0.00017811 -0.000213872)
(0.000225651 0.000162695 -0.000142595)
(0.000153946 0.000141076 -1.6118e-05)
(4.07368e-05 0.000259453 -0.000263312)
(0.000136711 0.000247439 -0.000222841)
(0.000162695 0.000225651 -0.000142595)
(0.000210405 0.000210405 -8.27628e-05)
(0.00014449 0.000179475 2.92733e-05)
(3.42641e-05 0.000172733 -0.000112002)
(0.000118029 0.000166233 -8.20564e-05)
(0.000141076 0.000153946 -1.6118e-05)
(0.000179475 0.00014449 2.92733e-05)
(0.000122864 0.000122864 0.00011945)
(0.000101569 0.000101569 -0.000837265)
(0.000291984 8.98726e-05 -0.000708485)
(0.00033593 7.73272e-05 -0.000526901)
(0.000408006 6.53121e-05 -0.000367291)
(0.00026406 5.19348e-05 -0.000134455)
(8.98726e-05 0.000291984 -0.000708485)
(0.000267771 0.000267771 -0.00060269)
(0.000311394 0.000238001 -0.000439607)
(0.000382646 0.000209209 -0.000300614)
(0.000250622 0.00017465 -8.56155e-05)
(7.73272e-05 0.00033593 -0.000526901)
(0.000238001 0.000311394 -0.000439607)
(0.000277368 0.000277368 -0.000298246)
(0.000344654 0.000246575 -0.000180203)
(0.000229307 0.000205829 8.88491e-06)
(6.53121e-05 0.000408006 -0.000367291)
(0.000209209 0.000382646 -0.000300614)
(0.000246575 0.000344654 -0.000180203)
(0.000311106 0.000311106 -8.44088e-05)
(0.00020965 0.000258481 7.87186e-05)
(5.19348e-05 0.00026406 -0.000134455)
(0.00017465 0.000250622 -8.56155e-05)
(0.000205829 0.000229307 8.88491e-06)
(0.000258481 0.00020965 7.87186e-05)
(0.000176393 0.000176393 0.000209502)
(0.000185849 0.000185849 -0.00132407)
(0.000488759 0.000157984 -0.00106571)
(0.000550247 0.000133611 -0.000768173)
(0.000651902 0.000107437 -0.000489697)
(0.000406971 8.31083e-05 -0.000138735)
(0.000157984 0.000488759 -0.00106571)
(0.000436532 0.000436532 -0.000865702)
(0.000499728 0.000380485 -0.000610772)
(0.000601433 0.000323799 -0.000377134)
(0.000382525 0.000261369 -6.32134e-05)
(0.000133611 0.000550247 -0.000768173)
(0.000380485 0.000499728 -0.000610772)
(0.000437514 0.000437514 -0.000394452)
(0.000532785 0.000378899 -0.000202987)
(0.000344176 0.00030541 6.88535e-05)
(0.000107437 0.000651902 -0.000489697)
(0.000323799 0.000601433 -0.000377134)
(0.000378899 0.000532785 -0.000202987)
(0.000469328 0.000469328 -5.17837e-05)
(0.000308599 0.000380094 0.000172099)
(8.31083e-05 0.000406971 -0.000138735)
(0.000261369 0.000382525 -6.32134e-05)
(0.00030541 0.000344176 6.88535e-05)
(0.000380094 0.000308599 0.000172099)
(0.0002544 0.0002544 0.000350891)
(0.000360117 0.000360117 -0.00218721)
(0.000847882 0.000289976 -0.0016803)
(0.00091194 0.000234847 -0.00118734)
(0.00103745 0.000177936 -0.000699579)
(0.00061721 0.000127506 -0.000166397)
(0.000289976 0.000847882 -0.0016803)
(0.000722707 0.000722707 -0.00131379)
(0.000799962 0.000611723 -0.000903588)
(0.000930209 0.00049592 -0.0005112)
(0.000566496 0.000382238 -3.93408e-05)
(0.000234847 0.00091194 -0.00118734)
(0.000611723 0.000799962 -0.000903588)
(0.000685153 0.000685153 -0.000568199)
(0.000807964 0.000571925 -0.000250952)
(0.000502838 0.000441141 0.000143849)
(0.000177936 0.00103745 -0.000699579)
(0.00049592 0.000930209 -0.0005112)
(0.000571925 0.000807964 -0.000250952)
(0.000686196 0.000686196 -1.36861e-05)
(0.000434886 0.00054052 0.000304425)
(0.000127506 0.00061721 -0.000166397)
(0.000382238 0.000566496 -3.93408e-05)
(0.000441141 0.000502838 0.000143849)
(0.00054052 0.000434886 0.000304425)
(0.000356227 0.000356227 0.000543714)
(0.000692653 0.000692653 -0.00376607)
(0.00148863 0.00052455 -0.00263981)
(0.00153097 0.000417325 -0.00178699)
(0.00167285 0.000295848 -0.0009125)
(0.000943595 0.000210135 -0.000121522)
(0.00052455 0.00148863 -0.00263981)
(0.00121325 0.00121325 -0.00189173)
(0.00130232 0.000999623 -0.0012485)
(0.00146569 0.000772426 -0.000585878)
(0.000857411 0.000571616 7.19041e-05)
(0.000417325 0.00153097 -0.00178699)
(0.000999623 0.00130232 -0.0012485)
(0.00109015 0.00109015 -0.00073602)
(0.00124484 0.000876413 -0.000223333)
(0.000741459 0.000649175 0.000323647)
(0.000295848 0.00167285 -0.0009125)
(0.000772426 0.00146569 -0.000585878)
(0.000876413 0.00124484 -0.000223333)
(0.00102471 0.00102471 0.000130469)
(0.000628634 0.000779962 0.000548831)
(0.000210135 0.000943595 -0.000121522)
(0.000571616 0.000857411 7.19041e-05)
(0.000649175 0.000741459 0.000323647)
(0.000779962 0.000628634 0.000548831)
(0.000495135 0.000495135 0.000864145)
(0.00148695 0.00148695 -0.00665228)
(0.00282696 0.00103821 -0.00429153)
(0.00263926 0.000773713 -0.00276936)
(0.00270293 0.000504665 -0.00125643)
(0.00141345 0.000321072 -7.03428e-05)
(0.00103821 0.00282696 -0.00429153)
(0.00211402 0.00211402 -0.00290873)
(0.00210582 0.00166269 -0.00181666)
(0.00225062 0.00118509 -0.000740559)
(0.00122862 0.000827408 0.000222736)
(0.000773713 0.00263926 -0.00276936)
(0.00166269 0.00210582 -0.00181666)
(0.00171032 0.00171032 -0.00100714)
(0.00186764 0.00128827 -0.000182438)
(0.00105327 0.000918067 0.000560826)
(0.000504665 0.00270293 -0.00125643)
(0.00118509 0.00225062 -0.000740559)
(0.00128827 0.00186764 -0.000182438)
(0.00145836 0.00145836 0.000323127)
(0.00085584 0.00108102 0.000896497)
(0.000321072 0.00141345 -7.03428e-05)
(0.000827408 0.00122862 0.000222736)
(0.000918067 0.00105327 0.000560826)
(0.00108102 0.00085584 0.000896497)
(0.000673459 0.000673459 0.00129078)
(0.00305276 0.00305276 -0.0120163)
(0.00537149 0.00190751 -0.00684137)
(0.00456611 0.00136958 -0.00409049)
(0.00437189 0.000811746 -0.00142909)
(0.00213772 0.000502919 0.000210881)
(0.00190751 0.00537149 -0.00684137)
(0.00368811 0.00368811 -0.00389338)
(0.0034705 0.00276184 -0.00226476)
(0.0035051 0.00184642 -0.000527657)
(0.00182707 0.00120278 0.000657711)
(0.00136958 0.00456611 -0.00409049)
(0.00276184 0.0034705 -0.00226476)
(0.00272437 0.00272437 -0.00108489)
(0.00281282 0.0019401 0.000149339)
(0.00148955 0.00132293 0.00109219)
(0.000811746 0.00437189 -0.00142909)
(0.00184642 0.0035051 -0.000527657)
(0.0019401 0.00281282 0.000149339)
(0.00210365 0.00210365 0.000862103)
(0.00120566 0.00150992 0.00151813)
(0.000502919 0.00213772 0.000210881)
(0.00120278 0.00182707 0.000657711)
(0.00132293 0.00148955 0.00109219)
(0.00150992 0.00120566 0.00151813)
(0.000891992 0.000891992 0.00194658)
(0.00666386 0.00666386 -0.0260984)
(0.0107524 0.00398603 -0.0118143)
(0.00805161 0.00260056 -0.00615155)
(0.00700429 0.00140608 -0.00167962)
(0.00306487 0.000768216 0.00068169)
(0.00398603 0.0107524 -0.0118143)
(0.00669052 0.00669052 -0.00617796)
(0.00547155 0.00466825 -0.00302481)
(0.00517309 0.0027635 -0.000361774)
(0.0024222 0.00170871 0.0013073)
(0.00260056 0.00805161 -0.00615155)
(0.00466825 0.00547155 -0.00302481)
(0.00412442 0.00412442 -0.00106732)
(0.00404472 0.00267803 0.000621815)
(0.00200253 0.00177849 0.00184567)
(0.00140608 0.00700429 -0.00167962)
(0.0027635 0.00517309 -0.000361774)
(0.00267803 0.00404472 0.000621815)
(0.00282717 0.00282717 0.00157069)
(0.00151633 0.00193542 0.00233011)
(0.000768216 0.00306487 0.00068169)
(0.00170871 0.0024222 0.0013073)
(0.00177849 0.00200253 0.00184567)
(0.00193542 0.00151633 0.00233011)
(0.00110485 0.00110485 0.00278401)
(0.0173784 0.0173784 -0.0405336)
(0.0253364 0.00754743 -0.0183182)
(0.0146997 0.00449501 -0.00695422)
(0.0112051 0.00212983 -0.000476428)
(0.00451563 0.0011274 0.00213369)
(0.00754743 0.0253364 -0.0183182)
(0.0124791 0.0124791 -0.00590685)
(0.00928671 0.00784593 -0.00189649)
(0.00783723 0.00414784 0.00129961)
(0.00350768 0.00236676 0.00285783)
(0.00449501 0.0146997 -0.00695422)
(0.00784593 0.00928671 -0.00189649)
(0.00637104 0.00637104 0.000301005)
(0.00572584 0.00387258 0.00223695)
(0.00272182 0.00234575 0.00326459)
(0.00212983 0.0112051 -0.000476428)
(0.00414784 0.00783723 0.00129961)
(0.00387258 0.00572584 0.00223695)
(0.00381197 0.00381197 0.00312334)
(0.00197029 0.00244827 0.00368787)
(0.0011274 0.00451563 0.00213369)
(0.00236676 0.00350768 0.00285783)
(0.00234575 0.00272182 0.00326459)
(0.00244827 0.00197029 0.00368787)
(0.00134902 0.00134902 0.00396973)
(0.0296507 0.0296507 -0.13689)
(0.0572491 0.0165748 -0.0284108)
(0.0256757 0.00766343 -0.00617778)
(0.0160908 0.00318162 0.00168536)
(0.0056952 0.00149284 0.0042926)
(0.0165748 0.0572491 -0.0284108)
(0.0234655 0.0234655 -0.00940041)
(0.012675 0.0119251 -0.0003532)
(0.00992735 0.00547675 0.0032768)
(0.00399232 0.0028396 0.00483983)
(0.00766343 0.0256757 -0.00617778)
(0.0119251 0.012675 -0.0003532)
(0.00825788 0.00825788 0.00271394)
(0.00700829 0.00450175 0.00437957)
(0.00303788 0.00260853 0.00513507)
(0.00318162 0.0160908 0.00168536)
(0.00547675 0.00992735 0.0032768)
(0.00450175 0.00700829 0.00437957)
(0.00427808 0.00427808 0.00501401)
(0.00208503 0.00264056 0.00531848)
(0.00149284 0.0056952 0.0042926)
(0.0028396 0.00399232 0.00483983)
(0.00260853 0.00303788 0.00513507)
(0.00264056 0.00208503 0.00531848)
(0.00138887 0.00138887 0.00535637)
(0.0849802 0.0849802 -0.445709)
(0.147852 0.029325 -0.0787091)
(0.0377656 0.0103689 0.0157023)
(0.0216473 0.00372253 0.0108532)
(0.0071446 0.00167309 0.00899848)
(0.029325 0.147852 -0.0787091)
(0.0410419 0.0410419 0.00677097)
(0.0213191 0.016751 0.0117757)
(0.0130264 0.00684187 0.00928256)
(0.00508222 0.00320925 0.00834759)
(0.0103689 0.0377656 0.0157023)
(0.016751 0.0213191 0.0117757)
(0.0111002 0.0111002 0.0104787)
(0.00814698 0.0056098 0.00880497)
(0.00348315 0.00282441 0.00787442)
(0.00372253 0.0216473 0.0108532)
(0.00684187 0.0130264 0.00928256)
(0.0056098 0.00814698 0.00880497)
(0.00475089 0.00475089 0.00795272)
(0.00227706 0.00266959 0.00737085)
(0.00167309 0.0071446 0.00899848)