/*--------------------------------*- C++ -*----------------------------------*\
| =========                 |                                                 |
| \\      /  F ield         | OpenFOAM: The Open Source CFD Toolbox           |
|  \\    /   O peration     | Version:  5.x                                   |
|   \\  /    A nd           | Web:      www.OpenFOAM.org                      |
|    \\/     M anipulation  |                                                 |
\*---------------------------------------------------------------------------*/
FoamFile
{
    version     2.0;
    format      ascii;
    class       surfaceScalarField;
    location    "0.021";
    object      phi;
}
// * * * * * * * * * * * * * * * * * * * * * * * * * * * * * * * * * * * * * //

dimensions      [0 3 -1 0 0 0 0];

internalField   nonuniform List<scalar> 
4381
(
-1.02304e-08
-1.02392e-08
-9.86344e-10
-7.74004e-09
-1.15423e-08
3.85401e-11
-7.41643e-09
-1.18494e-08
1.87918e-09
-3.77264e-09
-1.21567e-08
-1.35653e-09
-1.22751e-08
-1.20247e-09
-1.15352e-08
-7.74948e-09
3.67296e-11
-9.13566e-09
-9.14445e-09
-4.79585e-09
-8.02615e-09
-9.47282e-09
-3.48491e-09
-4.01179e-09
-9.84748e-09
-6.32304e-09
-9.93321e-09
-6.06123e-09
-1.18419e-08
-7.42731e-09
1.87789e-09
-9.46384e-09
-8.03665e-09
-3.48472e-09
-8.09534e-09
-8.10573e-09
-2.7349e-09
-4.05516e-09
-8.26195e-09
-5.62576e-09
-8.28888e-09
-5.39441e-09
-1.21492e-08
-3.78408e-09
-1.35872e-09
-9.83861e-09
-4.02304e-09
-6.32372e-09
-8.25156e-09
-4.06627e-09
-5.62656e-09
-4.11532e-09
-4.12634e-09
-8.27296e-09
-4.14131e-09
-7.99691e-09
-1.22675e-08
-1.20466e-09
-9.92413e-09
-6.06193e-09
-8.27837e-09
-5.39525e-09
-4.13025e-09
-7.99702e-09
-7.73879e-09
-1.54991e-08
-1.55045e-08
5.20209e-09
-1.37594e-08
-1.06485e-08
5.73487e-10
-9.6396e-09
-9.66401e-09
-2.09812e-10
-5.72396e-09
-8.42004e-09
-3.44785e-09
-8.09306e-09
-3.74855e-09
-1.06431e-08
-1.37673e-08
5.72084e-10
-1.04232e-08
-1.0431e-08
-5.2315e-09
-8.06644e-09
-9.53345e-09
-5.97115e-09
-4.79983e-09
-8.48229e-09
-9.52738e-09
-8.14907e-09
-9.86732e-09
-9.65848e-09
-9.64896e-09
-2.11744e-10
-9.52559e-09
-8.07579e-09
-5.97175e-09
-7.53106e-09
-7.54044e-09
-6.72218e-09
-4.46894e-09
-6.87319e-09
-1.02981e-08
-6.61567e-09
-1.06562e-08
-8.41452e-09
-5.73432e-09
-3.45116e-09
-8.47446e-09
-4.8102e-09
-9.52935e-09
-6.86383e-09
-4.47934e-09
-1.02994e-08
-4.01396e-09
-4.02437e-09
-1.39754e-08
-3.82929e-09
-1.43435e-08
-8.08756e-09
-3.75271e-09
-8.14126e-09
-9.8702e-09
-6.6063e-09
-1.06585e-08
-3.81882e-09
-1.43445e-08
-1.47239e-08
-1.29677e-08
-1.29752e-08
8.86054e-09
-1.1286e-08
-1.35566e-08
9.38697e-10
-9.3686e-09
-1.37781e-08
1.16698e-11
-4.86064e-09
-1.40199e-08
-5.74295e-09
-1.4091e-08
-6.30434e-09
-1.35492e-08
-1.12954e-08
9.3667e-10
-1.1802e-08
-1.18114e-08
-8.7225e-09
-9.68328e-09
-1.19765e-08
-9.89057e-09
-5.01973e-09
-1.21887e-08
-1.60219e-08
-1.22391e-08
-1.66441e-08
-1.37706e-08
-9.37946e-09
8.69957e-12
-1.19671e-08
-9.69411e-09
-9.89156e-09
-9.76502e-09
-9.77588e-09
-1.11243e-08
-5.05557e-09
-9.89669e-09
-1.72996e-08
-9.92175e-09
-1.79227e-08
-1.40124e-08
-4.8724e-09
-5.74787e-09
-1.21793e-08
-5.03148e-09
-1.60248e-08
-9.88586e-09
-5.06735e-09
-1.73015e-08
-5.10319e-09
-5.11496e-09
-2.35411e-08
-5.12681e-09
-2.4146e-08
-1.40835e-08
-6.31072e-09
-1.22298e-08
-1.66485e-08
-9.91091e-09
-1.79261e-08
-5.11501e-09
-2.41476e-08
-2.47424e-08
-1.94505e-08
-1.94583e-08
1.52078e-08
-1.7199e-08
-1.82652e-08
1.68524e-09
-1.37433e-08
-1.80313e-08
-4.89976e-10
-7.6436e-09
-1.75126e-08
-8.98748e-09
-1.73481e-08
-1.0092e-08
-1.82574e-08
-1.7209e-08
1.6828e-09
-1.62696e-08
-1.62796e-08
-1.26951e-08
-1.31282e-08
-1.60452e-08
-1.50176e-08
-7.17672e-09
-1.55633e-08
-2.39227e-08
-1.53797e-08
-2.50986e-08
-1.80234e-08
-1.3755e-08
-4.93904e-10
-1.60352e-08
-1.31399e-08
-1.50191e-08
-1.29203e-08
-1.2932e-08
-1.73524e-08
-7.01347e-09
-1.2507e-08
-2.62629e-08
-1.2316e-08
-2.74089e-08
-1.75048e-08
-7.6564e-09
-8.99388e-09
-1.55533e-08
-7.1895e-09
-2.39267e-08
-1.24954e-08
-7.0262e-09
-2.62653e-08
-6.6729e-09
-6.68565e-09
-3.51854e-08
-6.53608e-09
-3.62397e-08
-1.73402e-08
-1.01003e-08
-1.53696e-08
-2.51043e-08
-1.23044e-08
-2.74131e-08
-6.52327e-09
-3.62421e-08
-3.72491e-08
-2.42369e-08
-2.42465e-08
2.26915e-08
-2.12603e-08
-2.48259e-08
2.58528e-09
-1.72241e-08
-2.49758e-08
-6.13337e-10
-8.91563e-09
-2.52753e-08
-1.33434e-08
-2.53284e-08
-1.50454e-08
-2.48163e-08
-2.12724e-08
2.58204e-09
-2.17654e-08
-2.17774e-08
-1.87943e-08
-1.7585e-08
-2.18609e-08
-2.23128e-08
-9.08803e-09
-2.20272e-08
-3.56675e-08
-2.20087e-08
-3.74925e-08
-2.49662e-08
-1.72377e-08
-6.18814e-10
-2.18489e-08
-1.75986e-08
-2.23151e-08
-1.75627e-08
-1.75763e-08
-2.59231e-08
-9.05278e-09
-1.74788e-08
-3.93208e-08
-1.73347e-08
-4.11152e-08
-2.52657e-08
-8.92999e-09
-1.33523e-08
-2.20153e-08
-9.10223e-09
-3.56733e-08
-1.74652e-08
-9.06704e-09
-3.93242e-08
-8.95805e-09
-8.97292e-09
-5.21973e-08
-8.89582e-09
-5.3627e-08
-2.53186e-08
-1.50583e-08
-2.19968e-08
-3.75024e-08
-1.73217e-08
-4.11225e-08
-8.88116e-09
-5.36296e-08
-5.50071e-08
-3.50554e-08
-3.50668e-08
3.35883e-08
-3.088e-08
-3.55264e-08
4.04582e-09
-2.50428e-08
-3.56963e-08
-7.19497e-10
-1.32642e-08
-3.59031e-08
-1.93689e-08
-3.58896e-08
-2.2031e-08
-3.5515e-08
-3.08943e-08
4.0418e-09
-3.12753e-08
-3.12897e-08
-2.72709e-08
-2.52766e-08
-3.13644e-08
-3.26432e-08
-1.32794e-08
-3.13512e-08
-5.22158e-08
-3.12194e-08
-5.50816e-08
-3.56849e-08
-2.50594e-08
-7.26484e-10
-3.13501e-08
-2.52932e-08
-3.26462e-08
-2.51291e-08
-2.51456e-08
-3.83622e-08
-1.31448e-08
-2.40915e-08
-5.8563e-08
-2.34611e-08
-6.17044e-08
-3.58917e-08
-1.32821e-08
-1.93804e-08
-3.13368e-08
-1.32972e-08
-5.22233e-08
-2.40749e-08
-1.31624e-08
-5.85675e-08
-1.2519e-08
-1.2536e-08
-7.53053e-08
-1.23301e-08
-7.70757e-08
-3.58781e-08
-2.20477e-08
-3.12049e-08
-5.50944e-08
-2.3444e-08
-6.17143e-08
-1.23131e-08
-7.70787e-08
-7.93465e-08
-4.85208e-08
-4.85347e-08
4.80764e-08
-4.2774e-08
-5.04619e-08
6.33129e-09
-3.48755e-08
-5.11998e-08
-1.31872e-10
-1.80694e-08
-5.21434e-08
-2.74536e-08
-5.23474e-08
-3.147e-08
-5.04479e-08
-4.27918e-08
6.3264e-09
-4.44158e-08
-4.44336e-08
-3.93311e-08
-3.59496e-08
-4.50767e-08
-4.72317e-08
-1.86017e-08
-4.61423e-08
-7.55628e-08
-4.64562e-08
-7.97275e-08
-5.11858e-08
-3.48968e-08
-1.40257e-10
-4.50589e-08
-3.59707e-08
-4.72351e-08
-3.65018e-08
-3.65227e-08
-5.54715e-08
-1.88809e-08
-3.83751e-08
-8.39477e-08
-3.91484e-08
-8.80446e-08
-5.21292e-08
-1.80929e-08
-2.74678e-08
-4.61245e-08
-1.8625e-08
-7.55717e-08
-3.83542e-08
-1.89042e-08
-8.3953e-08
-1.98245e-08
-1.98483e-08
-1.12356e-07
-2.00909e-08
-1.16139e-07
-5.23328e-08
-3.1488e-08
-4.64382e-08
-7.97415e-08
-3.91277e-08
-8.8055e-08
-2.00671e-08
-1.16144e-07
-1.19855e-07
-6.84657e-08
-6.84824e-08
6.6661e-08
-6.0775e-08
-7.29548e-08
1.05631e-08
-5.06006e-08
-7.48123e-08
3.03949e-09
-2.62912e-08
-7.59529e-08
-3.84297e-08
-7.6124e-08
-4.43617e-08
-7.29381e-08
-6.07964e-08
1.05575e-08
-6.41031e-08
-6.41245e-08
-5.69952e-08
-5.19414e-08
-6.52764e-08
-6.89272e-08
-2.69881e-08
-6.67708e-08
-1.09695e-07
-6.71383e-08
-1.15681e-07
-7.47954e-08
-5.06255e-08
3.0289e-09
-6.52552e-08
-5.1966e-08
-6.89317e-08
-5.25902e-08
-5.26146e-08
-8.07953e-08
-2.73094e-08
-5.40368e-08
-1.21958e-07
-5.45191e-08
-1.27975e-07
-7.59356e-08
-2.63171e-08
-3.84491e-08
-6.67493e-08
-2.70149e-08
-1.09706e-07
-5.4012e-08
-2.73362e-08
-1.21964e-07
-2.80794e-08
-2.81073e-08
-1.64211e-07
-2.83507e-08
-1.70489e-07
-7.61074e-08
-4.43883e-08
-6.71174e-08
-1.15698e-07
-5.44964e-08
-1.27987e-07
-2.83232e-08
-1.70495e-07
-1.76805e-07
-9.5113e-08
-9.51337e-08
8.78221e-08
-8.72541e-08
-1.06811e-07
2.16929e-08
-7.13051e-08
-1.09589e-07
8.03179e-09
-3.741e-08
-1.13102e-07
-4.99255e-08
-1.13179e-07
-6.01493e-08
-1.06791e-07
-8.72802e-08
2.16857e-08
-9.26129e-08
-9.26392e-08
-8.53423e-08
-7.51969e-08
-9.40445e-08
-1.01885e-07
-3.84551e-08
-9.64374e-08
-1.63098e-07
-9.70027e-08
-1.70696e-07
-1.09569e-07
-7.1338e-08
8.0209e-09
-9.40184e-08
-7.52273e-08
-1.0189e-07
-7.61568e-08
-7.61867e-08
-1.16511e-07
-3.89518e-08
-7.80837e-08
-1.77513e-07
-7.87184e-08
-1.85583e-07
-1.13079e-07
-3.74432e-08
-4.99542e-08
-9.64109e-08
-3.84881e-08
-1.63109e-07
-7.80536e-08
-3.89844e-08
-1.7752e-07
-4.0087e-08
-4.01197e-08
-2.40137e-07
-4.04794e-08
-2.49179e-07
-1.13155e-07
-6.01848e-08
-9.69763e-08
-1.70716e-07
-7.86884e-08
-1.85598e-07
-4.0447e-08
-2.49187e-07
-2.58432e-07
-1.41396e-07
-1.41421e-07
1.29736e-07
-1.23771e-07
-1.47038e-07
2.49951e-08
-9.97583e-08
-1.47167e-07
3.7887e-09
-5.03284e-08
-1.49373e-07
-8.08963e-08
-1.50755e-07
-9.16441e-08
-1.47013e-07
-1.23801e-07
2.49851e-08
-1.28394e-07
-1.28425e-07
-1.22571e-07
-1.02667e-07
-1.29964e-07
-1.4481e-07
-5.34223e-08
-1.34712e-07
-2.27e-07
-1.36209e-07
-2.39059e-07
-1.47143e-07
-9.97911e-08
3.77265e-09
-1.29934e-07
-1.02702e-07
-1.44817e-07
-1.05078e-07
-1.05114e-07
-1.66214e-07
-5.48096e-08
-1.11314e-07
-2.51176e-07
-1.13394e-07
-2.63617e-07
-1.49351e-07
-5.03664e-08
-8.09252e-08
-1.34681e-07
-5.34614e-08
-2.27016e-07
-1.11279e-07
-5.48487e-08
-2.51185e-07
-5.7785e-08
-5.78248e-08
-3.4712e-07
-5.88066e-08
-3.61992e-07
-1.50734e-07
-9.16819e-08
-1.3618e-07
-2.39085e-07
-1.13359e-07
-2.63636e-07
-5.87672e-08
-3.62004e-07
-3.76884e-07
-2.09845e-07
-2.09877e-07
2.03569e-07
-1.80728e-07
-2.07133e-07
2.05336e-08
-1.366e-07
-2.06374e-07
-1.89122e-08
-7.24943e-08
-2.19538e-07
-1.16354e-07
-2.23532e-07
-1.33442e-07
-2.07102e-07
-1.80765e-07
2.0518e-08
-1.87258e-07
-1.87296e-07
-1.62248e-07
-1.51149e-07
-1.9069e-07
-1.966e-07
-7.92735e-08
-2.01673e-07
-3.16738e-07
-2.05226e-07
-3.37336e-07
-2.06344e-07
-1.3664e-07
-1.89343e-08
-1.90652e-07
-1.51192e-07
-1.96609e-07
-1.59177e-07
-1.5922e-07
-2.29156e-07
-8.30655e-08
-1.79078e-07
-3.49881e-07
-1.84977e-07
-3.67632e-07
-2.19511e-07
-7.254e-08
-1.16384e-07
-2.01635e-07
-7.93216e-08
-3.1676e-07
-1.79033e-07
-8.31142e-08
-3.49893e-07
-9.06512e-08
-9.07022e-08
-5.2388e-07
-9.2999e-08
-5.4533e-07
-2.23508e-07
-1.33482e-07
-2.0519e-07
-3.37372e-07
-1.84935e-07
-3.67656e-07
-9.29485e-08
-5.45348e-07
-5.64167e-07
-2.89294e-07
-2.89331e-07
2.91987e-07
-2.58957e-07
-3.07472e-07
3.64646e-08
-2.12454e-07
-3.11923e-07
-1.82386e-08
-1.09922e-07
-3.28106e-07
-1.65872e-07
-3.35494e-07
-1.86207e-07
-3.07435e-07
-2.59006e-07
3.6449e-08
-2.75892e-07
-2.7594e-07
-2.25321e-07
-2.32417e-07
-2.82756e-07
-2.69241e-07
-1.22734e-07
-3.00957e-07
-4.5357e-07
-3.05779e-07
-4.90738e-07
-3.11886e-07
-2.12505e-07
-1.8271e-08
-2.82709e-07
-2.32475e-07
-2.6925e-07
-2.44044e-07
-2.44101e-07
-3.06476e-07
-1.26577e-07
-2.48395e-07
-5.19912e-07
-2.4897e-07
-5.51964e-07
-3.28074e-07
-1.09977e-07
-1.65906e-07
-3.00908e-07
-1.22795e-07
-4.53605e-07
-2.48336e-07
-1.2664e-07
-5.19928e-07
-1.30944e-07
-1.31008e-07
-7.58664e-07
-1.32435e-07
-7.93724e-07
-3.35469e-07
-1.86242e-07
-3.05733e-07
-4.9079e-07
-2.48911e-07
-5.51999e-07
-1.32371e-07
-7.93745e-07
-8.30673e-07
-4.26162e-07
-4.26208e-07
4.43704e-07
-3.81995e-07
-4.41177e-07
5.46142e-08
-3.17155e-07
-4.46571e-07
-2.32172e-08
-1.63602e-07
-4.70185e-07
-2.51049e-07
-4.79949e-07
-2.74999e-07
-4.41131e-07
-3.8205e-07
5.45921e-08
-4.07814e-07
-4.07872e-07
-2.91943e-07
-3.42483e-07
-4.2009e-07
-3.61055e-07
-1.7836e-07
-4.44378e-07
-6.43503e-07
-4.56541e-07
-6.93689e-07
-4.46528e-07
-3.17219e-07
-2.32534e-08
-4.20034e-07
-3.42548e-07
-3.6107e-07
-3.47586e-07
-3.47655e-07
-4.51362e-07
-1.87251e-07
-3.76748e-07
-7.47881e-07
-3.82608e-07
-8.14364e-07
-4.70141e-07
-1.63656e-07
-2.51105e-07
-4.44322e-07
-1.78431e-07
-6.43544e-07
-3.76677e-07
-1.8733e-07
-7.47902e-07
-1.99627e-07
-1.99707e-07
-1.11276e-06
-2.02012e-07
-1.17512e-06
-4.79922e-07
-2.75015e-07
-4.56492e-07
-6.93759e-07
-3.82538e-07
-8.1442e-07
-2.01934e-07
-1.17515e-06
-1.23675e-06
-5.87193e-07
-5.87253e-07
6.17741e-07
-5.41674e-07
-6.43786e-07
1.09912e-07
-4.37798e-07
-6.52293e-07
-2.55879e-08
-2.19147e-07
-6.96361e-07
-3.48922e-07
-7.18889e-07
-3.57143e-07
-6.43726e-07
-5.41741e-07
1.09876e-07
-5.82604e-07
-5.82673e-07
-4.14181e-07
-4.88802e-07
-5.91359e-07
-5.15794e-07
-2.52978e-07
-6.2449e-07
-9.51203e-07
-6.28849e-07
-1.03832e-06
-6.5224e-07
-4.37871e-07
-2.56324e-08
-5.91296e-07
-4.88881e-07
-5.15809e-07
-4.98135e-07
-4.98212e-07
-6.37673e-07
-2.54391e-07
-5.02734e-07
-1.11338e-06
-5.00893e-07
-1.19827e-06
-6.9631e-07
-2.19238e-07
-3.48972e-07
-6.24422e-07
-2.5306e-07
-9.51257e-07
-5.02657e-07
-2.54467e-07
-1.11341e-06
-2.61997e-07
-2.62077e-07
-1.59408e-06
-2.61406e-07
-1.67812e-06
-7.18827e-07
-3.57189e-07
-6.28777e-07
-1.0384e-06
-5.00817e-07
-1.19832e-06
-2.61328e-07
-1.67814e-06
-1.76218e-06
-8.74582e-07
-8.74651e-07
9.21271e-07
-7.49724e-07
-8.94394e-07
1.03048e-07
-5.98593e-07
-9.08435e-07
-6.00585e-08
-3.05596e-07
-9.45899e-07
-5.1804e-07
-9.58198e-07
-5.36625e-07
-8.94327e-07
-7.49807e-07
1.03009e-07
-8.02395e-07
-8.0247e-07
-5.9804e-07
-6.443e-07
-8.12955e-07
-7.69371e-07
-3.32711e-07
-8.40441e-07
-1.36825e-06
-8.45476e-07
-1.48566e-06
-9.08372e-07
-5.9868e-07
-6.01132e-08
-8.12884e-07
-6.4438e-07
-7.69391e-07
-6.40811e-07
-6.40892e-07
-9.81811e-07
-3.34585e-07
-6.62959e-07
-1.59709e-06
-6.65913e-07
-1.71423e-06
-9.45827e-07
-3.05671e-07
-5.18125e-07
-8.40361e-07
-3.32798e-07
-1.36831e-06
-6.62872e-07
-3.34674e-07
-1.59712e-06
-3.47749e-07
-3.47842e-07
-2.22432e-06
-3.49746e-07
-2.34374e-06
-9.58131e-07
-5.3668e-07
-8.45393e-07
-1.48574e-06
-6.65822e-07
-1.71428e-06
-3.49653e-07
-2.34376e-06
-2.4646e-06
-1.16226e-06
-1.16236e-06
1.21053e-06
-1.05202e-06
-1.30593e-06
1.78234e-07
-8.13986e-07
-1.33411e-06
-1.09905e-07
-4.40997e-07
-1.41824e-06
-6.74358e-07
-1.4283e-06
-7.66746e-07
-1.30584e-06
-1.05212e-06
1.78172e-07
-1.15651e-06
-1.15661e-06
-8.96691e-07
-9.13084e-07
-1.16785e-06
-1.17906e-06
-4.77955e-07
-1.22494e-06
-1.99668e-06
-1.23471e-06
-2.15977e-06
-1.33403e-06
-8.14098e-07
-1.09972e-07
-1.16775e-06
-9.13196e-07
-1.17909e-06
-9.21217e-07
-9.2133e-07
-1.47486e-06
-4.83392e-07
-9.62519e-07
-2.29734e-06
-9.69884e-07
-2.46486e-06
-1.41815e-06
-4.41135e-07
-6.74445e-07
-1.22483e-06
-4.78078e-07
-1.99674e-06
-9.624e-07
-4.83513e-07
-2.29737e-06
-5.07394e-07
-5.0752e-07
-3.13432e-06
-5.12221e-07
-3.31108e-06
-1.42818e-06
-7.66868e-07
-1.23459e-06
-2.15985e-06
-9.69765e-07
-2.46492e-06
-5.12098e-07
-3.31111e-06
-3.49303e-06
-1.72851e-06
-1.72862e-06
1.7113e-06
-1.52679e-06
-1.83914e-06
2.1338e-07
-1.19242e-06
-1.86488e-06
-2.17654e-07
-6.39171e-07
-1.95837e-06
-9.78784e-07
-1.98447e-06
-1.16028e-06
-1.83903e-06
-1.52692e-06
2.13291e-07
-1.6489e-06
-1.64903e-06
-1.27693e-06
-1.29775e-06
-1.68124e-06
-1.71385e-06
-6.95926e-07
-1.76829e-06
-2.78858e-06
-1.79633e-06
-3.04678e-06
-1.86476e-06
-1.19255e-06
-2.17745e-07
-1.68111e-06
-1.29789e-06
-1.71388e-06
-1.33073e-06
-1.33087e-06
-2.1756e-06
-7.15944e-07
-1.40333e-06
-3.27708e-06
-1.42757e-06
-3.55234e-06
-1.95826e-06
-6.39313e-07
-9.78901e-07
-1.76816e-06
-6.96078e-07
-2.78865e-06
-1.40319e-06
-7.16093e-07
-3.27712e-06
-7.5749e-07
-7.57646e-07
-4.4257e-06
-7.73249e-07
-4.72542e-06
-1.98436e-06
-1.16044e-06
-1.7962e-06
-3.04688e-06
-1.42742e-06
-3.55241e-06
-7.73099e-07
-4.72545e-06
-5.04384e-06
-2.33999e-06
-2.34012e-06
2.27401e-06
-2.16058e-06
-2.70213e-06
4.40923e-07
-1.73242e-06
-2.77776e-06
-2.4612e-07
-9.29089e-07
-2.92548e-06
-1.36604e-06
-2.96607e-06
-1.68376e-06
-2.702e-06
-2.16075e-06
4.40839e-07
-2.41348e-06
-2.41365e-06
-1.85394e-06
-1.91686e-06
-2.48319e-06
-2.50504e-06
-1.02913e-06
-2.63545e-06
-3.96634e-06
-2.68618e-06
-4.35981e-06
-2.77762e-06
-1.73261e-06
-2.46235e-07
-2.48302e-06
-1.91705e-06
-2.50508e-06
-1.97323e-06
-1.97342e-06
-3.19516e-06
-1.06456e-06
-2.1004e-06
-4.7208e-06
-2.14571e-06
-5.16117e-06
-2.92533e-06
-9.2928e-07
-1.3662e-06
-2.63527e-06
-1.02933e-06
-3.96643e-06
-2.1002e-06
-1.06475e-06
-4.72085e-06
-1.14153e-06
-1.14173e-06
-6.34304e-06
-1.16988e-06
-6.84634e-06
-2.96592e-06
-1.68398e-06
-2.68601e-06
-4.35994e-06
-2.14552e-06
-5.16127e-06
-1.16969e-06
-6.8464e-06
-7.38981e-06
-3.49614e-06
-3.49631e-06
3.32617e-06
-3.19505e-06
-3.83707e-06
6.96304e-07
-2.49192e-06
-3.95045e-06
-4.0063e-07
-1.35933e-06
-4.24861e-06
-1.88311e-06
-4.36392e-06
-2.40376e-06
-3.83689e-06
-3.19526e-06
6.96198e-07
-3.55173e-06
-3.55195e-06
-2.42422e-06
-2.84394e-06
-3.71399e-06
-3.4493e-06
-1.56533e-06
-4.00894e-06
-5.48462e-06
-4.1382e-06
-6.1554e-06
-3.95028e-06
-2.49214e-06
-4.00783e-07
-3.71378e-06
-2.84417e-06
-3.44935e-06
-3.00224e-06
-3.00248e-06
-4.61821e-06
-1.66729e-06
-3.25373e-06
-6.81096e-06
-3.37088e-06
-7.60013e-06
-4.24844e-06
-1.35956e-06
-1.88331e-06
-4.00873e-06
-1.56558e-06
-5.48474e-06
-3.25348e-06
-1.66754e-06
-6.81103e-06
-1.81613e-06
-1.81639e-06
-9.21772e-06
-1.89367e-06
-1.01435e-05
-4.36377e-06
-2.40403e-06
-4.138e-06
-6.15559e-06
-3.37066e-06
-7.60027e-06
-1.89343e-06
-1.01436e-05
-1.11837e-05
-4.74459e-06
-4.74481e-06
4.65901e-06
-4.39357e-06
-5.53236e-06
1.23059e-06
-3.62573e-06
-5.84703e-06
-2.29949e-07
-1.96123e-06
-6.24254e-06
-2.55818e-06
-6.42936e-06
-3.35734e-06
-5.53214e-06
-4.39386e-06
1.23048e-06
-5.12611e-06
-5.12638e-06
-3.23623e-06
-4.13684e-06
-5.42663e-06
-4.85897e-06
-2.28807e-06
-5.90144e-06
-7.67449e-06
-6.11825e-06
-8.76101e-06
-5.8468e-06
-3.62602e-06
-2.30157e-07
-5.42635e-06
-4.13714e-06
-4.85904e-06
-4.3927e-06
-4.393e-06
-6.68549e-06
-2.448e-06
-4.80636e-06
-9.85075e-06
-5.00336e-06
-1.11691e-05
-6.24231e-06
-1.96153e-06
-2.55845e-06
-5.90116e-06
-2.28839e-06
-7.67464e-06
-4.80604e-06
-2.44831e-06
-9.85083e-06
-2.70893e-06
-2.70925e-06
-1.34119e-05
-2.82859e-06
-1.5033e-05
-6.42914e-06
-3.35771e-06
-6.11798e-06
-8.76128e-06
-5.00307e-06
-1.11693e-05
-2.82828e-06
-1.50331e-05
-1.68508e-05
-7.00939e-06
-7.00969e-06
7.09376e-06
-6.73133e-06
-8.16754e-06
2.38633e-06
-5.29955e-06
-8.60459e-06
-1.71304e-07
-2.97693e-06
-9.49336e-06
-3.16203e-06
-9.93851e-06
-4.47458e-06
-8.16725e-06
-6.73168e-06
2.38619e-06
-7.83305e-06
-7.83341e-06
-3.90457e-06
-6.371e-06
-8.46736e-06
-6.45824e-06
-3.63225e-06
-9.35468e-06
-1.05519e-05
-9.87888e-06
-1.24598e-05
-8.60429e-06
-5.29993e-06
-1.71582e-07
-8.467e-06
-6.3714e-06
-6.45834e-06
-6.97144e-06
-6.97183e-06
-9.67658e-06
-4.04698e-06
-7.71981e-06
-1.44101e-05
-8.20836e-06
-1.68934e-05
-9.49308e-06
-2.97732e-06
-3.16238e-06
-9.35432e-06
-3.63267e-06
-1.05521e-05
-7.7194e-06
-4.04739e-06
-1.44102e-05
-4.52322e-06
-4.52366e-06
-1.98043e-05
-4.88476e-06
-2.28854e-05
-9.93826e-06
-4.47508e-06
-9.87854e-06
-1.24602e-05
-8.20798e-06
-1.68937e-05
-4.88435e-06
-2.28855e-05
-2.663e-05
-9.42044e-06
-9.4208e-06
1.02065e-05
-8.9088e-06
-1.13043e-05
3.94258e-06
-7.51865e-06
-1.24081e-05
7.84802e-07
-4.18475e-06
-1.36155e-05
-3.89354e-06
-1.43537e-05
-5.92503e-06
-1.13039e-05
-8.90924e-06
3.94242e-06
-1.10018e-05
-1.10023e-05
-4.5087e-06
-9.0872e-06
-1.21291e-05
-8.6519e-06
-5.24781e-06
-1.36082e-05
-1.43987e-05
-1.449e-05
-1.75817e-05
-1.24077e-05
-7.51913e-06
7.84444e-07
-1.21286e-05
-9.0877e-06
-8.65204e-06
-1.00717e-05
-1.00722e-05
-1.37904e-05
-5.87374e-06
-1.13896e-05
-2.08265e-05
-1.22347e-05
-2.50322e-05
-1.36152e-05
-4.18522e-06
-3.89401e-06
-1.36077e-05
-5.24832e-06
-1.4399e-05
-1.13891e-05
-5.87425e-06
-2.08267e-05
-6.80154e-06
-6.80207e-06
-2.89794e-05
-7.32613e-06
-3.46047e-05
-1.43533e-05
-5.92573e-06
-1.44895e-05
-1.75822e-05
-1.22343e-05
-2.50326e-05
-7.32562e-06
-3.4605e-05
-4.12979e-05
-1.38721e-05
-1.38726e-05
1.59293e-05
-1.40591e-05
-1.72556e-05
7.86131e-06
-1.15578e-05
-1.8901e-05
2.42833e-06
-6.72553e-06
-2.11151e-05
-4.03748e-06
-2.27635e-05
-7.33651e-06
-1.72551e-05
-1.40597e-05
7.86111e-06
-1.72384e-05
-1.7239e-05
-4.542e-06
-1.43186e-05
-1.9603e-05
-1.08697e-05
-8.62903e-06
-2.22188e-05
-1.89845e-05
-2.44415e-05
-2.45429e-05
-1.89005e-05
-1.15584e-05
2.42776e-06
-1.96023e-05
-1.43193e-05
-1.08699e-05
-1.66232e-05
-1.66239e-05
-1.97485e-05
-1.04018e-05
-1.90058e-05
-3.0261e-05
-2.12979e-05
-3.85882e-05
-2.11146e-05
-6.72623e-06
-4.03804e-06
-2.22182e-05
-8.62977e-06
-1.89849e-05
-1.90051e-05
-1.04026e-05
-3.02612e-05
-1.2071e-05
-1.20717e-05
-4.28475e-05
-1.39948e-05
-5.39868e-05
-2.2763e-05
-7.33744e-06
-2.44409e-05
-2.45435e-05
-2.12972e-05
-3.85887e-05
-1.3994e-05
-5.39871e-05
-6.93022e-05
-1.79494e-05
-1.795e-05
2.27257e-05
-1.79079e-05
-2.28684e-05
1.28322e-05
-1.5303e-05
-2.63652e-05
5.73153e-06
-8.92926e-06
-3.00606e-05
-3.33701e-06
-3.30208e-05
-8.50223e-06
-2.28678e-05
-1.79086e-05
1.28319e-05
-2.36131e-05
-2.36139e-05
-3.05118e-06
-2.01449e-05
-2.76385e-05
-1.30647e-05
-1.24657e-05
-3.23757e-05
-2.43486e-05
-3.61728e-05
-3.38731e-05
-2.63646e-05
-1.53039e-05
5.73096e-06
-2.76377e-05
-2.01457e-05
-1.3065e-05
-2.39803e-05
-2.39812e-05
-2.70633e-05
-1.49967e-05
-2.85384e-05
-4.30818e-05
-3.24891e-05
-5.72844e-05
-3.006e-05
-8.93005e-06
-3.33784e-06
-3.23749e-05
-1.24666e-05
-2.43491e-05
-2.85376e-05
-1.49976e-05
-4.30821e-05
-1.87378e-05
-1.87387e-05
-6.24471e-05
-2.12375e-05
-8.39912e-05
-3.30202e-05
-8.50349e-06
-3.6172e-05
-3.38741e-05
-3.24882e-05
-5.72852e-05
-2.12366e-05
-8.39917e-05
-0.000111802
-2.63908e-05
-2.63917e-05
3.55805e-05
-2.8332e-05
-3.48304e-05
2.37845e-05
-2.48673e-05
-4.09034e-05
1.35171e-05
-1.53379e-05
-4.68242e-05
2.16966e-08
-5.32271e-05
-7.98549e-06
-3.48296e-05
-2.83331e-05
2.37842e-05
-3.72082e-05
-3.72092e-05
1.7062e-06
-3.22521e-05
-4.59415e-05
-1.29827e-05
-2.10303e-05
-5.4122e-05
-2.82726e-05
-6.39653e-05
-4.41789e-05
-4.09025e-05
-2.48685e-05
1.35163e-05
-4.59404e-05
-3.22533e-05
-1.2983e-05
-4.14113e-05
-4.14125e-05
-3.61213e-05
-2.88985e-05
-4.97352e-05
-5.99814e-05
-6.1535e-05
-8.86291e-05
-4.68233e-05
-1.53392e-05
2.06951e-08
-5.4121e-05
-2.10316e-05
-2.82731e-05
-4.9734e-05
-2.88999e-05
-5.99817e-05
-3.54899e-05
-3.54914e-05
-9.0935e-05
-4.68878e-05
-0.000134139
-5.32262e-05
-7.98703e-06
-6.39643e-05
-4.41799e-05
-6.15338e-05
-8.86301e-05
-4.68864e-05
-0.00013414
-0.000205602
-3.20935e-05
-3.20944e-05
4.92088e-05
-3.39843e-05
-4.34423e-05
3.66881e-05
-2.95718e-05
-5.50345e-05
2.38747e-05
-1.91321e-05
-6.64091e-05
9.53193e-06
-7.80769e-05
-4.05174e-06
-4.34414e-05
-3.39855e-05
3.66878e-05
-4.96941e-05
-4.96953e-05
1.4212e-05
-4.4735e-05
-6.35436e-05
-9.43264e-06
-3.08212e-05
-7.88947e-05
-2.97009e-05
-9.60499e-05
-5.70514e-05
-5.50335e-05
-2.95733e-05
2.38739e-05
-6.35423e-05
-4.47365e-05
-9.43298e-06
-5.95889e-05
-5.95904e-05
-4.40279e-05
-4.11956e-05
-7.68136e-05
-8.04558e-05
-9.68029e-05
-0.000129095
-6.64082e-05
-1.91337e-05
9.53076e-06
-7.88936e-05
-3.08228e-05
-2.97015e-05
-7.68121e-05
-4.11973e-05
-8.04563e-05
-5.84629e-05
-5.84646e-05
-0.000127633
-7.13205e-05
-0.000218109
-7.80758e-05
-4.05366e-06
-9.60487e-05
-5.70525e-05
-9.68014e-05
-0.000129096
-7.13187e-05
-0.00021811
-0.000348281
-4.56098e-05
-4.56112e-05
7.5193e-05
-5.25977e-05
-6.43428e-05
6.26862e-05
-4.80961e-05
-8.46861e-05
4.80392e-05
-3.46829e-05
-0.000103627
3.21341e-05
-0.000127952
1.06348e-05
-6.43415e-05
-5.25995e-05
6.26859e-05
-7.68455e-05
-7.68471e-05
3.92203e-05
-7.12857e-05
-0.000106423
6.74408e-06
-5.14132e-05
-0.000133151
-2.00496e-05
-0.000177111
-5.93242e-05
-8.46847e-05
-4.80981e-05
4.80383e-05
-0.000106421
-7.12876e-05
6.7436e-06
-0.000106667
-0.000106669
-4.35355e-05
-8.57262e-05
-0.000138803
-9.5745e-05
-0.000204943
-0.000187009
-0.000103626
-3.46851e-05
3.21328e-05
-0.00013315
-5.14151e-05
-2.00503e-05
-0.000138801
-8.57285e-05
-9.57456e-05
-0.000115502
-0.000115505
-0.00017423
-0.000189832
-0.000348737
-0.000127951
1.06318e-05
-0.000177109
-5.93258e-05
-0.000204941
-0.000187011
-0.00018983
-0.00034874
-0.000728
-5.19122e-05
-5.19139e-05
0.000101913
-5.88107e-05
-7.57842e-05
9.2847e-05
-5.48851e-05
-0.000105368
7.70741e-05
-3.64111e-05
-0.000135697
6.34868e-05
-0.000182064
3.97818e-05
-7.57827e-05
-5.88127e-05
9.28466e-05
-9.30777e-05
-9.30796e-05
7.38108e-05
-9.52763e-05
-0.000139421
4.29958e-05
-7.69909e-05
-0.000187669
1.36377e-05
-0.000269722
-4.86868e-05
-0.000105367
-5.48873e-05
7.7073e-05
-0.000139419
-9.52786e-05
4.29954e-05
-0.000150346
-0.000150349
-2.16816e-05
-0.000119405
-0.000221961
-9.23945e-05
-0.000332207
-0.000243949
-0.000135695
-3.64133e-05
6.34854e-05
-0.000187668
-7.69934e-05
1.36368e-05
-0.000221958
-0.000119408
-9.23955e-05
-0.000211381
-0.000211386
-0.000195382
-0.000283725
-0.000608634
-0.000182063
3.97786e-05
-0.000269721
-4.86888e-05
-0.000332205
-0.000243953
-0.000283719
-0.000608644
-0.0012955
-6.70421e-05
-6.70443e-05
0.000148038
-8.4297e-05
-0.000103977
0.000145495
-8.40748e-05
-0.000153118
0.000138505
-6.67609e-05
-0.000204005
0.000130029
-0.000291406
0.000113544
-0.000103975
-8.42996e-05
0.000145494
-0.000135158
-0.00013516
0.000136177
-0.000141342
-0.000221002
0.000117063
-0.000114584
-0.000308545
9.14199e-05
-0.000494838
4.01527e-05
-0.000153116
-8.40777e-05
0.000138504
-0.000220999
-0.000141345
0.000117063
-0.000265593
-0.000265597
6.7507e-05
-0.000248186
-0.000398563
-1.97834e-05
-0.000803635
-0.000183324
-0.000204003
-6.67641e-05
0.000130028
-0.000308543
-0.000114588
9.14195e-05
-0.000398559
-0.000248192
-1.97843e-05
-0.000403216
-0.000403228
-0.000186059
-0.000943317
-0.000872147
-0.000291404
0.00011354
-0.000494838
4.01515e-05
-0.000803637
-0.000183329
-0.000943305
-0.000872184
-0.000522552
-0.00076326
-0.000763263
-0.00113314
-6.21428e-05
-6.21458e-05
0.000186403
-7.74055e-05
-0.000103116
0.000199447
-8.03114e-05
-0.000164735
0.000204171
-6.23051e-05
-0.000233156
0.000218888
-0.000384014
0.000222302
-0.000103113
-7.74091e-05
0.000199446
-0.000139587
-0.00013959
0.000209125
-0.000167143
-0.000248274
0.000228159
-0.000164915
-0.000367817
0.000223853
-0.000788041
0.000279267
-0.000164731
-8.03154e-05
0.000204169
-0.00024827
-0.000167146
0.000228159
-0.000336219
-0.000336225
0.000243407
-0.000334699
-0.000649752
0.000260631
-0.00162341
0.000317412
-0.000233153
-6.23091e-05
0.000218886
-0.000367815
-0.00016492
0.000223854
-0.000649745
-0.00033471
0.000260631
-0.000933388
-0.000933438
0.000103324
9.9945e-05
9.99404e-05
7.80594e-05
-0.000404687
1.13078e-05
-6.85453e-05
-0.000159211
-0.000332877
-0.000543342
-0.000788497
-0.00114333
-0.000384011
0.000222298
-0.000788046
0.000279272
-0.00162344
0.000317424
-0.000404672
1.13246e-05
-0.000159359
-6.853e-05
-0.000332954
-0.000543329
-0.000788482
-0.00114332
-0.00030677
-0.000306779
-0.000718362
-6.39447e-05
-6.39482e-05
0.000237477
-8.92716e-05
-0.000114424
0.000266794
-9.86066e-05
-0.000186993
0.000300282
-8.68448e-05
-0.000290276
0.000339765
-0.00044042
0.000390802
-0.000114421
-8.92756e-05
0.000266793
-0.00016562
-0.000165623
0.000311524
-0.000187796
-0.000314565
0.000377908
-0.000141706
-0.000562652
0.000450139
-0.00086278
0.000559996
-0.000186988
-9.86107e-05
0.00030028
-0.000314561
-0.000187798
0.000377907
-0.000454973
-0.000454975
0.000524228
-0.000432018
-0.000263346
0.000725451
-0.000271028
-0.000259373
-0.000256679
-0.000461251
0.00107279
-0.00066065
-0.000415825
-0.000512076
-0.000290271
-8.68488e-05
0.000339763
-0.000562647
-0.000141706
0.000450138
-0.000263344
-0.000432014
0.000725447
-0.000271032
-0.000259372
-0.000256676
-0.00031308
-0.000313064
0.000202779
-0.000208656
-0.000790588
0.000263648
0.000285652
-0.000440411
0.000390795
-0.000862757
0.000559994
-0.000461187
0.00107277
-0.00066066
-0.000415799
-0.000512083
-0.000790096
-0.000208805
0.000263532
0.000285507
0.000270716
0.000270589
0.000130831
-0.000297766
-0.000297806
-7.65629e-05
-2.08747e-05
-2.08793e-05
0.000251446
-2.51325e-05
-4.42456e-05
0.000280719
-2.1064e-05
-5.2472e-05
0.000309277
-1.59024e-05
-7.49647e-05
0.000339515
-7.05318e-05
0.000375273
-4.42413e-05
-2.51382e-05
0.000280718
-5.41579e-05
-5.41614e-05
0.000331356
-5.37561e-05
-5.52537e-05
0.000380288
-2.85257e-05
-9.78471e-05
0.000447791
-3.72767e-05
0.000498231
-5.24647e-05
-2.10725e-05
0.000309275
-5.52487e-05
-5.3757e-05
0.000380287
-2.94005e-05
-2.94118e-05
0.000472538
6.54472e-07
-6.09276e-05
0.000575898
-7.32339e-05
2.50504e-05
0.000130762
-0.000114043
0.000736863
-0.000165753
0.000226801
0.000352465
-7.49588e-05
-1.59124e-05
0.000339514
-9.78427e-05
-2.85252e-05
0.00044779
-6.09266e-05
6.38099e-07
0.000575898
-7.32325e-05
2.50513e-05
0.000130764
-5.60617e-05
-5.60591e-05
0.00028756
-0.000297293
-0.000570567
5.47162e-05
-2.69941e-05
0.000533932
3.09812e-05
-6.84926e-05
-8.10538e-05
1.34354e-05
-7.05232e-05
0.000375264
-3.72663e-05
0.000498234
-0.00011404
0.000736839
-0.000165753
0.000226803
0.000352465
-0.000570539
5.47126e-05
-2.70008e-05
0.000533925
3.09794e-05
-6.84948e-05
-8.10562e-05
1.34338e-05
-0.000331222
0.000115181
0.000115181
-0.00014116
-0.000141163
0.000383184
-3.27095e-06
-3.27648e-06
0.000251202
-2.99232e-06
-5.65256e-06
0.000279853
2.86747e-06
5.88008e-06
0.00029266
7.00442e-06
2.59138e-05
0.000312004
7.41591e-05
0.000314328
-5.64836e-06
-2.9988e-06
0.000279852
8.88214e-07
8.8485e-07
0.000318282
1.23629e-05
3.33146e-05
0.000341379
1.43573e-05
9.40202e-05
0.00037769
0.000203423
0.000383322
5.88743e-06
2.85887e-06
0.000292658
3.33191e-05
1.23613e-05
0.000341379
9.18716e-05
9.18629e-05
0.000355437
0.000116892
0.000283422
0.000361476
0.000261074
0.000253496
0.000363511
7.40911e-05
0.000105101
2.59193e-05
6.99734e-06
0.000312001
9.40237e-05
1.43565e-05
0.000377691
0.000283432
0.000116879
0.000361474
0.000124048
0.000124052
0.000117444
-0.000154721
-0.000174663
-0.000174662
-0.000262567
0.000353408
3.81696e-05
9.23827e-05
0.000353412
3.81736e-05
9.23769e-05
-0.000196461
0.000114981
0.000517902
-5.12995e-05
7.4167e-05
0.000314322
0.000203434
0.000383326
0.000261072
0.000253481
0.000363517
7.40894e-05
0.000105096
-0.000196461
0.0005179
0.000114984
-5.12993e-05
6.82101e-05
-0.000249564
-0.000249566
0.000305117
0.000305116
-0.000179313
2.37915e-05
2.37836e-05
0.000242806
2.37014e-05
1.61435e-05
0.000272815
1.56983e-05
1.05003e-05
0.000302359
1.67608e-06
-2.02284e-05
0.000334376
-7.24197e-05
0.000374686
1.61476e-05
2.36924e-05
0.000272815
1.06582e-05
1.06544e-05
0.000329261
-7.97635e-06
-1.12602e-05
0.000381774
-1.23978e-05
-9.40888e-05
0.000455972
-0.000219502
0.000518047
1.05121e-05
1.5685e-05
0.000302359
-1.12532e-05
-7.97658e-06
0.000381775
-7.78326e-05
-7.78566e-05
0.000488613
-0.000126007
-0.000304358
0.000619919
-9.92711e-05
0.000836884
-0.000153458
-0.000238897
-0.000437261
-2.02185e-05