/*--------------------------------*- C++ -*----------------------------------*\
| =========                 |                                                 |
| \\      /  F ield         | OpenFOAM: The Open Source CFD Toolbox           |
|  \\    /   O peration     | Version:  5.x                                   |
|   \\  /    A nd           | Web:      www.OpenFOAM.org                      |
|    \\/     M anipulation  |                                                 |
\*---------------------------------------------------------------------------*/
FoamFile
{
    version     2.0;
    format      ascii;
    class       volScalarField;
    location    "0.021";
    object      phiIB;
}
// * * * * * * * * * * * * * * * * * * * * * * * * * * * * * * * * * * * * * //

dimensions      [0 2 -1 0 0 0 0];

internalField   nonuniform List<scalar> 
1581
(
-7.69128e-07
-7.71047e-07
-7.73631e-07
-7.71477e-07
-7.73241e-07
-7.71043e-07
-7.66749e-07
-7.69343e-07
-7.66809e-07
-7.6812e-07
-7.73628e-07
-7.69344e-07
-7.71878e-07
-7.69064e-07
-7.70035e-07
-7.71472e-07
-7.66808e-07
-7.69062e-07
-7.66425e-07
-7.67329e-07
-7.73237e-07
-7.68119e-07
-7.70034e-07
-7.67329e-07
-7.68121e-07
-1.93158e-07
-1.86942e-07
-1.85949e-07
-1.83283e-07
-1.83173e-07
-1.86939e-07
-1.82915e-07
-1.82313e-07
-1.80097e-07
-1.79927e-07
-1.85945e-07
-1.82312e-07
-1.82108e-07
-1.80003e-07
-1.79765e-07
-1.83277e-07
-1.80094e-07
-1.80001e-07
-1.78155e-07
-1.77927e-07
-1.83166e-07
-1.79923e-07
-1.79762e-07
-1.77926e-07
-1.77655e-07
-4.50444e-06
-4.4985e-06
-4.49945e-06
-4.49574e-06
-4.49612e-06
-4.4985e-06
-4.49186e-06
-4.49233e-06
-4.48843e-06
-4.48861e-06
-4.49945e-06
-4.49233e-06
-4.4925e-06
-4.48833e-06
-4.48826e-06
-4.49573e-06
-4.48842e-06
-4.48832e-06
-4.48396e-06
-4.4837e-06
-4.49611e-06
-4.48861e-06
-4.48825e-06
-4.4837e-06
-4.48324e-06
-3.3845e-06
-3.37652e-06
-3.3772e-06
-3.37277e-06
-3.37289e-06
-3.37652e-06
-3.36855e-06
-3.36882e-06
-3.36427e-06
-3.36421e-06
-3.37719e-06
-3.36882e-06
-3.36845e-06
-3.36319e-06
-3.36258e-06
-3.37275e-06
-3.36426e-06
-3.36318e-06
-3.35721e-06
-3.35597e-06
-3.37287e-06
-3.3642e-06
-3.36257e-06
-3.35597e-06
-3.35415e-06
-7.10779e-06
-7.09728e-06
-7.09901e-06
-7.09372e-06
-7.0945e-06
-7.09727e-06
-7.08593e-06
-7.08705e-06
-7.08119e-06
-7.08164e-06
-7.099e-06
-7.08704e-06
-7.08707e-06
-7.07946e-06
-7.07863e-06
-7.0937e-06
-7.08118e-06
-7.07945e-06
-7.06821e-06
-7.06493e-06
-7.09447e-06
-7.08162e-06
-7.07861e-06
-7.06492e-06
-7.06009e-06
-6.87598e-06
-6.86246e-06
-6.86571e-06
-6.85951e-06
-6.8613e-06
-6.86245e-06
-6.84776e-06
-6.85079e-06
-6.84462e-06
-6.84638e-06
-6.86569e-06
-6.85079e-06
-6.85358e-06
-6.84618e-06
-6.84682e-06
-6.85949e-06
-6.84461e-06
-6.84617e-06
-6.83432e-06
-6.83202e-06
-6.86127e-06
-6.84635e-06
-6.8468e-06
-6.83201e-06
-6.82812e-06
-9.58663e-06
-9.56774e-06
-9.57204e-06
-9.56524e-06
-9.56904e-06
-9.56773e-06
-9.54799e-06
-9.55413e-06
-9.54661e-06
-9.55009e-06
-9.57203e-06
-9.55412e-06
-9.56335e-06
-9.55768e-06
-9.56204e-06
-9.56522e-06
-9.5466e-06
-9.55767e-06
-9.55621e-06
-9.56325e-06
-9.56901e-06
-9.55007e-06
-9.56202e-06
-9.56324e-06
-9.57152e-06
-1.02205e-05
-1.01879e-05
-1.01908e-05
-1.01829e-05
-1.01899e-05
-1.01879e-05
-1.01654e-05
-1.01771e-05
-1.0169e-05
-1.01746e-05
-1.01908e-05
-1.0177e-05
-1.01958e-05
-1.01896e-05
-1.01955e-05
-1.01829e-05
-1.0169e-05
-1.01896e-05
-1.01855e-05
-1.01929e-05
-1.01899e-05
-1.01746e-05
-1.01954e-05
-1.01929e-05
-1.02014e-05
-1.19886e-05
-1.19336e-05
-1.19273e-05
-1.19061e-05
-1.19077e-05
-1.19336e-05
-1.19e-05
-1.19053e-05
-1.18809e-05
-1.18797e-05
-1.19273e-05
-1.19053e-05
-1.19165e-05
-1.18904e-05
-1.18875e-05
-1.1906e-05
-1.18809e-05
-1.18904e-05
-1.1858e-05
-1.18529e-05
-1.19076e-05
-1.18796e-05
-1.18875e-05
-1.18529e-05
-1.18467e-05
-1.30965e-05
-1.30236e-05
-1.29946e-05
-1.29236e-05
-1.28988e-05
-1.30236e-05
-1.29481e-05
-1.29177e-05
-1.28445e-05
-1.28223e-05
-1.29946e-05
-1.29177e-05
-1.28869e-05
-1.2816e-05
-1.27963e-05
-1.29235e-05
-1.28444e-05
-1.2816e-05
-1.27544e-05
-1.2738e-05
-1.28987e-05
-1.28222e-05
-1.27962e-05
-1.2738e-05
-1.27221e-05
-1.42284e-05
-1.41227e-05
-1.40627e-05
-1.39232e-05
-1.38716e-05
-1.41227e-05
-1.39878e-05
-1.39187e-05
-1.37972e-05
-1.37577e-05
-1.40626e-05
-1.39186e-05
-1.38451e-05
-1.37373e-05
-1.37047e-05
-1.39231e-05
-1.37971e-05
-1.37372e-05
-1.36482e-05
-1.36231e-05
-1.38714e-05
-1.37575e-05
-1.37045e-05
-1.3623e-05
-1.36e-05
-1.56937e-05
-1.55267e-05
-1.54349e-05
-1.52614e-05
-1.52024e-05
-1.55266e-05
-1.53392e-05
-1.52313e-05
-1.50605e-05
-1.50079e-05
-1.54348e-05
-1.52312e-05
-1.51021e-05
-1.49262e-05
-1.48694e-05
-1.52612e-05
-1.50603e-05
-1.49261e-05
-1.4727e-05
-1.46594e-05
-1.52021e-05
-1.50077e-05
-1.48692e-05
-1.46593e-05
-1.45894e-05
-1.65103e-05
-1.62754e-05
-1.61784e-05
-1.59498e-05
-1.58592e-05
-1.62753e-05
-1.6021e-05
-1.58806e-05
-1.56198e-05
-1.5525e-05
-1.61782e-05
-1.58806e-05
-1.56775e-05
-1.53884e-05
-1.52987e-05
-1.59495e-05
-1.56196e-05
-1.53883e-05
-1.51208e-05
-1.50434e-05
-1.58588e-05
-1.55247e-05
-1.52985e-05
-1.50433e-05
-1.49705e-05
-1.77614e-05
-1.74597e-05
-1.7356e-05
-1.70444e-05
-1.6897e-05
-1.74597e-05
-1.71072e-05
-1.69267e-05
-1.65787e-05
-1.646e-05
-1.73558e-05
-1.69266e-05
-1.6673e-05
-1.63151e-05
-1.62101e-05
-1.70441e-05
-1.65784e-05
-1.6315e-05
-1.59572e-05
-1.58564e-05
-1.68966e-05
-1.64596e-05
-1.62098e-05
-1.58563e-05
-1.57557e-05
-1.81402e-05
-1.77156e-05
-1.75366e-05
-1.70966e-05
-1.69241e-05
-1.77155e-05
-1.71835e-05
-1.69367e-05
-1.64935e-05
-1.63565e-05
-1.75364e-05
-1.69366e-05
-1.6642e-05
-1.62079e-05
-1.6086e-05
-1.70963e-05
-1.64932e-05
-1.62077e-05
-1.57811e-05
-1.56601e-05
-1.69236e-05
-1.63561e-05
-1.60857e-05
-1.56599e-05
-1.55355e-05
-1.92441e-05
-1.86134e-05
-1.83726e-05
-1.78184e-05
-1.76502e-05
-1.86133e-05
-1.79143e-05
-1.76556e-05
-1.71432e-05
-1.69903e-05
-1.83723e-05
-1.76555e-05
-1.73673e-05
-1.68612e-05
-1.67154e-05
-1.7818e-05
-1.71429e-05
-1.6861e-05
-1.63126e-05
-1.61521e-05
-1.76497e-05
-1.69898e-05
-1.6715e-05
-1.61518e-05
-1.59831e-05
-1.93992e-05
-1.85437e-05
-1.82288e-05
-1.75744e-05
-1.73841e-05
-1.85436e-05
-1.75712e-05
-1.72011e-05
-1.65096e-05
-1.63102e-05
-1.82285e-05
-1.7201e-05
-1.6778e-05
-1.60783e-05
-1.58702e-05
-1.75738e-05
-1.65092e-05
-1.60781e-05
-1.532e-05
-1.50926e-05
-1.73833e-05
-1.63095e-05
-1.58696e-05
-1.50922e-05
-1.48547e-05
-2.07584e-05
-1.96075e-05
-1.93528e-05
-1.86828e-05
-1.85392e-05
-1.96073e-05
-1.84293e-05
-1.80833e-05
-1.72616e-05
-1.70578e-05
-1.93525e-05
-1.80831e-05
-1.76402e-05
-1.67479e-05
-1.65171e-05
-1.86822e-05
-1.72611e-05
-1.67476e-05
-1.5784e-05
-1.55259e-05
-1.85382e-05
-1.70569e-05
-1.65164e-05
-1.55255e-05
-1.526e-05
-2.05956e-05
-1.91108e-05
-1.8726e-05
-1.77599e-05
-1.75097e-05
-1.91106e-05
-1.72333e-05
-1.66423e-05
-1.55101e-05
-1.52154e-05
-1.87255e-05
-1.66421e-05
-1.58943e-05
-1.46998e-05
-1.4365e-05
-1.77591e-05
-1.55096e-05
-1.46994e-05
-1.34105e-05
-1.30393e-05
-1.75082e-05
-1.52142e-05
-1.43641e-05
-1.30387e-05
-1.26396e-05
-2.2853e-05
-2.07568e-05
-2.03607e-05
-1.93108e-05
-1.91564e-05
-2.07565e-05
-1.8463e-05
-1.78451e-05
-1.64036e-05
-1.60749e-05
-2.03602e-05
-1.78449e-05
-1.70007e-05
-1.53458e-05
-1.49271e-05
-1.93099e-05
-1.64029e-05
-1.53454e-05
-1.35496e-05
-1.30352e-05
-1.91547e-05
-1.60734e-05
-1.49259e-05
-1.30344e-05
-1.24813e-05
-2.14566e-05
-1.86955e-05
-1.80775e-05
-1.63626e-05
-1.58796e-05
-1.86951e-05
-1.5306e-05
-1.42113e-05
-1.21976e-05
-1.16e-05
-1.80769e-05
-1.42111e-05
-1.27585e-05
-1.05159e-05
-9.72637e-06
-1.63615e-05
-1.21969e-05
-1.05154e-05
-7.98134e-06
-7.04808e-06
-1.58774e-05
-1.15982e-05
-9.72479e-06
-7.04694e-06
-5.97708e-06
-2.50338e-05
-2.12401e-05
-2.04248e-05
-1.86569e-05
-1.85042e-05
-2.12398e-05
-1.68607e-05
-1.55722e-05
-1.30065e-05
-1.22978e-05
-2.04243e-05
-1.5572e-05
-1.38426e-05
-1.06692e-05
-9.64687e-06
-1.8656e-05
-1.3006e-05
-1.06688e-05
-7.13197e-06
-5.76175e-06
-1.85018e-05
-1.22957e-05
-9.645e-06
-5.76029e-06
-4.22778e-06
-2.04672e-05
-1.56515e-05
-1.45693e-05
-1.20867e-05
-1.10609e-05
-1.56511e-05
-1.0088e-05
-7.7969e-06
-4.18606e-06
-2.67954e-06
-1.45688e-05
-7.79673e-06
-4.37853e-06
-4.44043e-08
2.21096e-06
-1.20859e-05
-4.18567e-06
-4.4185e-08
4.92315e-06
7.68189e-06
-1.10581e-05
-2.67724e-06
2.21308e-06
7.68371e-06
1.1175e-05
-2.66208e-05
-2.00414e-05
-1.87981e-05
-1.58872e-05
-1.55277e-05
-2.00409e-05
-1.24723e-05
-9.65406e-06
-5.2462e-06
-3.30133e-06
-1.87973e-05
-9.65391e-06
-5.6467e-06
3.7558e-07
3.27615e-06
-1.58867e-05
-5.24611e-06
3.75562e-07
7.1114e-06
1.14119e-05
-1.55248e-05
-3.29899e-06
3.2784e-06
1.14141e-05
1.65078e-05
-1.673e-05
-8.9921e-06
-6.25676e-06
-3.47793e-06
-9.85506e-07
-8.99148e-06
2.08645e-07
5.40746e-06
1.15391e-05
1.57098e-05
-6.25593e-06
5.40764e-06
1.38954e-05
2.20387e-05
2.93018e-05
-3.47753e-06
1.15389e-05
2.20383e-05
3.13481e-05
4.0653e-05
-9.82664e-07
1.5712e-05
2.93039e-05
4.06556e-05
5.42513e-05
-2.84379e-05
-1.69393e-05
-1.37996e-05
-7.61244e-06
-6.9576e-06
-1.69384e-05
-2.59039e-06
2.82385e-06
9.51872e-06
1.5347e-05
-1.3798e-05
2.82427e-06
1.18972e-05
2.29066e-05
3.22152e-05
-7.61129e-06
9.51884e-06
2.29061e-05
3.40179e-05
5.00391e-05
-6.95416e-06
1.53498e-05
3.22177e-05
5.00432e-05
7.04383e-05
-1.01915e-05
1.49671e-06
9.15186e-06
1.4526e-05
2.01556e-05
1.49788e-06
1.81225e-05
2.82867e-05
3.71085e-05
4.88993e-05
9.15397e-06
2.82874e-05
4.86644e-05
6.28786e-05
8.71914e-05
1.45288e-05
3.71098e-05
6.2878e-05
7.70834e-05
0.000111498
2.01605e-05
4.89038e-05
8.71942e-05
0.000111504
0.000172116
-3.18094e-05
-1.74347e-05
-1.15793e-05
-2.75025e-06
3.95053e-06
-1.74329e-05
3.0717e-06
2.04004e-05
2.80981e-05
4.73705e-05
-1.15756e-05
2.0402e-05
4.27595e-05
6.12871e-05
9.3786e-05
-2.74507e-06
2.81003e-05
6.12849e-05
6.32467e-05
0.000138532
3.95922e-06
4.73771e-05
9.37882e-05
0.000138543
0.000229342
-4.57054e-07
1.21788e-05
2.93505e-05
3.68726e-05
5.53961e-05
1.21808e-05
3.50907e-05
6.12126e-05
7.44549e-05
0.000101556
2.93541e-05
6.12144e-05
0.00011606
0.00014713
0.000208443
3.68769e-05
7.44563e-05
0.000147125
0.000181393
0.00027126
5.54022e-05
0.00010156
0.00020843
0.000271227
0.00055858
-3.49851e-05
-2.48223e-05
-1.88808e-05
-1.35053e-05
-6.19203e-07
-2.48194e-05
-9.49238e-06
1.28427e-05
5.44087e-06
7.612e-05
-1.88756e-05
1.28456e-05
6.59324e-05
0.000115035
0.000215647
-1.34984e-05
5.44604e-06
0.000115031
9.69296e-06
0.000433306
-6.08085e-07
7.61372e-05
0.000215656
0.000433287
0.00045286
3.50856e-06
1.1268e-05
3.20225e-05
3.97487e-05
6.2175e-05
1.12706e-05
2.76757e-05
5.46094e-05
3.93915e-05
8.62345e-05
3.20265e-05
5.46091e-05
0.00012814
0.000240341
0.000293945
3.97579e-05
3.93989e-05
0.000240424
0.000148867
0.0003147
6.21787e-05
8.61986e-05
0.000294129
0.000313015
0.00072127
-4.58352e-05
-5.04215e-05
-5.28512e-05
-6.46002e-05
-6.62799e-05
-5.04183e-05
-4.72797e-05
-5.46114e-05
-6.81045e-05
-6.05945e-05
-5.28457e-05
-5.46112e-05
-5.8433e-05
-8.95059e-05
-0.000118846
-6.4588e-05
-6.80956e-05
-8.94766e-05
-7.69816e-05
-3.46792e-05
-6.62661e-05
-6.05854e-05
-0.000118795
-3.48687e-05
8.41132e-05
-1.14799e-05
-1.15969e-05
-7.51058e-06
-9.66937e-06
-5.75666e-06
-1.15927e-05
-1.49947e-05
-1.0917e-05
-1.89481e-05
-1.18752e-05
-7.50492e-06
-1.09191e-05
2.43875e-06
2.6603e-06
4.78748e-06
-9.65461e-06
-1.89419e-05
2.67564e-06
-7.0045e-05
-3.97588e-05
-5.74514e-06
-1.18691e-05
4.79994e-06
-3.97784e-05
-0.000221608
-5.91456e-05
-6.90563e-05
-6.85236e-05
-7.57086e-05
-7.00689e-05
-6.90518e-05
-7.25823e-05
-7.22714e-05
-6.93934e-05
-6.15709e-05
-6.85163e-05
-7.22721e-05
-5.71588e-05
-4.8678e-05
1.32782e-05
-7.56959e-05
-6.93881e-05
-4.86731e-05
-1.66583e-05
-1.18148e-05
-7.00588e-05
-6.15628e-05
1.32765e-05
-1.1815e-05
0.000197364
-2.97043e-05
-3.90129e-05
-4.88169e-05
-6.02042e-05
-7.75862e-05
-3.90064e-05
-5.83447e-05
-7.52145e-05
-0.000100049
-0.000122778
-4.88093e-05
-7.52166e-05
-0.000114456
-0.000156414
-0.000238772
-6.01827e-05
-0.000100046
-0.000156401
-9.68826e-05
-0.000129541
-7.7573e-05
-0.000122774
-0.00023877
-0.00012953
8.0913e-05
-8.62097e-05
-0.000105244
-0.000115818
-0.000131967
-0.000148086
-0.000105239
-0.000127974
-0.000145696
-0.0001718
-0.000190528
-0.000115811
-0.000145695
-0.000185489
-0.00023329
-0.000313985
-0.000131953
-0.000171795
-0.000233286
-0.000318471
-0.000343301
-0.000148073
-0.000190523
-0.000313981
-0.000343298
-0.000681135
-3.5122e-05
-4.87316e-05
-5.32835e-05
-6.60918e-05
-7.41762e-05
-4.87269e-05
-6.7134e-05
-8.35171e-05
-0.000106316
-0.000133279
-5.32765e-05
-8.35174e-05
-0.000112662
-0.000158473
-0.000196842
-6.60773e-05
-0.000106311
-0.000158463
-0.000233908
-0.000372587
-7.41632e-05
-0.000133275
-0.000196837
-0.000372588
-0.000696355
-9.17375e-05
-0.000115236
-0.000122392
-0.000137872
-0.000145344
-0.000115231
-0.000144903
-0.000157547
-0.000178724
-0.000189867
-0.000122385
-0.000157546
-0.000178235
-0.000208072
-0.000240291
-0.000137861
-0.000178719
-0.000208068
-0.000260843
-0.000317713
-0.000145332
-0.000189862
-0.000240287
-0.000317711
-0.000415597
-2.85228e-05
-3.91506e-05
-4.18151e-05
-4.82037e-05
-4.94554e-05
-3.9148e-05
-5.25767e-05
-5.94808e-05
-6.53962e-05
-6.80994e-05
-4.18112e-05
-5.94802e-05
-6.21444e-05
-7.16002e-05
-7.186e-05
-4.8197e-05
-6.53933e-05
-7.15969e-05
-8.52204e-05
-9.96515e-05
-4.9448e-05
-6.80965e-05
-7.18577e-05
-9.96519e-05
-9.36695e-05
-1.93156e-05
-3.88128e-05
-3.07498e-05
-4.19242e-05
-3.99133e-05
-3.88106e-05
-6.05387e-05
-5.69569e-05
-7.15032e-05
-7.80998e-05
-3.0747e-05
-5.69572e-05
-5.90382e-05
-8.3983e-05
-9.74048e-05
-4.19207e-05
-7.15024e-05
-8.39809e-05
-0.000115549
-0.000138455
-3.99096e-05
-7.80991e-05
-9.74025e-05
-0.000138455
-0.000164146
0.000494853
0.000710054
0.00117215
0.000404641
0.000312592
0.000186023
0.000218028
0.00071026
0.000494753
0.00117312
0.000404543
0.000186062
0.000312656
0.000218187
0.00156634
0.00156651
0.00371535
0.000593242
0.00206984
0.00206995
0.00180804
-0.00017121
-0.000171231
-0.000208799
1.13848e-05
-7.09668e-05
-7.09784e-05
-8.38917e-05
5.16242e-06
-0.000111079
1.15085e-05
-5.34958e-05
-0.000140447
-0.000275311
-0.00062631
-0.000111083
5.15645e-06
1.15848e-05
-5.35438e-05
-0.000275314
-0.00014044
-0.000626297
-0.000499123
-0.000499055
0.000351524
-0.000169656
-0.000762088
-0.000762076
-0.00259156
-5.0867e-05
-0.00016328
-0.000221779
-1.94439e-05
-3.04785e-06
-1.39677e-05
5.85517e-05
-0.00016328
-5.08657e-05
-0.000221772
-1.94463e-05
-1.39711e-05
-3.03509e-06
5.85466e-05
-0.000637845
-0.000637838
-0.00134752
8.9451e-06
0.000179262
0.000179263
0.000752455
2.10327e-05
3.88758e-05
0.000143424
-2.17221e-06
8.32185e-05
0.000297887
0.000562454
3.88734e-05
2.10357e-05
0.000143428
-2.16193e-06
0.000297888
8.32675e-05
0.000562416
0.000470078
0.000470101
0.000432962
0.000261331
0.000974737
0.000974755
0.00433698
-0.000191672
-0.000191681
-0.000120899
-0.000196828
-0.00027402
-0.000274022
-0.000387834
-0.000218065
-2.93712e-05
-0.000139146
-0.000301705
-0.000307076
-0.000562357
-0.00075938
-2.93708e-05
-0.000218055
-0.000139122
-0.000301697
-0.000562355
-0.000307067
-0.00075938
0.00138646
0.00138648
0.0020058
-0.000785029
-0.00233315
-0.00233314
-0.00173469
-0.00045694
-0.000645275
-0.0010044
-0.000296252
-0.000357145
-0.00055555
-0.00066761
-0.000645272
-0.000456945
-0.00100439
-0.000296247
-0.000555547
-0.00035714
-0.000667604
-0.00160379
-0.00160378
-0.00265042
-0.000720065
-0.0006567
-0.000656696
-0.00123573
-0.000779698
-0.000779695
-0.00085193
-0.000344316
-0.000406348
-0.000406345
-0.000494355
-0.00148541
-0.000209186
-0.00020915
-0.000387166
-0.000717094
-0.000516722
-0.000516707
-0.00040584
-0.000429996
-0.000429996
0.000144727
-0.000654942
-0.000152888
-0.00015289
-0.000413519
5.86273e-05
5.86488e-05
-5.09063e-05
0.00112427
-0.00043076
-0.000430752
-0.00142768
-0.00115921
-0.00115921
-0.000562894
-0.00184746
-0.000998571
-0.000998569
0.00207514
0.000991608
0.000616041
0.000616133
0.00136073
0.00136082
0.00121356
0.00241444
0.0020257
0.00140092
0.000772549
0.0013253
0.000757779
0.00273146
0.00241447
0.0020258
0.00140102
0.000772624
0.00132535
0.000757822
0.00273155
0.0032887
0.00382718
0.00152648
0.00152651
0.00131866
0.00355322
0.00355326
-0.000225126
-2.00289e-06
-7.87255e-05
-0.000163735
-0.000161533
-0.000170196
-0.000243943
-0.000284696
0.000115226
-5.79697e-05
-0.000296266
0.000111029
-0.000263898
-0.000322803
-0.000230725
-0.000526489
-0.000254352
-0.000578774
-0.000536299
-0.000165875
-0.000296219
-0.000225142
-2.02003e-06
-7.87098e-05
-0.000163745
-0.000161524
-0.000170228
-0.00024394
-0.000284673
-5.79057e-05
0.000115302
-0.000296228
0.000111094
-0.000263867
-0.000322769
-0.000230708
-0.000526468
-0.000578764
-0.000254337
-0.000536281
-0.000165865
-0.000296197
-0.00100497
-0.000259284
-0.000174013
-0.00200501
-0.00032521
-0.00157808
-0.000868659
-0.00100495
-0.000259228
-0.000173966
-0.00200497
-0.000325183
-0.00157805
-0.000868632
-0.000928836
0.000177781
0.0001778
-0.000757966
7.59842e-06
-0.000822834
-0.000822821
-0.00164411
-0.00033174
-0.000607637
-0.000607634
-0.000708605
-0.000708598
-0.00119706
-0.00166056
-0.00140343
-0.00064484
-0.0016025
-0.0010885
-0.00141572
-0.00151468
-0.00166056
-0.00140341
-0.000644831
-0.0016025
-0.00108848
-0.00141571
-0.00151467
-0.00175333
-0.00173815
-0.00204953
-0.00204953
-0.00141387
-0.00172039
-0.00172038
-0.000349048
-0.000511561
-0.000966092
-6.80322e-05
-0.000735254
5.32434e-05
-0.000453312
-0.000349045
-0.000511557
-0.000966087
-6.80286e-05
-0.00073525
5.32418e-05
-0.000453304
-0.000148672
-0.00117187
-0.00117187
-0.000723043
-0.00099895
-0.000432593
-0.00043259
0.00212761
0.000999895
0.000492292
0.00218233
0.000691725
0.00176413
0.00264195
0.00212759
0.000999976
0.000492384
0.00218235
0.000691795
0.00176421
0.00264196
0.00253289
0.00384241
0.00398911
0.00398918
0.00275434
0.00276123
0.00276128
-6.08551e-05
0.000163878
4.95494e-05
-0.000467812
4.55951e-05
-0.000454521
-1.78142e-05
-0.000420202
-0.000407416
-0.000483835
-0.000743196
-0.000333115
-0.000516247
-0.000556254
-0.000392221
-0.000590044
-0.000727184
-0.000765914
-0.000567437
-0.000631581
-0.000485141
-6.08596e-05
4.95611e-05
0.000163909
-0.000467819
4.5597e-05
-0.000454532
-1.78112e-05
-0.000420191
-0.000407416
-0.000483834
-0.000743194
-0.000333113
-0.000516242
-0.00055625
-0.000392216
-0.000590038
-0.000765913
-0.000727176
-0.000567435
-0.000631579
-0.000485115
-0.000642414
0.000659139
0.000577728
0.000356758
0.000795918
0.000187501
-0.000240509
-0.000642426
0.000659151
0.000577721
0.00035677
0.000795908
0.000187519
-0.000240506
-8.93388e-05
0.00164622
0.00164624
0.00039068
0.00136286
0.000165706
0.000165711
-0.00161391
-0.000556622
-0.00102948
-0.00102947
-0.000853678
-0.000853672
-0.00223732
-0.00104421
-0.00186307
-0.00177866
-0.00166226
-0.00146202
-0.00170837
-0.00106883
-0.00104421
-0.00186304
-0.00177865
-0.00166225
-0.001462
-0.00170836
-0.00106882
-0.000961966
-0.0007756
-0.00175652
-0.00175651
-0.00176458
-0.00087939
-0.000879384
-0.000552787
-0.000676678
-0.000948898
-0.000979764
-0.00058845
-0.000933736
-0.000666223
-0.000552781
-0.000948897
-0.000676664
-0.000979762
-0.000588444
-0.000933735
-0.000666213
-0.00173994
-0.00125697
-0.00231787
-0.0012528
-0.00214233
-0.00105905
-0.00195243
-0.00173994
-0.00125696
-0.00231787
-0.0012528
-0.00214233
-0.00105904
-0.00195243
-0.0017922
-0.0026433
-0.00264329
-0.0028114
-0.00239048
-0.00209692
-0.00209692
-0.00132374
-0.00109606
-0.000508197
-0.00103349
-0.000966806
-0.000936731
-0.00130944
-0.00132374
-0.00109605
-0.000508194
-0.00103349
-0.000966804
-0.00093673
-0.00130943
-0.00145463
-0.00171748
-0.000999408
-0.000999405
-0.000807117
-0.00164503
-0.00164502
0.00070172
0.000701729
0.001037
0.000934686
0.00126959
0.00126957
0.00196411
0.00300433
0.00342438
0.00342443
0.0061146
0.00294139
0.00423543
0.00423549
0.000544373
0.00113188
0.000641752
0.000237144
0.00109439
0.000439988
0.000746557
0.000544511
0.00113201
0.000237293
0.000641916
0.00109449
0.000440154
0.000746699
0.00276564
0.00127901
0.00259701
0.00174111
0.0020711
0.00155465
0.00299578
0.00276566
0.00127912
0.00259712
0.00174126
0.00207109
0.00155472
0.00299592
0.00141209
0.000180142
0.000537544
0.000537531
0.000688033
0.000688005
0.0012904
0.00212428
0.00118094
0.00118146
0.000953693
0.00168914
0.00135844
0.00135889
-0.000197515
-8.6394e-05
0.000124941
-0.000248144
-5.72489e-05
-0.000150415
-0.000236279
-0.00019751
-8.63916e-05
0.000124954
-0.000248144
-5.72328e-05
-0.000150415
-0.000236277
0.00191278
0.000200728
0.000200774
0.0029786
0.000178176
0.00247209
0.00247211
5.71146e-05
5.71337e-05
0.00120698
0.000130832
-0.000115829
-0.000115796
0.000584718
0.000239244
0.000766254
0.000331994
0.000618485
0.000363648
0.00163452
7.07972e-05
0.000239217
0.00076618
0.000332063
0.000618547
0.000363561
0.0016345
7.0898e-05
)
;

boundaryField
{
    inlet
    {
        type            fixedValue;
        value           uniform 0;
    }
    wall
    {
        type            zeroGradient;
    }
    outlet
    {
        type            fixedValue;
        value           uniform 0;
    }
    procBoundary0to1
    {
        type            processor;
        value           nonuniform List<scalar> 
323
(
-7.73564e-07
-7.68375e-07
-7.70102e-07
-7.67366e-07
-7.68126e-07
-1.82952e-07
-1.79822e-07
-1.79649e-07
-1.7787e-07
-1.7765e-07
-4.4962e-06
-4.48869e-06
-4.4883e-06
-4.48373e-06
-4.48333e-06
-3.37262e-06
-3.36406e-06
-3.36245e-06
-3.3559e-06
-3.35421e-06
-7.09448e-06
-7.08163e-06
-7.07865e-06
-7.06498e-06
-7.06026e-06
-6.86118e-06
-6.84631e-06
-6.84679e-06
-6.83205e-06
-6.82826e-06
-9.56907e-06
-9.55015e-06
-9.56207e-06
-9.56309e-06
-9.5714e-06
-1.01898e-05
-1.01746e-05
-1.01954e-05
-1.01928e-05
-1.02012e-05
-1.19078e-05
-1.18799e-05
-1.18878e-05
-1.1853e-05
-1.18467e-05
-1.28994e-05
-1.28228e-05
-1.27967e-05
-1.27382e-05
-1.27221e-05
-1.38724e-05
-1.37584e-05
-1.37052e-05
-1.36233e-05
-1.35999e-05
-1.52034e-05
-1.50086e-05
-1.487e-05
-1.46598e-05
-1.45893e-05
-1.58607e-05
-1.5526e-05
-1.52993e-05
-1.50436e-05
-1.497e-05
-1.68984e-05
-1.64608e-05
-1.62107e-05
-1.58566e-05
-1.57552e-05
-1.69247e-05
-1.63569e-05
-1.60864e-05
-1.56601e-05
-1.55353e-05
-1.76507e-05
-1.69908e-05
-1.67159e-05
-1.61525e-05
-1.59836e-05
-1.73844e-05
-1.63104e-05
-1.58707e-05
-1.5093e-05
-1.48554e-05
-1.8539e-05
-1.7058e-05
-1.65176e-05
-1.55265e-05
-1.52606e-05
-1.75097e-05
-1.52152e-05
-1.43649e-05
-1.30389e-05
-1.26394e-05
-1.91549e-05
-1.60735e-05
-1.49255e-05
-1.30336e-05
-1.24797e-05
-1.58766e-05
-1.15961e-05
-9.7223e-06
-7.0434e-06
-5.97337e-06
-1.8495e-05
-1.22887e-05
-9.63686e-06
-5.75231e-06
-4.21915e-06
-1.10462e-05
-2.66199e-06
2.22922e-06
7.70148e-06
1.11906e-05
-1.54929e-05
-3.26815e-06
3.31287e-06
1.14476e-05
1.65388e-05
-9.35305e-07
1.57665e-05
2.93643e-05
4.07223e-05
5.43065e-05
-6.85752e-06
1.54361e-05
3.23217e-05
5.01606e-05
7.05338e-05
2.02675e-05
4.90177e-05
8.73325e-05
0.000111698
0.000172277
4.12019e-06
4.75099e-05
9.38483e-05
0.000138667
0.000229509
5.55344e-05
0.000101662
0.000208285
0.000271621
0.000558651
-5.55258e-07
7.58602e-05
0.000214003
0.000428784
0.000700889
6.22857e-05
8.61088e-05
0.000288041
0.000482338
0.00156538
-6.61693e-05
-6.06454e-05
-0.000119908
3.97168e-06
-0.00049904
-5.59892e-06
-1.16598e-05
4.81461e-06
-5.07303e-05
-0.000637656
-6.99343e-05
-6.1279e-05
1.33481e-05
2.26355e-05
0.000480053
-7.74786e-05
-0.000122653
-0.000238703
-0.000218165
0.00138667
-0.000148208
-0.000190261
-0.000314717
-0.000457464
-0.001604
-7.41394e-05
-0.000133214
-0.00019693
-0.000372408
-0.000778189
-0.000145329
-0.000189855
-0.000240516
-0.00031797
-0.000416457
-4.94251e-05
-6.80847e-05
-7.184e-05
-9.95977e-05
-9.34467e-05
-3.9841e-05
-7.80804e-05
-9.7395e-05
-0.000138496
-0.000164211
0.00116825
0.000217797
0.00030915
0.00371553
0.00180825
0.00207007
1.14151e-05
-0.000626542
-0.000140644
0.000351741
-0.00259155
-0.00076196
-0.000222091
5.74144e-05
-2.97514e-06
-0.0013477
0.000742505
0.000177386
0.000142214
0.00056252
8.36188e-05
0.00043537
0.00434043
0.000977329
-0.000139378
-0.000759324
-0.000307087
0.00200735
-0.00173456
-0.00233322
-0.00100429
-0.00066566
-0.000357921
-0.00265008
-0.00123574
-0.000656748
-0.000851578
-0.000494763
-0.000407175
-0.000173885
-0.000868558
-0.00200495
-0.000965948
-0.000452702
-6.73284e-05
0.000578291
-0.000240306
0.000356893
-0.00231733
-0.00195149
-0.00125241
0.00152653
0.00355319
0.00382743
0.00202564
0.00273107
0.000772458
-0.000296354
-0.000323006
0.000114927
-0.000254759
-0.000296396
-0.000526535
-0.00075776
-0.000822672
0.000177925
-0.0020495
-0.00172024
-0.00173799
-0.00140328
-0.00151458
-0.00160256
-0.000721787
-0.000431257
-0.00117187
0.00399954
0.00278691
0.00384828
0.00100352
0.00265003
0.00218509
-0.000467892
-1.79241e-05
0.000163906
-0.000727345
-0.000485148
-0.000590116
0.000391226
0.00016657
0.00164944
-0.00175631
-0.000879133
-0.000775409
-0.0018631
-0.00106871
-0.00166198
-0.000979345
-0.000666511
-0.000676924
-0.00281056
-0.00209624
-0.00264277
-0.000999159
-0.00164368
-0.00171607
-0.00109555
-0.00130692
-0.00103365
0.00103678
0.00196407
0.00126858
0.00611493
0.00423526
0.00342425
0.00259647
0.00299535
0.00174053
0.000641317
0.000745371
0.00113144
0.00298411
0.00247241
0.000204608
)
;
    }
    procBoundary0to2
    {
        type            processor;
        value           nonuniform List<scalar> 
323
(
-7.73556e-07
-7.68371e-07
-7.70098e-07
-7.67364e-07
-7.68124e-07
-1.82944e-07
-1.79816e-07
-1.79644e-07
-1.77867e-07
-1.77649e-07
-4.49619e-06
-4.48868e-06
-4.48829e-06
-4.48372e-06
-4.48332e-06
-3.3726e-06
-3.36404e-06
-3.36243e-06
-3.35589e-06
-3.3542e-06
-7.09445e-06
-7.08161e-06
-7.07863e-06
-7.06496e-06
-7.06024e-06
-6.86114e-06
-6.84628e-06
-6.84676e-06
-6.83203e-06
-6.82825e-06
-9.56902e-06
-9.5501e-06
-9.56202e-06
-9.56306e-06
-9.57138e-06
-1.01897e-05
-1.01745e-05
-1.01954e-05
-1.01927e-05
-1.02012e-05
-1.19077e-05
-1.18798e-05
-1.18877e-05
-1.18529e-05
-1.18467e-05
-1.28992e-05
-1.28226e-05
-1.27966e-05
-1.27381e-05
-1.2722e-05
-1.38721e-05
-1.37581e-05
-1.3705e-05
-1.36232e-05
-1.35998e-05
-1.5203e-05
-1.50083e-05
-1.48697e-05
-1.46596e-05
-1.45892e-05
-1.58601e-05
-1.55256e-05
-1.52989e-05
-1.50434e-05
-1.49699e-05
-1.68978e-05
-1.64603e-05
-1.62102e-05
-1.58563e-05
-1.57551e-05
-1.6924e-05
-1.63563e-05
-1.60858e-05
-1.56597e-05
-1.5535e-05
-1.76499e-05
-1.699e-05
-1.67152e-05
-1.6152e-05
-1.59833e-05
-1.73833e-05
-1.63094e-05
-1.58697e-05
-1.50923e-05
-1.4855e-05
-1.85375e-05
-1.70566e-05
-1.65163e-05
-1.55255e-05
-1.52601e-05
-1.75075e-05
-1.52133e-05
-1.43632e-05
-1.30375e-05
-1.26386e-05
-1.91521e-05
-1.6071e-05
-1.49232e-05
-1.30317e-05
-1.24786e-05
-1.58729e-05
-1.15927e-05
-9.71914e-06
-7.04064e-06
-5.97169e-06
-1.84903e-05
-1.22844e-05
-9.63271e-06
-5.74852e-06
-4.21673e-06
-1.10402e-05
-2.65628e-06
2.23478e-06
7.70679e-06
1.11942e-05
-1.54852e-05
-3.26095e-06
3.31986e-06
1.14543e-05
1.65433e-05
-9.25758e-07
1.57756e-05
2.93732e-05
4.07311e-05
5.43125e-05
-6.84632e-06
1.54463e-05
3.23313e-05
5.01709e-05
7.0542e-05
2.02785e-05
4.90278e-05
8.73412e-05
0.000111708
0.000172287
4.13479e-06
4.75216e-05
9.38566e-05
0.000138675
0.000229517
5.55474e-05
0.000101673
0.00020829
0.000271617
0.000558652
-5.39526e-07
7.58742e-05
0.000214015
0.000428744
0.000700888
6.23039e-05
8.6121e-05
0.000288112
0.000482083
0.00156544
-6.61462e-05
-6.06268e-05
-0.00011987
3.96488e-06
-0.000498986
-5.56944e-06
-1.16468e-05
4.84411e-06
-5.07212e-05
-0.000637639
-6.99159e-05
-6.12663e-05
1.3353e-05
2.26495e-05
0.000480056
-7.74461e-05
-0.000122644
-0.00023871
-0.000218146
0.00138667
-0.000148191
-0.000190252
-0.000314709
-0.000457461
-0.00160398
-7.41134e-05
-0.000133205
-0.000196908
-0.000372402
-0.000778182
-0.000145312
-0.000189846
-0.000240506
-0.000317962
-0.000416448
-4.94128e-05
-6.80779e-05
-7.1831e-05
-9.95936e-05
-9.34422e-05
-3.9836e-05
-7.80786e-05
-9.73908e-05
-0.000138494
-0.000164209
0.000309129
0.000217876
0.0011683
0.00207015
0.00180827
0.00371554
-0.000140636
-0.000626524
1.14677e-05
-0.000761942
-0.00259154
0.000351753
-2.95665e-06
5.74216e-05
-0.00022207
0.000177404
0.000742505
-0.00134769
8.36508e-05
0.000562497
0.000142246
0.000977327
0.00434045
0.000435373
-0.00030708
-0.000759321
-0.000139332
-0.00233321
-0.00173455
0.00200735
-0.000357911
-0.000665649
-0.00100429
-0.000656741
-0.00123574
-0.00265008
-0.000407167
-0.00049476
-0.000851574
-0.00200492
-0.000868527
-0.000173839
-6.73186e-05
-0.000452691
-0.000965933
0.000356903
-0.000240289
0.000578297
-0.0012524
-0.00195148
-0.00231732
0.000772522
0.00273114
0.00202572
0.00382745
0.00355324
0.00152657
-0.000526511
-0.000296373
-0.000254741
0.000114977
-0.000322978
-0.000296321
-0.00160255
-0.00151456
-0.00140325
-0.00173798
-0.00172023
-0.00204949
0.000177953
-0.000822653
-0.000757751
-0.00117186
-0.000431249
-0.00072178
0.00218505
0.00265003
0.00100351
0.00384828
0.00278694
0.00399956
-0.000590107
-0.000485151
-0.000727355
0.00016388
-1.79477e-05
-0.0004679
-0.00166197
-0.00106869
-0.00186309
-0.000775404
-0.000879123
-0.0017563
0.00164945
0.00016658
0.00039123
-0.000676915
-0.000666503
-0.00097934
-0.00103365
-0.00130691
-0.00109555
-0.00171607
-0.00164368
-0.000999155
-0.00264276
-0.00209623
-0.00281056
0.00126858
0.00196408
0.00103678
0.00342428
0.00423531
0.00611495
0.00174059
0.00299541
0.00259651
0.00113152
0.000745435
0.000641394
0.000204611
0.00247242
0.00298413
)
;
    }
}


// ************************************************************************* //
