/*--------------------------------*- C++ -*----------------------------------*\
| =========                 |                                                 |
| \\      /  F ield         | OpenFOAM: The Open Source CFD Toolbox           |
|  \\    /   O peration     | Version:  5.x                                   |
|   \\  /    A nd           | Web:      www.OpenFOAM.org                      |
|    \\/     M anipulation  |                                                 |
\*---------------------------------------------------------------------------*/
FoamFile
{
    version     2.0;
    format      ascii;
    class       volScalarField;
    location    "0.042";
    object      interFace;
}
// * * * * * * * * * * * * * * * * * * * * * * * * * * * * * * * * * * * * * //

dimensions      [0 0 0 0 0 0 0];

internalField   nonuniform List<scalar> 
1595
(
0
0
0
0
0
0
0
0
0
0
0
0
0
0
0
0
0
0
0
0
0
0
0
0
0
0
0
0
0
0
0
0
0
0
0
0
0
0
0
0
0
0
0
0
0
0
0
0
0
0
0
0
0
0
0
0
0
0
0
0
0
0
0
0
0
0
0
0
0
0
0
0
0
0
0
0
0
0
0
0
0
0
0
0
0
0
0
0
0
0
0
0
0
0
0
0
0
0
0
0
0
0
0
0
0
0
0
0
0
0
0
0
0
0
0
0
0
0
0
0
0
0
0
0
0
0
0
0
0
0
0
0
0
0
0
0
0
0
0
0
0
0
0
0
0
0
0
0
0
0
0
0
0
0
0
0
0
0
0
0
0
0
0
0
0
0
0
0
0
0
0
0
0
0
0
0
0
0
0
0
0
0
0
0
0
0
0
0
0
0
0
0
0
0
0
0
0
0
0
0
0
0
0
0
0
0
0
0
0
0
0
0
0
0
0
0
0
0
0
0
0
0
0
0
0
0
0
0
0
0
0
0
0
0
0
0
0
0
0
0
0
0
0
0
0
0
0
0
0
0
0
0
0
0
0
0
0
0
0
0
0
0
0
0
0
0
0
0
0
0
0
0
0
0
0
0
0
0
0
0
0
0
0
0
0
0
0
0
0
0
0
0
0
0
0
0
0
0
0
0
0
0
0
0
0
0
0
0
0
0
0
0
0
0
0
0
0
0
0
0
0
0
0
0
0
0
0
0
0
0
0
0
0
0
0
0
0
0
0
0
0
0
0
0
0
0
0
0
0
0
0
0
0
0
0
0
0
0
0
0
0
0
0
0
0
0
0
0
0
0
0
0
0
0
0
0
0
0
0
0
0
0
0
0
0
0
0
0
0
0
0
0
0
0
0
0
0
0
0
0
0
0
0
0
0
0
0
0
0
0
0
0
0
0
0
0
0
0
0
0
0
0
0
0
0
0
0
0
0
0
0
0
0
0
0
0
0
0
0
0
0
0
0
0
0
0
0
0
0
0
0
0
0
0
0
0
0
0
0
0
0
0
0
0
0
0
0
0
0
0
0
0
0
0
0
0
0
0
0
0
0
0
0
0
0
0
0
0
0
0
0
0
0
0
0
0
0
0
0
0
0
0
0
0
0
0
0
0
0
0
0
0
0
0
0
0
0
0
0
0
0
0
0
0
0
0
0
0
0
0
0
0
0
0
0
0
0
0
0
0
0
0
0
0
0
0
0
0
0
0
0
0
0
0
0
0
0
0
0
0
0
0
0
0
0
0
0
0
0
0
0
0
0
0
0
0
0
0
0
0
0
0
0
0
0
0
0
0
0
0
0
0
0
0
0
0
0
0
0
0
0
0
0
0
0
0
0
0
0
0
0
0
0
0
0
0
0
0
0
0
0
0
0
0
0
0
0
0
0
0
0
0
0
0
0
0
0
0
0
0
0
0
0
0
0
0
0
0
0
0
0
0
0
0
0
0
0
0
0
0
0
0
0
0
0
0
0
0
0
0
0
0
0
0
0
0
0
0
0
0
0
0
0
0
0
0
0
0
0
0
0
0
0
0
0
0
0
0
0
0
0
0
0
0
0
0
0
0
0
0
0
0
0
0
0
0
0
0
0
0
0
0
0
0
0
0
0
0
0
0.542921
0
0
0
0
0.953646
0
0
0
0
0
0
0
0
0
0
0
0
0
0
0
0
0
0
0
0.287523
0
0
0
0
0.735766
0
0
0
0
0
0
0
0
0
0
0
0
0
0
0
0
0
0
0
0.749253
0
0
0
0
0
0
0
0
0
0
0
0
0
0
0
0
0
0
0
0
0
0
0
0
0.832946
0
0
0
0
0
0
0
0
0
0
0
0
0
0
0
0
0
0
0
0
0
0
0
0
0.301043
0
0
0
0
0.749295
0
0
0
0
0
0
0
0
0
0
0
0
0
0
0
0
0
0
0
0.48627
0
0
0
0
0
0
0
0
0
0
0
0
0
0
0
0
0
0
0
0
0
0
0
0
0
0
0
0
0
0
0
0
0
0
0
0
0
0
0
0
0
0
0
0
0
0
0
0
0
0
0
0
0
0
0
0
0
0
0
0
0
0
0
0
0
0
0
0
0
0
0
0
0
0
0
0
0
0
0
0
0
0
0
0
0
0
0
0
0
0
0
0
0
0
0
0
0
0
0
0
0
0
0
0
0
0
0
0
0
0
0
0
0
0
0
0
0
0
0
0
0
0
0
0
0
0
0
0
0
0
0
0
0
0
0
0
0
0
0
0
0
0
0
0
0
0.466796
0
0.735748
0
0.745863
0
0.973897
0.0186261
0.556474
0.287577
0.56659
0.297693
0.835541
0.566644
0.466869
0
0
0.973933
0.745936
0
0
0
0
0
0
0
0
0
0.480357
0.980677
0.749308
0
0.98202
0
0
0
0
0
0
0
0
0
0.564056
0.850531
0.833014
0.366788
0.0978989
0.635746
0.366857
0.480314
0
0.749272
0
0.552003
0
0.820961
0.0321541
0.570001
0.301112
0.372732
0.103843
0.64169
0.372801
0.480406
0
0
0.820984
0.552095
0
0
0.862374
0
0
0
0
0
0
0.21738
0.755228
0.486338
0.910189
0.730929
0
0.910234
0.862465
0
0
0
0
0
0
0.887114
0.614801
0.794083
0.976737
0.65963
0
0.842285
0.555009
0.351819
0.531102
0.644628
0.396651
0.68946
0.510177
0.339124
0.428747
0.432137
0.61142
0.473577
0.476967
0.294294
0.249492
0.15985
0.342505
0.342523
0.387335
0.204662
0.20468
0.428775
0.697698
0.70107
0.701088
0.563227
0.563246
0.566617
0.339142
0.428802
0.432173
0.611456
0.473613
0.476985
0.294331
0.797482
0.525168
0.525186
0.707841
0.569998
0.752652
0.75267
0.887133
0.614837
0.79412
0.976792
0.659649
0
0.842321
0.214397
0.304015
0.238282
0.417564
0.348848
0.283114
0.169565
0.124767
0.0351262
0.148652
0.148675
0.193484
0.0799354
0.0799582
0.21442
0.304084
0.238328
0.41761
0.348893
0.283137
0.169611
0.46538
0.26219
0.262212
0.375738
0.307022
0.420548
0.42057
0.644662
0.620754
0.620777
0.913585
0.486304
0.779112
0.779135
0.555032
0.351865
0.531147
0.644696
0.396674
0.689505
0.510223
0.274024
0.811872
0.542976
0.284142
0.0152449
0.553093
0.284196
0.15647
0.0634379
0.063456
0.0668279
0.108268
0.11164
0.111658
0.246102
0.15307
0.332353
0.335725
0.1979
0.380555
0.201272
0.876944
0.608021
0.969957
0.790693
0.65285
0
0.832114
0.24612
0.153106
0.332389
0.335779
0.197918
0.380591
0.201308
0.877017
0.608093
0.790748
0.970048
0.652905
0
0.832205
0.30405
0.572973
0.507217
0.50724
0.4385
0.438523
0.372767
0.335752
0.422003
0.422021
0.604676
0.28755
0.470205
0.470223
0.100871
0.0769633
0.0769862
0.0112299
0.121795
0.0560391
0.0560619
0
0
0
0
0
0
0
0.190501
0.166593
0.345875
0.280119
0.211425
0.324951
0.145669
0.75221
0.483286
0.776095
0.596835
0.528118
0.820927
0.707378
0.190524
0.166639
0.345921
0.280188
0.211448
0.324997
0.145715
0.752301
0.483378
0.596904
0.776209
0.528187
0.821018
0.707492
0.0600566
0.0600748
0.104887
0.146326
0.0566842
0.101496
0.101514
0.722195
0
0.953609
0
0.463415
0
0.732366
0.722267
0
0
0.732384
0.463488
0
0
0.783922
0.69089
0.511626
0.514998
0.73572
0.559828
0.739092
0.783994
0.511681
0.690981
0.515071
0.735793
0.559882
0.739183
0.149689
0.328972
0.194519
0.235958
0.325581
0.370411
0.191128
0.149725
0.329008
0.194537
0.235976
0.325635
0.370447
0.191164
0.280154
0.435528
0.435551
0.549077
0.301078
0.414604
0.414627
0.418622
0.41864
0.284169
0.325608
0.594532
0.460061
0.460079
0
0
0
0
0
0
0
0.841862
0.752244
0.686488
0
0.617771
0.976335
0.910579
0.841931
0.752267
0.686533
0
0.617817
0.976381
0.910648
0.298105
0.208464
0.142708
0.142731
0.18754
0.253273
0.253296
0.873627
0.601313
0.959878
0.783968
0.825425
0.649515
0
0.873572
0.601277
0.959842
0.783949
0.825371
0.649478
0
0
0
0
0
0.546059
0
0.898301
0
0
0
0.898347
0.54615
0
0
0.387735
0.477353
0.232338
0.41162
0.522186
0.27717
0.342903
0.387758
0.477422
0.232384
0.411666
0.522231
0.277193
0.342949
0.728313
0.704406
0.525146
0.45939
0.749238
0.504222
0.683481
0.728405
0.525215
0.70452
0.459481
0.749329
0.504291
0.683596
0
0
0
0.767564
0.449925
0.946864
0.7676
0.232586
0.318836
0.318854
0.142944
0.363666
0.187756
0.187774
0.322218
0.408468
0.587751
0.411841
0.453298
0.456671
0.277388
0.322236
0.408505
0.587787
0.411895
0.453316
0.456707
0.277424
0.687509
0.508245
0.732339
0.504854
0.549684
0.773778
0.728948
0.508299
0.6876
0.732411
0.504927
0.549739
0.773851
0.729039
0.477388
0.746311
0.501273
0.501296
0.611838
0.611861
0.366823
0.411868
0.677401
0.67742
0.680792
0.542949
0.546321
0.546339
0.818035
0.614845
0.973409
0.728371
0.838959
0.59392
0.952485
0.817966
0.614799
0.973363
0.728348
0.83889
0.593875
0.952439
0.453491
0.608866
0.608888
0.36385
0.653698
0.408659
0.408682
0
0
0
0
0
0
0
0.597895
0.95646
0.821989
0.773806
0.639335
0.863429
0.9979
0.597932
0.956496
0.822044
0.773824
0.639371
0.863483
0.997936
0.656624
0.77015
0.590891
0.701456
0.814982
0.925548
0.880716
0.656716
0.59096
0.770265
0.701525
0.815074
0.925639
0.88083
0.543121
0.698495
0.877778
0.632739
0.743327
0.677571
0.498289
0.543144
0.698541
0.877823
0.632808
0.74335
0.677617
0.498335
0.494737
0.494755
0.539567
0.760288
0.670647
0.715458
0.715477
0
0
0
0
0
0
0
0
0
0
0
0
0
0
0.767024
0.591114
0.635944
0.860038
0.946288
0.991118
0.815208
0.767079
0.591187
0.635998
0.86011
0.946379
0.991191
0.815299
)
;

boundaryField
{
    inlet
    {
        type            calculated;
        value           uniform 0;
    }
    wall
    {
        type            calculated;
        value           uniform 0;
    }
    outlet
    {
        type            calculated;
        value           uniform 0;
    }
    procBoundary2to0
    {
        type            processor;
        value           uniform 0;
    }
    procBoundary2to3
    {
        type            processor;
        value           uniform 0;
    }
}


// ************************************************************************* //
