/*--------------------------------*- C++ -*----------------------------------*\
| =========                 |                                                 |
| \\      /  F ield         | OpenFOAM: The Open Source CFD Toolbox           |
|  \\    /   O peration     | Version:  5.x                                   |
|   \\  /    A nd           | Web:      www.OpenFOAM.org                      |
|    \\/     M anipulation  |                                                 |
\*---------------------------------------------------------------------------*/
FoamFile
{
    version     2.0;
    format      ascii;
    class       volVectorField;
    location    "0.042";
    object      U;
}
// * * * * * * * * * * * * * * * * * * * * * * * * * * * * * * * * * * * * * //

dimensions      [0 1 -1 0 0 0 0];

internalField   nonuniform List<vector> 
1595
(
(-7.23632e-06 -7.63186e-08 0.000912377)
(-7.16054e-06 -1.55018e-07 0.000908191)
(-4.42311e-06 -2.18289e-07 0.000909851)
(-4.44122e-06 -2.51661e-07 0.000907687)
(-2.84503e-07 -2.91451e-07 0.000908437)
(-7.25315e-06 3.84423e-06 0.000911598)
(-7.19315e-06 3.86519e-06 0.000907438)
(-4.45123e-06 3.84618e-06 0.000909092)
(-4.46877e-06 3.86213e-06 0.000906951)
(-3.05689e-07 3.84296e-06 0.00090769)
(-7.2144e-06 3.84954e-06 0.000913393)
(-7.15853e-06 3.88946e-06 0.000909306)
(-4.42617e-06 3.8809e-06 0.000910976)
(-4.44443e-06 3.90933e-06 0.000908881)
(-2.97348e-07 3.89938e-06 0.000909634)
(-7.21176e-06 6.49574e-06 0.000911755)
(-7.16175e-06 6.56715e-06 0.00090768)
(-4.43136e-06 6.56968e-06 0.000909339)
(-4.45029e-06 6.61755e-06 0.000907251)
(-3.05571e-07 6.61631e-06 0.000907995)
(-7.14095e-06 6.69461e-06 0.000915466)
(-7.08457e-06 6.76541e-06 0.000911461)
(-4.37578e-06 6.77393e-06 0.000913131)
(-4.39782e-06 6.82259e-06 0.000911083)
(-2.85211e-07 6.82795e-06 0.000911836)
(-3.29213e-06 -1.95352e-07 -0.000159063)
(-4.46058e-06 -3.00138e-08 -0.000159604)
(-3.439e-06 3.35004e-08 -0.000160204)
(-2.94761e-06 1.21923e-07 -0.000160638)
(-9.64329e-07 1.69036e-07 -0.000160959)
(-3.26323e-06 1.99874e-06 -0.000158802)
(-4.41783e-06 2.08659e-06 -0.000159339)
(-3.40705e-06 2.11707e-06 -0.000159931)
(-2.91717e-06 2.17286e-06 -0.000160365)
(-9.35908e-07 2.19781e-06 -0.000160681)
(-3.20151e-06 2.6336e-06 -0.000158354)
(-4.34216e-06 2.70956e-06 -0.000158888)
(-3.35272e-06 2.73272e-06 -0.000159477)
(-2.86688e-06 2.78185e-06 -0.000159913)
(-9.08649e-07 2.80018e-06 -0.000160228)
(-3.1851e-06 3.72306e-06 -0.000157797)
(-4.31866e-06 3.78563e-06 -0.000158327)
(-3.33475e-06 3.80403e-06 -0.000158914)
(-2.84972e-06 3.84717e-06 -0.000159347)
(-8.96269e-07 3.8619e-06 -0.000159661)
(-3.13723e-06 2.83512e-06 -0.000157226)
(-4.26117e-06 2.883e-06 -0.000157748)
(-3.29119e-06 2.89412e-06 -0.000158331)
(-2.80901e-06 2.92776e-06 -0.000158761)
(-8.80446e-07 2.93597e-06 -0.000159074)
(-7.90438e-06 1.37286e-07 0.000518095)
(-8.43272e-06 8.30691e-08 0.000513319)
(-5.55465e-06 5.38707e-08 0.000513391)
(-5.27935e-06 1.92415e-08 0.000510497)
(-6.22176e-07 -6.43829e-09 0.000510524)
(-7.91609e-06 4.62364e-06 0.000518025)
(-8.45342e-06 4.65259e-06 0.000513253)
(-5.57416e-06 4.64442e-06 0.000513317)
(-5.30039e-06 4.66081e-06 0.000510429)
(-6.40703e-07 4.64766e-06 0.000510449)
(-7.87432e-06 4.94175e-06 0.000520687)
(-8.41189e-06 4.98843e-06 0.000515965)
(-5.54643e-06 4.98684e-06 0.000516034)
(-5.27611e-06 5.01584e-06 0.00051318)
(-6.39837e-07 5.00921e-06 0.000513204)
(-7.86789e-06 7.74562e-06 0.000520575)
(-8.40828e-06 7.83088e-06 0.000515866)
(-5.54675e-06 7.8394e-06 0.000515932)
(-5.27803e-06 7.89371e-06 0.000513085)
(-6.46521e-07 7.89489e-06 0.000513106)
(-7.78673e-06 7.3868e-06 0.000525037)
(-8.31809e-06 7.46795e-06 0.00052041)
(-5.48362e-06 7.4794e-06 0.000520489)
(-5.22064e-06 7.53282e-06 0.000517694)
(-6.33524e-07 7.5384e-06 0.000517723)
(-8.1899e-06 -2.56827e-07 0.000165237)
(-9.16755e-06 -1.19594e-07 0.000160533)
(-6.26216e-06 -8.97432e-08 0.000159859)
(-5.81559e-06 3.41395e-10 0.00015689)
(-9.91798e-07 2.64553e-08 0.000156505)
(-8.15626e-06 4.59106e-06 0.000165478)
(-9.12742e-06 4.73329e-06 0.000160791)
(-6.23244e-06 4.76109e-06 0.000160123)
(-5.78667e-06 4.85615e-06 0.000157166)
(-9.74129e-07 4.87828e-06 0.000156785)
(-8.0437e-06 5.18512e-06 0.000168222)
(-8.99745e-06 5.32373e-06 0.000163599)
(-6.1393e-06 5.34822e-06 0.000162946)
(-5.69841e-06 5.43939e-06 0.00016003)
(-9.37344e-07 5.45828e-06 0.000159658)
(-8.01396e-06 8.07565e-06 0.000168784)
(-8.96427e-06 8.23276e-06 0.000164182)
(-6.11677e-06 8.2613e-06 0.000163533)
(-5.67661e-06 8.3644e-06 0.000160631)
(-9.27592e-07 8.38405e-06 0.000160263)
(-7.8826e-06 7.41326e-06 0.000173215)
(-8.81178e-06 7.54462e-06 0.000168709)
(-6.00769e-06 7.56957e-06 0.000168079)
(-5.57567e-06 7.65652e-06 0.000165236)
(-8.97331e-07 7.67312e-06 0.000164877)
(-1.27394e-05 2.75969e-07 0.000297746)
(-1.38115e-05 2.60617e-07 0.000289496)
(-9.19776e-06 2.47123e-07 0.000288729)
(-8.63352e-06 2.33552e-07 0.000283602)
(-1.05268e-06 2.15314e-07 0.000283182)
(-1.27337e-05 7.60857e-06 0.000298054)
(-1.38095e-05 7.71831e-06 0.000289814)
(-9.19949e-06 7.73098e-06 0.000289042)
(-8.63779e-06 7.80014e-06 0.00028392)
(-1.06832e-06 7.80087e-06 0.000283496)
(-1.26268e-05 8.24805e-06 0.000302863)
(-1.3689e-05 8.37948e-06 0.000294728)
(-9.11593e-06 8.39717e-06 0.000293971)
(-8.56363e-06 8.48096e-06 0.000288912)
(-1.06157e-06 8.48652e-06 0.000288496)
(-1.25989e-05 1.27401e-05 0.000303519)
(-1.36603e-05 1.29415e-05 0.000295415)
(-9.09802e-06 1.29735e-05 0.000294656)
(-8.54844e-06 1.31011e-05 0.000289613)
(-1.06516e-06 1.31154e-05 0.000289194)
(-1.24206e-05 1.19452e-05 0.000311292)
(-1.34557e-05 1.21235e-05 0.000303373)
(-8.95635e-06 1.21546e-05 0.000302646)
(-8.42169e-06 1.22687e-05 0.000297718)
(-1.04562e-06 1.22845e-05 0.000297316)
(-1.66618e-05 7.31803e-08 0.000290587)
(-1.81867e-05 1.79877e-07 0.000279724)
(-1.21564e-05 1.93763e-07 0.000278423)
(-1.13636e-05 2.66927e-07 0.000271599)
(-1.4694e-06 2.7772e-07 0.000270861)
(-1.66179e-05 9.70827e-06 0.000291069)
(-1.81416e-05 9.9658e-06 0.000280241)
(-1.21265e-05 1.00032e-05 0.000278948)
(-1.13329e-05 1.01664e-05 0.00027215)
(-1.46329e-06 1.01926e-05 0.000271419)
(-1.63978e-05 1.06503e-05 0.000297324)
(-1.78917e-05 1.09249e-05 0.000286681)
(-1.19557e-05 1.0962e-05 0.00028543)
(-1.11742e-05 1.11324e-05 0.000278762)
(-1.42198e-06 1.11561e-05 0.000278055)
(-1.63364e-05 1.65066e-05 0.00029839)
(-1.78298e-05 1.68799e-05 0.000287806)
(-1.1919e-05 1.69386e-05 0.000286565)
(-1.11389e-05 1.71731e-05 0.000279939)
(-1.41652e-06 1.72067e-05 0.000279238)
(-1.6015e-05 1.53988e-05 0.000308516)
(-1.74596e-05 1.57201e-05 0.000298215)
(-1.16626e-05 1.57783e-05 0.00029703)
(-1.09062e-05 1.59829e-05 0.000290587)
(-1.36884e-06 1.60167e-05 0.000289918)
(-2.39054e-05 6.35982e-07 0.000221941)
(-2.59787e-05 6.66634e-07 0.000205915)
(-1.73228e-05 6.64595e-07 0.000204085)
(-1.61954e-05 6.82076e-07 0.000194157)
(-1.878e-06 6.68255e-07 0.000193163)
(-2.38636e-05 1.43446e-05 0.000222707)
(-2.59334e-05 1.46756e-05 0.000206722)
(-1.72906e-05 1.47373e-05 0.000204881)
(-1.61671e-05 1.49638e-05 0.000194968)
(-1.89106e-06 1.4995e-05 0.000193968)
(-2.35668e-05 1.5569e-05 0.00023195)
(-2.55858e-05 1.5945e-05 0.00021626)
(-1.70346e-05 1.60135e-05 0.00021446)
(-1.59378e-05 1.62697e-05 0.000204695)
(-1.86302e-06 1.6306e-05 0.000203713)
(-2.3479e-05 2.3936e-05 0.000233543)
(-2.54889e-05 2.44783e-05 0.000217939)
(-1.69658e-05 2.4577e-05 0.000216134)
(-1.58745e-05 2.49286e-05 0.00020641)
(-1.86035e-06 2.49807e-05 0.000205417)
(-2.30126e-05 2.23609e-05 0.00024845)
(-2.49449e-05 2.28274e-05 0.000233345)
(-1.65844e-05 2.29169e-05 0.000231628)
(-1.55341e-05 2.32174e-05 0.000222207)
(-1.81213e-06 2.3265e-05 0.00022126)
(-3.31315e-05 8.11972e-07 0.000297373)
(-3.60477e-05 9.30942e-07 0.000275163)
(-2.39148e-05 9.27639e-07 0.000272437)
(-2.22858e-05 9.96009e-07 0.000258422)
(-2.551e-06 9.90716e-07 0.000256893)
(-3.30449e-05 1.97173e-05 0.000298431)
(-3.59723e-05 2.03113e-05 0.000276313)
(-2.38811e-05 2.03783e-05 0.000273609)
(-2.22459e-05 2.0705e-05 0.000259657)
(-2.55835e-06 2.07431e-05 0.000258137)
(-3.25227e-05 2.14871e-05 0.00031102)
(-3.53866e-05 2.21424e-05 0.000289424)
(-2.35211e-05 2.22156e-05 0.00028684)
(-2.19211e-05 2.25749e-05 0.00027331)
(-2.50483e-06 2.26051e-05 0.00027185)
(-3.23731e-05 3.30106e-05 0.000313229)
(-3.52436e-05 3.39695e-05 0.000291798)
(-2.34486e-05 3.41112e-05 0.000289239)
(-2.18565e-05 3.46895e-05 0.00027583)
(-2.51325e-06 3.47591e-05 0.000274395)
(-3.15412e-05 3.07259e-05 0.000333596)
(-3.42859e-05 3.15578e-05 0.000312937)
(-2.28012e-05 3.17061e-05 0.000310542)
(-2.12734e-05 3.22214e-05 0.000297654)
(-2.42012e-06 3.23036e-05 0.000296308)
(-4.67437e-05 1.54287e-06 0.000217368)
(-5.09211e-05 1.66487e-06 0.000185447)
(-3.40639e-05 1.68563e-06 0.00018154)
(-3.17387e-05 1.76471e-06 0.000162048)
(-3.55621e-06 1.75523e-06 0.000159949)
(-4.66087e-05 2.79924e-05 0.000219034)
(-5.07615e-05 2.89364e-05 0.000187253)
(-3.39461e-05 2.91406e-05 0.000183296)
(-3.16396e-05 2.9852e-05 0.00016384)
(-3.56265e-06 2.99521e-05 0.000161738)
(-4.578e-05 3.03666e-05 0.000237047)
(-4.97727e-05 3.14305e-05 0.000206064)
(-3.31484e-05 3.16429e-05 0.000202212)
(-3.09272e-05 3.2443e-05 0.000182998)
(-3.47698e-06 3.25638e-05 0.000180935)
(-4.55223e-05 4.65176e-05 0.000240454)
(-4.9485e-05 4.79973e-05 0.000209711)
(-3.29337e-05 4.82849e-05 0.000205856)
(-3.07187e-05 4.92788e-05 0.000186742)
(-3.45152e-06 4.94444e-05 0.000184624)
(-4.42675e-05 4.33217e-05 0.000269539)
(-4.80054e-05 4.45765e-05 0.00024014)
(-3.18671e-05 4.48341e-05 0.000236527)
(-2.97679e-05 4.56655e-05 0.00021822)
(-3.31664e-06 4.58046e-05 0.000216248)
(-6.59546e-05 2.37315e-06 0.000238447)
(-7.18848e-05 2.61317e-06 0.000194033)
(-4.73134e-05 2.55574e-06 0.000188258)
(-4.38777e-05 2.64768e-06 0.000159773)
(-4.80224e-06 2.63515e-06 0.000156487)
(-6.57246e-05 3.93972e-05 0.000240778)
(-7.17202e-05 4.09288e-05 0.000196601)
(-4.72943e-05 4.10496e-05 0.000190918)
(-4.38039e-05 4.16551e-05 0.000162609)
(-4.81273e-06 4.17299e-05 0.000159332)
(-6.43851e-05 4.29071e-05 0.000265296)
(-7.0232e-05 4.46007e-05 0.000222584)
(-4.65871e-05 4.47752e-05 0.000217246)
(-4.31973e-05 4.54775e-05 0.00019045)
(-4.72206e-06 4.54913e-05 0.000187345)
(-6.3988e-05 6.55114e-05 0.0002699)
(-6.98517e-05 6.80547e-05 0.000227641)
(-4.64174e-05 6.84367e-05 0.000222301)
(-4.30878e-05 6.99217e-05 0.000195859)
(-4.7896e-06 7.00817e-05 0.000192852)
(-6.17814e-05 6.06499e-05 0.000309632)
(-6.73066e-05 6.28565e-05 0.00026944)
(-4.47206e-05 6.32553e-05 0.000264549)
(-4.15527e-05 6.45963e-05 0.000239573)
(-4.55104e-06 6.48281e-05 0.000236803)
(-9.24403e-05 3.66551e-06 0.000229364)
(-0.000101124 4.01551e-06 0.000165355)
(-6.83236e-05 4.12297e-06 0.000156882)
(-6.351e-05 4.37179e-06 0.000119173)
(-7.08575e-06 4.36897e-06 0.000114444)
(-9.20625e-05 5.48413e-05 0.000233051)
(-0.000100636 5.74872e-05 0.000169477)
(-6.79378e-05 5.81288e-05 0.000160805)
(-6.32257e-05 6.05291e-05 0.000123141)
(-7.08234e-06 6.08106e-05 0.000118701)
(-8.97418e-05 5.94889e-05 0.000268347)
(-9.78362e-05 6.24705e-05 0.000206776)
(-6.52818e-05 6.30263e-05 0.000198344)
(-6.08282e-05 6.56924e-05 0.000160327)
(-6.82591e-06 6.60835e-05 0.000155927)
(-8.90202e-05 9.08668e-05 0.000275737)
(-9.70977e-05 9.48675e-05 0.000214807)
(-6.47159e-05 9.56009e-05 0.000206445)
(-6.01685e-05 9.84154e-05 0.000168654)
(-6.70489e-06 9.8916e-05 0.000164034)
(-8.56545e-05 8.42446e-05 0.000332613)
(-9.3102e-05 8.76103e-05 0.000275221)
(-6.17346e-05 8.83269e-05 0.000267504)
(-5.75137e-05 9.06524e-05 0.000231734)
(-6.33685e-06 9.10343e-05 0.000227558)
(-0.000131806 5.85333e-06 0.000133159)
(-0.000144387 6.5158e-06 4.41355e-05)
(-9.3495e-05 6.25458e-06 3.14881e-05)
(-8.63152e-05 6.38594e-06 -2.65338e-05)
(-9.78405e-06 6.6442e-06 -3.35253e-05)
(-0.000131129 7.83802e-05 0.000138667)
(-0.000143987 8.23503e-05 5.03482e-05)
(-9.36293e-05 8.2511e-05 3.77155e-05)
(-8.59078e-05 8.28087e-05 -1.98817e-05)
(-9.49561e-06 8.3213e-05 -2.72092e-05)
(-0.000127734 8.55928e-05 0.000186166)
(-0.000140255 8.99309e-05 0.000101925)
(-9.30366e-05 9.04155e-05 9.0317e-05)
(-8.56132e-05 9.09898e-05 3.6973e-05)
(-9.35925e-06 9.08243e-05 3.00732e-05)
(-0.000126675 0.000129796 0.000196471)
(-0.000139163 0.000136519 0.000113465)
(-9.25704e-05 0.000137616 0.000101499)
(-8.5499e-05 0.000141349 4.91731e-05)
(-9.65289e-06 0.000141732 4.22923e-05)
(-0.000120847 0.000119197 0.00027317)
(-0.000132435 0.000125024 0.000195746)
(-8.82076e-05 0.000126089 0.000185005)
(-8.14988e-05 0.000129503 0.000136779)
(-8.96386e-06 0.000130191 0.000130617)
(-0.000184073 8.86275e-06 0.000215284)
(-0.000202825 9.89226e-06 8.57621e-05)
(-0.000138993 1.0009e-05 6.38338e-05)
(-0.000128524 1.06602e-05 -1.82792e-05)
(-1.44422e-05 1.03271e-05 -3.0825e-05)
(-0.000182973 0.00010785 0.00022466)
(-0.000201618 0.000115277 9.60328e-05)
(-0.000138168 0.000116958 7.45862e-05)
(-0.000128151 0.000124037 -6.37129e-06)
(-1.48017e-05 0.00012441 -1.90451e-05)
(-0.000176503 0.000117293 0.000295871)
(-0.000193715 0.000125588 0.000172833)
(-0.000130234 0.00012681 0.000152723)
(-0.000121073 0.000134747 7.37455e-05)
(-1.41156e-05 0.000135585 6.22207e-05)
(-0.000174513 0.000177897 0.000312694)
(-0.000192099 0.000188718 0.000191428)
(-0.000129009 0.000190319 0.000172362)
(-0.000119376 0.000198252 9.47513e-05)
(-1.39911e-05 0.00019949 8.37111e-05)
(-0.00016545 0.000163309 0.000423866)
(-0.000181293 0.000172372 0.000311831)
(-0.000120702 0.000174347 0.000294511)
(-0.000111903 0.000180844 0.000222471)
(-1.29057e-05 0.000181962 0.000212271)
(-0.000265118 1.48591e-05 -2.99156e-05)
(-0.000295878 1.64147e-05 -0.000195035)
(-0.000197534 1.66043e-05 -0.00022706)
(-0.000180973 1.78825e-05 -0.000329366)
(-2.27129e-05 1.80109e-05 -0.000348507)
(-0.000263504 0.000158966 -1.60326e-05)
(-0.000294101 0.00016942 -0.000180445)
(-0.000196031 0.000171398 -0.000211233)
(-0.000179538 0.000174832 -0.000312223)
(-2.25904e-05 0.000176257 -0.000330259)
(-0.000254369 0.000173625 7.75257e-05)
(-0.000283442 0.000185324 -8.48975e-05)
(-0.000192121 0.000188189 -0.000113581)
(-0.000176114 0.00019211 -0.000212263)
(-2.1288e-05 0.000193578 -0.000229023)
(-0.000251473 0.000257829 0.000102358)
(-0.000279533 0.000275555 -5.81245e-05)
(-0.000189245 0.000279444 -8.55231e-05)
(-0.000174149 0.000290115 -0.000182062)
(-2.10851e-05 0.000291823 -0.000197563)
(-0.000236203 0.000233683 0.00024762)
(-0.000261827 0.000248952 0.000101259)
(-0.000177566 0.000251829 7.57965e-05)
(-0.000163739 0.000260964 -1.89499e-05)
(-1.95448e-05 0.000262536 -3.36989e-05)
(-0.000354483 2.22695e-05 0.000147403)
(-0.000400039 2.40179e-05 -0.000110137)
(-0.000273326 2.53672e-05 -0.000168937)
(-0.000249974 2.73079e-05 -0.000335085)
(-3.41259e-05 2.80363e-05 -0.000370365)
(-0.000352622 0.000215293 0.000169208)
(-0.000396886 0.000225419 -8.30528e-05)
(-0.000269949 0.000230441 -0.000139428)
(-0.00024718 0.000241143 -0.000302512)
(-3.33843e-05 0.000243896 -0.000336198)
(-0.000343981 0.000235684 0.000307258)
(-0.000384887 0.00024791 6.44223e-05)
(-0.000257602 0.000252522 1.36606e-05)
(-0.000236519 0.000264911 -0.000140784)
(-3.14625e-05 0.000268284 -0.000171444)
(-0.000339956 0.000348044 0.000347677)
(-0.000380042 0.000374937 0.000111896)
(-0.000252949 0.000379761 6.37212e-05)
(-0.00023142 0.000391633 -8.50905e-05)
(-3.01049e-05 0.000394884 -0.000113335)
(-0.000316452 0.000313202 0.000562494)
(-0.00035317 0.000336706 0.000346319)
(-0.000240912 0.000340711 0.000305178)
(-0.000221401 0.000349182 0.000165921)
(-2.83415e-05 0.000351105 0.000142774)
(-0.000530465 3.61054e-05 -0.000264798)
(-0.000612301 4.28859e-05 -0.000603691)
(-0.000422476 4.54764e-05 -0.000689078)
(-0.000382399 4.9825e-05 -0.000906571)
(-5.86365e-05 5.15045e-05 -0.0009586)
(-0.000523448 0.000318817 -0.000233649)
(-0.000602819 0.000343974 -0.000564732)
(-0.000415483 0.00035399 -0.000645971)
(-0.000376305 0.000369129 -0.000858665)
(-5.69525e-05 0.000375176 -0.000907751)
(-0.000504514 0.000352088 -5.11653e-05)
(-0.000577119 0.000380264 -0.000368218)
(-0.000397319 0.000391329 -0.000442337)
(-0.000361213 0.000409525 -0.000647742)
(-5.25868e-05 0.000416435 -0.000692049)
(-0.000494339 0.000513143 3.84753e-06)
(-0.000563566 0.000557528 -0.000302018)
(-0.000386223 0.000571041 -0.000368963)
(-0.0003512 0.000596901 -0.000567237)
(-5.00019e-05 0.000606124 -0.00060743)
(-0.000458866 0.000454977 0.000296221)
(-0.000519221 0.00049045 2.13855e-06)
(-0.000357957 0.000500584 -5.36633e-05)
(-0.000326139 0.000519646 -0.000237624)
(-4.32668e-05 0.000526437 -0.00027008)
(-0.000704202 5.27752e-05 -3.54539e-05)
(-0.00082447 6.22337e-05 -0.000560242)
(-0.000576205 6.76893e-05 -0.00071747)
(-0.000519502 7.43717e-05 -0.00106012)
(-8.70864e-05 7.80135e-05 -0.00116182)
(-0.000694327 0.000428937 1.97873e-05)
(-0.000809358 0.0004609 -0.000489691)
(-0.000563882 0.00047719 -0.000637109)
(-0.000508966 0.000499978 -0.000967703)
(-8.3437e-05 0.000510453 -0.00106157)
(-0.000671186 0.000473183 0.000291481)
(-0.000776203 0.000510628 -0.000194837)
(-0.00053713 0.000529534 -0.000325223)
(-0.000486239 0.000556338 -0.000639182)
(-7.67962e-05 0.000568604 -0.000720985)
(-0.00065567 0.000695539 0.000383685)
(-0.000752989 0.00074543 -7.80226e-05)
(-0.000518172 0.00076858 -0.000195737)
(-0.000469895 0.000801901 -0.000492687)
(-7.13401e-05 0.000817005 -0.000564671)
(-0.000619729 0.000614753 0.000805549)
(-0.000703162 0.000650694 0.000381621)
(-0.000480676 0.000666145 0.000288557)
(-0.000437828 0.000689403 1.45937e-05)
(-6.18673e-05 0.000699265 -4.19593e-05)
(-0.00107148 9.02844e-05 -0.000654696)
(-0.00129449 0.000112459 -0.00135037)
(-0.000922339 0.000124825 -0.00158813)
(-0.000826757 0.000141283 -0.00204581)
(-0.000161323 0.000150726 -0.00220305)
(-0.00104872 0.000645738 -0.000570482)
(-0.00125989 0.000709366 -0.00124325)
(-0.000893477 0.000746231 -0.00146408)
(-0.000800775 0.000790074 -0.00190363)
(-0.000151907 0.000816019 -0.00204737)
(-0.00100575 0.000715963 -0.000229779)
(-0.00119398 0.000791907 -0.000859906)
(-0.000841642 0.000832679 -0.00105643)
(-0.000756969 0.000884523 -0.00146707)
(-0.000135465 0.000913323 -0.00159281)
(-0.000970238 0.00102737 -9.04384e-05)
(-0.00114314 0.00113414 -0.000687915)
(-0.000800861 0.00118498 -0.000860999)
(-0.00072012 0.00125085 -0.00124726)
(-0.00012313 0.00128533 -0.0013561)
(-0.000895474 0.000889502 0.000442988)
(-0.00103637 0.000964265 -9.33144e-05)
(-0.000724961 0.000999775 -0.000234211)
(-0.000656641 0.0010427 -0.000577461)
(-0.000100998 0.00106536 -0.00066366)
(-0.00142272 0.000136061 -0.00043846)
(-0.00175824 0.000168195 -0.00152481)
(-0.00127164 0.000190533 -0.00199373)
(-0.00113443 0.000215131 -0.00274069)
(-0.000245899 0.000232181 -0.00308707)
(-0.00138923 0.000853887 -0.00029378)
(-0.00170328 0.00095138 -0.00132262)
(-0.00122425 0.00100891 -0.00174454)
(-0.00109227 0.00107873 -0.0024411)
(-0.000228847 0.0011207 -0.0027426)
(-0.00132194 0.00095323 0.000231106)
(-0.00160317 0.00106596 -0.000738668)
(-0.00114429 0.00113261 -0.00109845)
(-0.00102264 0.0012127 -0.00174772)
(-0.000204269 0.00125987 -0.00199878)
(-0.00127274 0.00136852 0.000458224)
(-0.00152384 0.00151231 -0.000432751)
(-0.00107751 0.00159111 -0.000739761)
(-0.00096501 0.00169183 -0.00132697)
(-0.000181967 0.00174649 -0.00153106)
(-0.00117379 0.00116591 0.00126373)
(-0.00138058 0.00126485 0.000454895)
(-0.000964827 0.00131352 0.000226833)
(-0.000867309 0.0013813 -0.000301383)
(-0.00014995 0.00141451 -0.000447932)
(-0.00219194 0.000233529 -0.00126498)
(-0.00285021 0.000313241 -0.00269235)
(-0.00213817 0.000372583 -0.00338355)
(-0.00192013 0.000439447 -0.00438195)
(-0.00050917 0.000493737 -0.00489467)
(-0.00211007 0.00131526 -0.0010488)
(-0.00271107 0.00149551 -0.00239315)
(-0.00201191 0.00164152 -0.00301144)
(-0.00179886 0.00178306 -0.00393393)
(-0.000455072 0.00190434 -0.00438304)
(-0.00200576 0.00146789 -0.00041512)
(-0.00252387 0.00168171 -0.00164818)
(-0.00185063 0.00183739 -0.00217698)
(-0.00165731 0.0019986 -0.00301656)
(-0.000388235 0.00212481 -0.00339024)
(-0.00188915 0.00206034 -8.64845e-05)
(-0.00234144 0.00232801 -0.00121063)
(-0.00169501 0.0025106 -0.00164922)
(-0.00151142 0.0026976 -0.0023992)
(-0.000329071 0.00283663 -0.00270007)
(-0.00172872 0.00171939 0.000879141)
(-0.00207361 0.00187982 -9.1326e-05)
(-0.00148116 0.00199657 -0.000420913)
(-0.00133136 0.00210076 -0.00105949)
(-0.000249397 0.00218256 -0.00127786)
(-0.00289879 0.000351081 -0.0012308)
(-0.00387753 0.000465459 -0.0035485)
(-0.00296119 0.000560646 -0.00503844)
(-0.00264563 0.000660529 -0.00675992)
(-0.0007617 0.000741045 -0.00808838)
(-0.00277967 0.00170383 -0.000837048)
(-0.0036666 0.00199559 -0.00293705)
(-0.00276498 0.00221553 -0.00420679)
(-0.00246392 0.00244417 -0.00571037)
(-0.000681142 0.00262522 -0.00676284)
(-0.00259703 0.00191554 0.000159469)
(-0.00336569 0.00224843 -0.00177988)
(-0.00251263 0.00249479 -0.00282189)
(-0.00223594 0.00274737 -0.00421121)
(-0.000581125 0.0029428 -0.00504527)
(-0.00243558 0.00266318 0.000727808)
(-0.00308716 0.00306975 -0.000963091)
(-0.00226604 0.00334784 -0.00178128)
(-0.00201589 0.00364958 -0.00294355)
(-0.000486084 0.00385959 -0.00355735)
(-0.00217745 0.00216466 0.00220202)
(-0.00268103 0.00242279 0.000722618)
(-0.00193299 0.00258379 0.000153069)
(-0.00172434 0.00276705 -0.000848349)
(-0.000371423 0.00288535 -0.00124436)
(-0.00458373 0.000625356 -0.00206326)
(-0.00665892 0.000922614 -0.00500595)
(-0.00534947 0.00120266 -0.00708291)
(-0.00497014 0.00148717 -0.00943633)
(-0.00183945 0.0018183 -0.0112989)
(-0.00427795 0.00270547 -0.00150872)
(-0.00608175 0.0032641 -0.00414718)
(-0.00478509 0.00385809 -0.00590355)
(-0.00435493 0.00433181 -0.00789559)
(-0.0015096 0.00494752 -0.00943427)
(-0.00400697 0.00303255 -0.000368559)
(-0.00550603 0.00365546 -0.00272338)
(-0.00428178 0.00426273 -0.00416284)
(-0.00388071 0.00476528 -0.00591275)
(-0.00122491 0.00533018 -0.00709212)
(-0.00363431 0.00410365 0.000396647)
(-0.00485121 0.00483119 -0.00162315)
(-0.00367527 0.00548635 -0.00272405)
(-0.00328746 0.0060614 -0.00415664)
(-0.000945964 0.0066386 -0.00501583)
(-0.00325425 0.00323966 0.00204741)
(-0.00412333 0.00361971 0.000389097)
(-0.00305193 0.00399271 -0.000376957)
(-0.00272872 0.00426378 -0.00152561)
(-0.000648604 0.00456958 -0.00208218)
(-0.0059461 0.000903682 -0.00259973)
(-0.00889895 0.0013205 -0.00745965)
(-0.00739172 0.00173607 -0.0122922)
(-0.00686202 0.00219591 -0.0166356)
(-0.00263172 0.00259964 -0.0223648)
(-0.0055135 0.00339867 -0.00151325)
(-0.00806299 0.00427822 -0.00562059)
(-0.00651334 0.00513576 -0.00938286)
(-0.00599487 0.00596797 -0.0127333)
(-0.00222707 0.00683239 -0.0166389)
(-0.00503652 0.00382077 0.000364287)
(-0.00716138 0.0047723 -0.00341293)
(-0.00570189 0.00567418 -0.00635283)
(-0.00516539 0.00648627 -0.00938811)
(-0.00176705 0.00736139 -0.0122997)
(-0.00452925 0.0050797 0.00168128)
(-0.00620896 0.00618333 -0.00133209)
(-0.00479936 0.00713512 -0.00341482)
(-0.00430774 0.00803828 -0.00563012)
(-0.00135159 0.0088713 -0.00747178)
(-0.00389501 0.00387456 0.00421149)
(-0.00510595 0.0045088 0.00167347)
(-0.00384755 0.00501543 0.000355991)
(-0.0034297 0.00549333 -0.00152926)
(-0.000933874 0.00592349 -0.0026174)
(-0.00960652 0.00170941 -0.00261118)
(-0.0163537 0.00275867 -0.00872721)
(-0.0145261 0.00411167 -0.0151467)
(-0.0150432 0.00538722 -0.0216128)
(-0.00757275 0.00754876 -0.0292398)
(-0.0085251 0.00566947 -0.00124816)
(-0.0139531 0.00731062 -0.00618443)
(-0.0118979 0.00979748 -0.0112049)
(-0.011611 0.0115793 -0.0156973)
(-0.00541724 0.015013 -0.0215954)
(-0.00790933 0.00622685 0.000707434)
(-0.0122248 0.00794353 -0.00356384)
(-0.0102567 0.0102306 -0.00738771)
(-0.00982766 0.0118686 -0.0112225)
(-0.0041413 0.0144979 -0.0151578)
(-0.00674819 0.0079526 0.00234151)
(-0.00994855 0.00991883 -0.000940176)
(-0.00797286 0.0121969 -0.00356403)
(-0.00734423 0.013922 -0.00620091)
(-0.00279239 0.0163233 -0.00873971)
(-0.00587574 0.0058532 0.00493058)
(-0.00798057 0.00672565 0.00232921)
(-0.00625441 0.00788854 0.00069402)
(-0.0057021 0.00850433 -0.00127616)
(-0.00174346 0.00958671 -0.00263967)
(-0.0122867 0.00226277 -0.00372657)
(-0.0214371 0.00385533 -0.013588)
(-0.02028 0.00566898 -0.0290048)
(-0.0209526 0.00810172 -0.0416448)
(-0.0102965 0.0102371 -0.0694668)
(-0.0106413 0.00671726 -0.000936154)
(-0.0180225 0.00944134 -0.00832295)
(-0.016027 0.0128943 -0.0188537)
(-0.016384 0.016357 -0.0266376)
(-0.00815063 0.0209119 -0.041624)
(-0.00947175 0.00740964 0.00217196)
(-0.015259 0.0100163 -0.00444767)
(-0.0133606 0.0133151 -0.0121245)
(-0.012935 0.0159835 -0.0188625)
(-0.00571857 0.0202197 -0.0290098)
(-0.00794071 0.009303 0.00486121)
(-0.0121162 0.0120781 0.00037604)
(-0.0100599 0.0152194 -0.00445121)
(-0.00948316 0.0179873 -0.00834001)
(-0.00390357 0.021392 -0.0136046)
(-0.00659525 0.00656229 0.00856786)
(-0.00934267 0.00790776 0.00484969)
(-0.00745213 0.00943721 0.0021613)
(-0.00676337 0.0106094 -0.000960589)
(-0.00230845 0.0122478 -0.00374704)
(-0.0198271 0.0044976 -0.000861069)
(-0.0416378 0.00801935 -0.0130622)
(-0.0425964 0.014271 -0.0326354)
(-0.0555107 0.0203968 -0.054622)
(-0.0354801 0.0354597 -0.0909432)
(-0.0161865 0.0115684 0.00221187)
(-0.0318734 0.0164509 -0.00570629)
(-0.0302182 0.0266776 -0.0190895)
(-0.0343768 0.0343571 -0.0289567)
(-0.0204277 0.0554755 -0.0545321)
(-0.0147658 0.0120245 0.00523272)
(-0.0265248 0.0166432 -0.00151229)
(-0.0246742 0.0246357 -0.0106093)
(-0.0267127 0.0301718 -0.0191296)
(-0.0143065 0.0425309 -0.0326576)
(-0.0113987 0.0143521 0.00814575)
(-0.0192629 0.0192181 0.00378561)
(-0.0166896 0.0264861 -0.00151389)
(-0.0164976 0.0318266 -0.00573827)
(-0.00806638 0.0415919 -0.01308)
(-0.00972845 0.00969416 0.0114332)
(-0.0143907 0.0113644 0.0081284)
(-0.012065 0.0147377 0.00521596)
(-0.0116108 0.0161582 0.00217299)
(-0.00454123 0.0198032 -0.000893747)
(-0.0249589 0.00532779 0.00115097)
(-0.0531955 0.011197 -0.0163274)
(-0.0618419 0.0192079 -0.0593609)
(-0.0789919 0.03384 -0.105317)
(-0.0471644 0.046986 -0.254126)
(-0.0189159 0.012809 0.00632034)
(-0.0393203 0.0209853 -0.00411688)
(-0.0392867 0.0348989 -0.0284497)
(-0.0517724 0.0517952 -0.0480305)
(-0.0339246 0.0789288 -0.105199)
(-0.0164988 0.0133406 0.0102993)
(-0.0311013 0.0195091 0.00149085)
(-0.0309784 0.0308912 -0.0140724)
(-0.0349619 0.0392112 -0.0284963)
(-0.0193052 0.0616739 -0.0593839)
(-0.012496 0.0155016 0.0142053)
(-0.0217759 0.0217188 0.00943036)
(-0.0195846 0.0310448 0.00148637)
(-0.0210432 0.0392864 -0.00415146)
(-0.0112737 0.0531399 -0.0163291)
(-0.0100408 0.00999017 0.0177177)
(-0.015558 0.0124454 0.0141899)
(-0.0134046 0.0164487 0.0102913)
(-0.0128711 0.0188769 0.0062937)
(-0.00539702 0.0249047 0.00114525)
(-0.0380592 0.00966814 0.0113154)
(-0.10217 0.020245 -0.00692884)
(-0.131783 0.045348 -0.0636995)
(-0.251536 0.078397 -0.144543)
(-0.189028 0.188848 -0.355754)
(-0.0270802 0.020718 0.0164107)
(-0.0666527 0.0342684 0.00981242)
(-0.0741632 0.0719464 -0.0169801)
(-0.111111 0.11116 -0.0290178)
(-0.0784734 0.251476 -0.143624)
(-0.023944 0.0199123 0.0194333)
(-0.050905 0.0302025 0.0130994)
(-0.0546861 0.0545965 -0.00152346)
(-0.0720047 0.0740822 -0.0170579)
(-0.0454115 0.131599 -0.0636432)
(-0.0163854 0.0217751 0.0221726)
(-0.0319883 0.0319237 0.0198128)
(-0.0302834 0.0508583 0.0130965)
(-0.0343123 0.0666258 0.00977473)
(-0.0202975 0.102142 -0.00691917)
(-0.0134154 0.0133654 0.0242437)
(-0.0218218 0.0163353 0.0221531)
(-0.019964 0.0239121 0.0194218)
(-0.0207581 0.0270594 0.016379)
(-0.00971876 0.0380313 0.0113143)
(-0.0440034 0.0104118 0.0315305)
(-0.12797 0.0279709 0.0219009)
(-0.19596 0.0664367 -0.0233268)
(-0.439967 0.134767 -0.190217)
(-0.511078 0.264563 -0.93029)
(-0.0259969 0.0209151 0.0331857)
(-0.0726605 0.0409472 0.0308968)
(-0.0778046 0.0967893 0.00556896)
(-0.186844 0.187663 -0.0431063)
(-0.152415 0.445228 -0.239006)
(-0.0231823 0.0191022 0.0345482)
(-0.052035 0.0295034 0.032062)
(-0.0611238 0.0609558 0.0242347)
(-0.096798 0.0776911 0.00561938)
(-0.0665263 0.195796 -0.0232338)
(-0.015048 0.0203125 0.034787)
(-0.0308423 0.0307628 0.0353564)
(-0.0296166 0.0519671 0.0320658)
(-0.0409928 0.0726725 0.0308544)
(-0.0280654 0.127858 0.0218916)
(-0.0122623 0.0121917 0.033891)
(-0.0203804 0.0149774 0.0347691)
(-0.0191784 0.0231232 0.0345521)
(-0.0209669 0.0259636 0.0331733)
(-0.0104999 0.0439379 0.0315519)
(-0.0485675 0.0113326 0.0634161)
(-0.153833 0.0293874 0.0914283)
(-0.233614 0.0757415 0.153549)
(-0.759344 0.18127 0.0209329)
(-2.50368 0.449323 -1.22376)
(-0.0297471 0.0237294 0.0564731)
(-0.0940267 0.0443051 0.0688435)
(-0.110163 0.117754 0.101965)
(-0.336236 0.228737 0.142729)
(-0.542066 0.867776 -0.0243782)
(-0.0266848 0.0215162 0.0518092)
(-0.0611886 0.0346551 0.0630547)
(-0.080981 0.0809454 0.0817936)
(-0.117717 0.110146 0.102072)
(-0.0758423 0.233565 0.153561)
(-0.0158962 0.021118 0.0469029)
(-0.0346953 0.0346166 0.0533243)
(-0.0347785 0.0611459 0.0630607)
(-0.0443625 0.0939385 0.0688166)
(-0.0294788 0.153738 0.0913553)
(-0.0125537 0.0124851 0.0427702)
(-0.0211607 0.0158276 0.0468775)
(-0.0215623 0.0266524 0.0518003)
(-0.0237521 0.0297563 0.0564396)
(-0.0114039 0.0485707 0.0634035)
(-0.0159238 0.00349096 0.0960185)
(-0.032713 0.00557211 0.132958)
(-0.0267819 0.0147322 0.282364)
(-0.261421 0.0422291 0.615229)
(0.0135821 -0.040572 -6.0627)
(-0.0136659 0.00937496 0.0809471)
(-0.0266266 0.0127857 0.105774)
(-0.0362989 0.0216852 0.185328)
(-0.104645 0.080335 0.338727)
(-0.238165 0.34552 0.976206)
(-0.0119017 0.00956695 0.0696257)
(-0.0221405 0.0141109 0.0909461)
(-0.021371 0.0213178 0.133129)
(-0.0216799 0.0363024 0.185279)
(-0.0149742 0.0270607 0.282519)
(-0.00854241 0.0112897 0.0594397)
(-0.0147547 0.0146558 0.0718725)
(-0.0142514 0.0220641 0.0909749)
(-0.0129112 0.0265019 0.105772)
(-0.0057232 0.032574 0.132912)
(-0.00807725 0.00798061 0.0501142)
(-0.0113665 0.00844573 0.0594123)
(-0.0096513 0.0118271 0.0696241)
(-0.00942999 0.0136258 0.080909)
(-0.00363612 0.01592 0.096074)
(-0.0100863 -0.00385469 0.0733096)
(0.0284937 0.00211325 0.0846693)
(0.0247675 -0.0256236 0.0991364)
(0.374603 -0.0757328 0.0844444)
(1.53048 -0.376859 -2.92346)
(-0.00410639 -0.00270067 0.0684635)
(0.00751931 0.00260704 0.084027)
(0.0205846 -0.0301136 0.0950949)