FoamFile
{version 2.0; format ascii;class Cloud<passiveParticle>; location 0;object  positions;}
2
(
( 0.499999 0.499999 3.42316 ) 0 
( 0.5 0.5 3.08507 ) 0 
)
