/*--------------------------------*- C++ -*----------------------------------*\
| =========                 |                                                 |
| \\      /  F ield         | OpenFOAM: The Open Source CFD Toolbox           |
|  \\    /   O peration     | Version:  5.x                                   |
|   \\  /    A nd           | Web:      www.OpenFOAM.org                      |
|    \\/     M anipulation  |                                                 |
\*---------------------------------------------------------------------------*/
FoamFile
{
    version     2.0;
    format      ascii;
    class       surfaceScalarField;
    location    "0.09";
    object      phi;
}
// * * * * * * * * * * * * * * * * * * * * * * * * * * * * * * * * * * * * * //

dimensions      [0 3 -1 0 0 0 0];

internalField   nonuniform List<scalar> 
4297
(
-1.67992e-07
-1.65411e-07
-3.299e-07
-1.43619e-09
-1.79814e-07
-3.31576e-07
1.39425e-07
-2.08094e-07
-3.07913e-07
2.50943e-07
-2.17963e-07
-2.78017e-07
-2.47012e-07
-1.38943e-07
-1.82387e-07
6.58198e-10
-3.31347e-07
-1.69559e-08
-1.43743e-08
-3.30959e-07
1.26131e-07
-4.35282e-08
-3.07741e-07
2.38805e-07
-5.42058e-08
-2.76518e-07
-8.42497e-08
-1.4029e-07
-2.10923e-07
1.41079e-07
-3.0742e-07
-4.59201e-08
1.27836e-07
-3.07301e-07
1.00013e-07
1.01704e-07
-2.91253e-07
2.14392e-07
9.20312e-08
-2.60701e-07
6.37325e-08
-1.3294e-07
-2.20697e-07
2.52026e-07
-2.77528e-07
-5.66043e-08
2.39888e-07
-2.76232e-07
9.03613e-08
2.15458e-07
-2.60805e-07
2.05417e-07
2.06474e-07
-2.29583e-07
1.80638e-07
-1.04417e-07
-2.49723e-07
-1.38186e-07
-8.66333e-08
-1.39751e-07
6.20559e-08
-1.32786e-07
1.79577e-07
-1.04171e-07
1.07076e-08
-1.94026e-07
-1.90205e-07
-3.85904e-07
-1.62811e-07
-2.00983e-07
-3.90434e-07
-1.64505e-07
-2.14698e-07
-3.33808e-07
-1.43326e-07
-2.22025e-07
-3.2684e-07
-2.32508e-07
-2.13837e-07
-2.04792e-07
-1.59095e-07
-3.90136e-07
-1.72615e-07
-1.68939e-07
-3.95296e-07
-1.72575e-07
-1.81288e-07
-3.41304e-07
-1.48818e-07
-1.87681e-07
-3.3473e-07
-1.97043e-07
-2.24103e-07
-2.18561e-07
-1.61161e-07
-3.32932e-07
-1.84968e-07
-1.69196e-07
-3.40751e-07
-1.83117e-07
-1.79741e-07
-2.94763e-07
-1.56484e-07
-1.84961e-07
-2.90162e-07
-1.9293e-07
-1.8663e-07
-2.25867e-07
-1.40581e-07
-3.25781e-07
-1.91363e-07
-1.46049e-07
-3.33993e-07
-1.88354e-07
-1.53729e-07
-2.89935e-07
-1.5999e-07
-1.57221e-07
-2.85792e-07
-1.63013e-07
-1.84507e-07
-2.36358e-07
-2.1228e-07
-2.00735e-07
-2.2285e-07
-1.96324e-07
-1.85905e-07
-1.65783e-07
-1.84014e-07
-8.98489e-08
-1.68264e-07
-1.65252e-07
-7.0413e-07
-1.01669e-08
-1.80696e-07
-7.08738e-07
9.92404e-08
-2.11406e-07
-6.02386e-07
1.9397e-07
-2.21684e-07
-5.81113e-07
-2.50988e-07
-3.65599e-07
-1.83712e-07
-7.46984e-09
-7.08189e-07
-2.45016e-08
-2.17912e-08
-7.13508e-07
8.59602e-08
-5.18757e-08
-6.11389e-07
1.82254e-07
-6.20388e-08
-5.90759e-07
-9.14172e-08
-3.80156e-07
-2.14449e-07
1.0145e-07
-6.01116e-07
-5.4619e-08
8.81566e-08
-6.10622e-07
5.83442e-08
6.05829e-08
-5.20275e-07
1.57936e-07
5.10014e-08
-5.02881e-07
2.40701e-08
-3.05313e-07
-2.24719e-07
1.95546e-07
-5.79503e-07
-6.47343e-08
1.83823e-07
-5.89734e-07
4.88078e-08
1.59506e-07
-5.02488e-07
1.49013e-07
1.50522e-07
-4.85603e-07
1.25972e-07
-2.91858e-07
-2.54017e-07
-3.63274e-07
-9.41368e-08
-3.78354e-07
2.19518e-08
-3.0432e-07
1.24453e-07
-2.91133e-07
-1.12462e-07
-1.64421e-07
-1.59852e-07
-9.51781e-07
-3.70707e-08
-1.73134e-07
-9.59802e-07
4.29447e-08
-1.99156e-07
-8.0487e-07
1.21772e-07
-2.08101e-07
-7.82078e-07
-2.32522e-07
-4.96115e-07
-1.77689e-07
-3.27112e-08
-9.59159e-07
-4.99903e-08
-4.56712e-08
-9.68746e-07
3.14344e-08
-7.16951e-08
-8.20346e-07
1.12244e-07
-8.0297e-08
-7.99442e-07
-1.05417e-07
-5.19615e-07
-2.03756e-07
4.6705e-08
-8.03051e-07
-7.60173e-08
3.5195e-08
-8.19298e-07
7.56098e-09
1.13183e-08
-6.86936e-07
9.10914e-08
3.23299e-09
-6.70009e-07
-2.08239e-08
-4.07781e-07
-2.12696e-07
1.24811e-07
-7.79824e-07
-8.45132e-08
1.15306e-07
-7.98097e-07
-4.62926e-10
9.40443e-08
-6.69332e-07
8.44821e-08
8.75492e-08
-6.54931e-07
6.65533e-08
-3.98133e-07
-2.37121e-07
-4.92714e-07
-1.09724e-07
-5.16914e-07
-2.46696e-08
-4.06129e-07
6.35066e-08
-3.97008e-07
-1.59216e-07
-1.49502e-07
-1.45206e-07
-1.41893e-06
8.03464e-08
-1.65569e-07
-1.42357e-06
2.21468e-07
-2.10327e-07
-1.17788e-06
3.43832e-07
-2.24875e-07
-1.13519e-06
-2.6749e-07
-7.00984e-07
-1.69834e-07
8.42942e-08
-1.42269e-06
6.09731e-08
6.46319e-08
-1.4298e-06
2.02551e-07
2.06118e-08
-1.19291e-06
3.27459e-07
2.22606e-09
-1.15149e-06
-4.26704e-08
-7.25824e-07
-2.14759e-07
2.24816e-07
-1.17546e-06
1.6102e-08
2.05642e-07
-1.19121e-06
1.6273e-07
1.66538e-07
-9.79533e-07
2.90844e-07
1.51467e-07
-9.47408e-07
1.0799e-07
-5.4933e-07
-2.29479e-07
3.46512e-07
-1.13216e-06
-3.38164e-09
3.30458e-07
-1.14905e-06
1.47705e-07
2.93156e-07
-9.47082e-07
2.78393e-07
2.81046e-07
-9.15243e-07
2.4166e-07
-5.25001e-07
-2.71832e-07
-6.96538e-07
-4.64896e-08
-7.22254e-07
1.04563e-07
-5.47186e-07
2.3903e-07
-5.2351e-07
-1.64088e-07
-1.13004e-07
-1.06781e-07
-1.99621e-06
1.69989e-07
-1.27301e-07
-1.99546e-06
3.39782e-07
-1.75009e-07
-1.63294e-06
4.86027e-07
-1.89443e-07
-1.5654e-06
-2.35268e-07
-9.37713e-07
-1.33518e-07
1.76059e-07
-1.99459e-06
1.49417e-07
1.55408e-07
-1.99546e-06
3.21549e-07
1.05853e-07
-1.64591e-06
4.70272e-07
9.22353e-08
-1.58191e-06
4.49248e-08
-9.66775e-07
-1.81282e-07
3.45025e-07
-1.62979e-06
9.9933e-08
3.26757e-07
-1.64379e-06
2.73698e-07
2.78939e-07
-1.3264e-06
4.26503e-07
2.65478e-07
-1.27348e-06
2.17605e-07
-6.94624e-07
-1.957e-07
4.90288e-07
-1.56151e-06
8.65707e-08
4.7442e-07
-1.579e-06
2.60261e-07
4.30952e-07
-1.27281e-06
4.14617e-07
4.18925e-07
-1.22307e-06
3.75307e-07
-6.5641e-07
-2.4164e-07
-9.31804e-07
3.83765e-08
-9.61588e-07
2.12269e-07
-6.91976e-07
3.70991e-07
-6.54338e-07
-1.29503e-07
-7.3072e-08
-6.66334e-08
-2.86313e-06
3.45809e-07
-9.69331e-08
-2.84837e-06
5.88711e-07
-1.70685e-07
-2.30355e-06
7.84172e-07
-1.93059e-07
-2.18609e-06
-2.66676e-07
-1.26877e-06
-1.03236e-07
3.5205e-07
-2.84725e-06
3.14427e-07
3.20599e-07
-2.83064e-06
5.60215e-07
2.40522e-07
-2.3029e-06
7.58965e-07
2.17463e-07
-2.19118e-06
1.37432e-07
-1.29303e-06
-1.77055e-07
5.94126e-07
-2.29969e-06
2.34394e-07
5.65573e-07
-2.30021e-06
4.82339e-07
4.87654e-07
-1.82147e-06
6.86692e-07
4.65465e-07
-1.72583e-06
3.83399e-07
-8.81803e-07
-1.99454e-07
7.88565e-07
-2.18128e-06
2.11341e-07
7.63429e-07
-2.18765e-06
4.60166e-07
6.91019e-07
-1.72499e-06
6.66802e-07
6.71165e-07
-1.63541e-06
5.94567e-07
-8.113e-07
-2.7305e-07
-1.26144e-06
1.31501e-07
-1.28666e-06
3.78137e-07
-8.78287e-07
5.90213e-07
-8.08578e-07
-5.01846e-08
3.81706e-08
4.89376e-08
-4.0817e-06
6.13918e-07
7.40245e-09
-4.02733e-06
9.43021e-07
-7.72734e-08
-3.22676e-06
1.19826e-06
-1.03541e-07
-3.03056e-06
-1.86922e-07
-1.69658e-06
-3.32426e-09
6.24164e-07
-4.02534e-06
5.77592e-07
5.86457e-07
-3.99058e-06
9.08671e-07
4.94344e-07
-3.20557e-06
1.16726e-06
4.65474e-07
-3.01876e-06
3.70897e-07
-1.70975e-06
-8.64339e-08
9.51354e-07
-3.22135e-06
4.85318e-07
9.16867e-07
-3.20234e-06
8.18466e-07
8.26512e-07
-2.48677e-06
1.08552e-06
7.97745e-07
-2.32514e-06
7.00734e-07
-1.09162e-06
-1.12671e-07
1.20495e-06
-3.02442e-06
4.56378e-07
1.17432e-06
-3.01413e-06
7.8973e-07
1.09234e-06
-2.32415e-06
1.05904e-06
1.06588e-06
-2.17283e-06
9.76679e-07
-9.70698e-07
-1.96056e-07
-1.68735e-06
3.61692e-07
-1.70091e-06
6.92684e-07
-1.08695e-06
9.69845e-07
-9.66876e-07
1.43384e-07
1.81642e-07
1.89821e-07
-5.85573e-06
9.89038e-07
1.45065e-07
-5.72925e-06
1.45479e-06
-2.03257e-08
-4.53875e-06
1.78498e-06
-5.71211e-08
-4.20194e-06
-1.90404e-07
-2.27164e-06
1.35108e-07
9.98132e-07
-5.72754e-06
9.51376e-07
9.60754e-07
-5.62248e-06
1.40547e-06
7.95624e-07
-4.47558e-06
1.7378e-06
7.48392e-07
-4.15657e-06
5.8368e-07
-2.2544e-06
-2.88094e-08
1.46271e-06
-4.53295e-06
7.86472e-07
1.41398e-06
-4.47082e-06
1.25004e-06
1.25838e-06
-3.41306e-06
1.59452e-06
1.21081e-06
-3.132e-06
1.03825e-06
-1.35243e-06
-6.64311e-08
1.79187e-06
-4.19492e-06
7.39082e-07
1.74506e-06
-4.15069e-06
1.20252e-06
1.60166e-06
-3.13083e-06
1.5515e-06
1.55866e-06
-2.86962e-06
1.39552e-06
-1.14113e-06
-1.99956e-07
-2.26036e-06
5.74304e-07
-2.24348e-06
1.02995e-06
-1.34658e-06
1.38836e-06
-1.13622e-06
4.45047e-07
4.66457e-07
4.80939e-07
-8.4171e-06
1.63415e-06
4.12491e-07
-8.16564e-06
2.27011e-06
2.64157e-07
-6.41811e-06
2.69369e-06
2.20058e-07
-5.8584e-06
1.55712e-08
-3.03493e-06
3.98365e-07
1.64892e-06
-8.16419e-06
1.55533e-06
1.56976e-06
-7.93665e-06
2.19913e-06
1.39657e-06
-6.25174e-06
2.65032e-06
1.33272e-06
-5.72037e-06
1.13067e-06
-2.97803e-06
2.5095e-07
2.28207e-06
-6.41043e-06
1.38218e-06
2.21332e-06
-6.24556e-06
2.02184e-06
2.0351e-06
-4.69121e-06
2.47899e-06
1.96713e-06
-4.22351e-06
1.75917e-06
-1.63924e-06
2.05566e-07
2.70347e-06
-5.84921e-06
1.31791e-06
2.66356e-06
-5.71322e-06
1.95376e-06
2.49085e-06
-4.22238e-06
2.41291e-06
2.42478e-06
-3.78639e-06
2.23406e-06
-1.2871e-06
-1.09517e-09
-3.01967e-06
1.11484e-06
-2.96361e-06
1.74533e-06
-1.63147e-06
2.22227e-06
-1.28048e-06
1.0109e-06
8.53511e-07
8.67004e-07
-1.21682e-05
2.52054e-06
7.63097e-07
-1.16863e-05
3.43545e-06
5.09831e-07
-9.12712e-06
3.96913e-06
4.3177e-07
-8.15729e-06
1.39118e-07
-4.06727e-06
7.49686e-07
2.53434e-06
-1.16851e-05
2.40623e-06
2.41987e-06
-1.12499e-05
3.31893e-06
2.11432e-06
-8.76887e-06
3.8745e-06
2.01035e-06
-7.85447e-06
1.65647e-06
-3.8869e-06
4.96993e-07
3.44751e-06
-9.11816e-06
2.10077e-06
3.33144e-06
-8.76085e-06
3.00157e-06
3.01386e-06
-6.4915e-06
3.57044e-06
2.90052e-06
-5.68251e-06
2.52058e-06
-1.97118e-06
4.20091e-07
3.97864e-06
-8.14715e-06
1.99682e-06
3.88711e-06
-7.84556e-06
2.88816e-06
3.58179e-06
-5.6816e-06
3.46593e-06
3.47728e-06
-4.94088e-06
3.11667e-06
-1.3718e-06
1.22224e-07
-4.04756e-06
1.64195e-06
-3.8709e-06
2.50797e-06
-1.96213e-06
3.1054e-06
-1.3635e-06
1.87068e-06
1.60253e-06
1.62539e-06
-1.77117e-05
3.99415e-06
1.48592e-06
-1.67981e-05
5.26305e-06
1.16715e-06
-1.3002e-05
5.96615e-06
1.04773e-06
-1.13994e-05
7.22579e-07
-5.4449e-06
1.46325e-06
4.0183e-06
-1.67975e-05
3.81619e-06
3.84019e-06
-1.5957e-05
5.08515e-06
3.46821e-06
-1.23388e-05
5.79465e-06
3.30328e-06
-1.08195e-05
2.87714e-06
-5.06696e-06
1.1445e-06
5.28527e-06
-1.29907e-05
3.44428e-06
5.10721e-06
-1.23276e-05
4.70253e-06
4.72436e-06
-9.00587e-06
5.44788e-06
4.54392e-06
-7.66847e-06
4.0736e-06
-2.29113e-06
1.02519e-06
5.98668e-06
-1.13873e-05
3.2793e-06
5.81492e-06
-1.08073e-05
4.52202e-06
5.46793e-06
-7.66787e-06
5.27317e-06
5.29348e-06
-6.44156e-06
4.86099e-06
-1.31678e-06
7.01797e-07
-5.42088e-06
2.85338e-06
-5.04263e-06
4.05187e-06
-2.2787e-06
4.84076e-06
-1.30448e-06
3.32678e-06
2.63946e-06
2.65726e-06
-2.59714e-05
6.10992e-06
2.44797e-06
-2.43152e-05
8.014e-06
1.94364e-06
-1.87893e-05
8.77769e-06
1.71907e-06
-1.58963e-05
1.15294e-06
-7.26532e-06
2.43007e-06
6.12901e-06
-2.43156e-05
5.86697e-06
5.88617e-06
-2.28321e-05
7.73214e-06
5.23184e-06
-1.74922e-05
8.51832e-06
4.9387e-06
-1.48253e-05
4.15768e-06
-6.49692e-06
1.92609e-06
8.03145e-06
-1.87764e-05
5.21287e-06
7.74955e-06
-1.74777e-05
7.01631e-06
7.03352e-06
-1.2611e-05
7.8542e-06
6.70462e-06
-1.02723e-05
5.8251e-06
-2.55231e-06
1.70119e-06
8.79439e-06
-1.58831e-05
4.91962e-06
8.53499e-06
-1.48112e-05
6.68728e-06
7.87068e-06
-1.02727e-05
7.56399e-06
7.58086e-06
-8.19448e-06
6.76092e-06
-9.19608e-07
1.1363e-06
-7.23837e-06
4.1391e-06
-6.46767e-06
5.80806e-06
-2.5384e-06
6.7442e-06
-9.0447e-07
5.59686e-06
4.73338e-06
4.76826e-06
-3.87532e-05
9.74895e-06
4.39683e-06
-3.54824e-05
1.23394e-05
3.65188e-06
-2.71164e-05
1.32264e-05
3.32242e-06
-2.22796e-05
2.54108e-06
-9.55668e-06
4.36214e-06
9.78891e-06
-3.54872e-05
9.22912e-06
9.26918e-06
-3.25714e-05
1.18288e-05
8.3933e-06
-2.48333e-05
1.27514e-05
7.90148e-06
-2.03269e-05
6.83856e-06
-8.20851e-06
3.61782e-06
1.23774e-05
-2.71016e-05
8.3539e-06
1.18672e-05
-2.48118e-05
1.09006e-05
1.09377e-05
-1.7702e-05
1.19185e-05
1.03733e-05
-1.37621e-05
9.17377e-06
-2.57188e-06
3.28764e-06
1.32634e-05
-2.22648e-05
7.86142e-06
1.27884e-05
-2.03062e-05
1.03356e-05
1.19544e-05
-1.37636e-05
1.13822e-05
1.14191e-05
-1.02868e-05
1.03413e-05
9.37376e-08
2.50918e-06
-9.52259e-06
6.79917e-06
-8.1634e-06
9.13669e-06
-2.55206e-06
1.03048e-05
1.16847e-07
9.30211e-06
8.95531e-06
8.9751e-06
-6.08959e-05
1.67172e-05
8.10921e-06
-5.35812e-05
1.98626e-05
6.71568e-06
-3.98238e-05
1.99164e-05
5.63117e-06
-3.09126e-05
4.14895e-06
-1.22909e-05
8.09042e-06
1.67398e-05
-5.35898e-05
1.54524e-05
1.54696e-05
-4.72937e-05
1.88622e-05
1.35339e-05
-3.50613e-05
1.91637e-05
1.22296e-05
-2.72268e-05
1.02239e-05
-9.69754e-06
6.70014e-06
1.98844e-05
-3.98119e-05
1.35128e-05
1.88829e-05
-3.50377e-05
1.69437e-05
1.69654e-05
-2.45644e-05
1.75179e-05
1.56906e-05
-1.77972e-05
1.34305e-05
-1.74094e-06
5.61542e-06
1.99379e-05
-3.09013e-05
1.22075e-05
1.91879e-05
-2.72032e-05
1.56682e-05
1.75409e-05
-1.77997e-05
1.65031e-05
1.65271e-05
-1.19581e-05
1.45705e-05
2.60561e-06
4.13086e-06
-1.22561e-05
1.02016e-05
-9.64625e-06
1.34084e-05
-1.71951e-06
1.45469e-05
2.63221e-06
1.54347e-05
1.88553e-05
1.8921e-05
-0.00010461
3.16533e-05
1.67838e-05
-8.60535e-05
3.43473e-05
1.24398e-05
-5.7922e-05
3.12357e-05
1.09039e-05
-4.17411e-05
8.04372e-06
-1.48861e-05
1.67185e-05
3.17314e-05
-8.60678e-05
2.74587e-05
2.75339e-05
-6.87841e-05
3.09437e-05
2.30965e-05
-4.92029e-05
2.94026e-05
2.05714e-05
-3.53532e-05
1.68312e-05
-1.03649e-05
1.23819e-05
3.44187e-05
-5.78989e-05
2.30323e-05
3.1007e-05
-4.9161e-05
2.72235e-05
2.72793e-05
-3.29385e-05
2.69454e-05
2.47915e-05
-2.17391e-05
2.11109e-05
9.97562e-07
1.08533e-05
3.13021e-05
-4.17276e-05
2.05075e-05
2.94739e-05
-3.53242e-05
2.47257e-05
2.7009e-05
-2.17475e-05
2.49335e-05
2.50025e-05
-1.23769e-05
2.19839e-05
7.93669e-06
7.98953e-06
-1.48361e-05
1.67658e-05
-1.02881e-05
2.10465e-05
1.02886e-06
2.19164e-05
7.97978e-06
2.55061e-05
2.79738e-05
2.79917e-05
-0.000167236
4.98262e-05
2.57762e-05
-0.000137206
5.96185e-05
2.27091e-05
-9.5123e-05
4.94959e-05
1.74512e-05
-5.33956e-05
1.29848e-05
-1.51376e-05
2.5753e-05
4.98548e-05
-0.000137225
4.71205e-05
4.71578e-05
-0.000111533
5.33632e-05
3.92015e-05
-7.1938e-05
4.54505e-05
3.25348e-05
-4.25241e-05
2.58016e-05
-8.01532e-06
2.26915e-05
5.96429e-05
-9.50944e-05
3.91676e-05
5.33873e-05
-7.18667e-05
4.40984e-05
4.41238e-05
-4.27916e-05
4.00586e-05
3.82504e-05
-2.3415e-05
3.09909e-05
8.01989e-06
1.7436e-05
4.95199e-05
-5.33843e-05
3.25123e-05
4.54784e-05
-4.24916e-05
3.82305e-05
4.00839e-05
-2.34259e-05
3.61562e-05
3.61856e-05
-8.23788e-06
3.08455e-05
1.83982e-05
1.29701e-05
-1.50918e-05
2.57794e-05
-7.93674e-06
3.09661e-05
8.04807e-06
3.08159e-05
1.84427e-05
4.12322e-05
4.22346e-05
4.23031e-05
-0.000257197
6.73521e-05
3.82896e-05
-0.00020355
8.1118e-05
3.32984e-05
-0.000146123
7.59157e-05
2.93026e-05
-8.17495e-05
2.14448e-05
-1.24478e-05
3.82105e-05
6.7441e-05
-0.000203582
6.26764e-05
6.27951e-05
-0.000160505
7.72068e-05
5.78943e-05
-0.000111064
6.70596e-05
4.93579e-05
-5.24323e-05
3.82649e-05
-1.57292e-06
3.32149e-05
8.12081e-05
-0.000146089
5.77729e-05
7.73368e-05
-0.000110966
6.69806e-05
6.70882e-05
-6.11933e-05
5.88346e-05
5.60353e-05
-2.19463e-05
4.42058e-05
2.03545e-05
2.92169e-05
7.60094e-05
-8.17372e-05
4.92374e-05
6.71869e-05
-5.23622e-05
5.59326e-05
5.89478e-05
-2.19806e-05
5.15853e-05
5.17152e-05
4.29485e-07
4.25476e-05
3.45e-05
2.13484e-05
-1.23928e-05
3.81423e-05
-1.45983e-06
4.4085e-05
2.039e-05
4.24205e-05
3.45691e-05
6.0591e-05
6.31492e-05
6.31392e-05
-0.000391332
9.68144e-05
5.41136e-05
-0.000295541
0.000112107
4.5667e-05
-0.00021276
0.000101336
3.78875e-05
-0.00011454
2.67537e-05
-1.08562e-05
5.41188e-05
9.68115e-05
-0.000295588
8.50701e-05
8.50709e-05
-0.000222413
0.000100268
7.48964e-05
-0.000155491
9.19247e-05
6.6196e-05
-7.2398e-05
4.85344e-05
7.6563e-06
4.56797e-05
0.000112113
-0.000212742
7.49044e-05
0.000100275
-0.000155395
9.05553e-05
9.05467e-05
-9.24945e-05
8.09216e-05
7.42035e-05
-2.03201e-05
5.7178e-05
3.676e-05
3.79062e-05
0.000101349
-0.000114553
6.62216e-05
9.19427e-05
-7.23458e-05
7.41998e-05
8.09396e-05
-2.03518e-05
6.70592e-05
6.70798e-05
1.46939e-05
5.64303e-05
5.29379e-05
2.67581e-05
-1.08198e-05
4.85326e-05
7.75213e-06
5.71633e-05
3.67878e-05
5.64103e-05
5.29908e-05
8.55939e-05
0.00011354
0.00011367
-0.000625754
0.000159641
9.25849e-05
-0.00043781
0.000173887
7.50875e-05
-0.000307455
0.000147385
5.76534e-05
-0.000151088
4.05132e-05
-7.83989e-06
9.24599e-05
0.000159809
-0.000437871
0.000133104
0.000133306
-0.000303779
0.000149919
0.000114249
-0.000211468
0.000129594
9.1255e-05
-8.56745e-05
6.87935e-05
2.19063e-05
7.49601e-05
0.000174064
-0.000307432
0.000114066
0.000150125
-0.000211319
0.000130993
0.00013118
-0.000126353
0.000113383
0.000105337
-1.67924e-05
8.56241e-05
5.34423e-05
5.75261e-05
0.000147581
-0.000151104
9.10652e-05
0.000129832
-8.55918e-05
0.000105144
0.000113596
-1.68465e-05
9.5643e-05
9.58773e-05
3.36546e-05
8.32924e-05
8.14582e-05
4.03519e-05
-7.75726e-06
6.86214e-05
2.20037e-05
8.5426e-05
5.3502e-05
8.30646e-05
8.15572e-05
0.000126699
0.000202714
0.000202666
-0.00104266
0.000270385
0.000154637
-0.00066645
0.000274403
0.000121936
-0.000441935
0.000216221
8.5367e-05
-0.0001869
5.8531e-05
2.92965e-06
0.000154667
0.000270349
-0.000666532
0.000215191
0.000215167
-0.000424832
0.000227054
0.000177947
-0.000279341
0.000183715
0.000132029
-8.89973e-05
0.000103897
4.07663e-05
0.00012198
0.000274373
-0.000441922
0.000177978
0.000227037
-0.000279187
0.000193698
0.000193678
-0.000157804
0.000163434
0.000150963
-5.46224e-06
0.000123274
8.77614e-05
8.54029e-05
0.000216209
-0.000186937
0.000132051
0.000183742
-8.89453e-05
0.000150976
0.000163437
-5.53111e-06
0.000134715
0.000134726
6.61525e-05
0.000114516
0.000132604
5.86037e-05
2.95767e-06
0.000103926
4.0895e-05
0.000123303
8.7785e-05
0.000114512
0.000132699
0.000191666
0.000459799
0.000460002
-0.00197089
0.000529472
0.000304572
-0.00104359
0.000479219
0.000224431
-0.00062333
0.000347907
0.000148003
-0.000210158
0.000103231
3.36876e-05
0.000304407
0.00052974
-0.00104369
0.000376262
0.000376617
-0.000568733
0.000368778
0.000300535
-0.00034796
0.000279746
0.00020522
-5.71818e-05
0.000159029
9.63005e-05
0.000224214
0.000479513
-0.000623295
0.000300218
0.000369144
-0.000347717
0.000307338
0.00030768
-0.000172069
0.000247453
0.000228431
3.12106e-05
0.000179848
0.000158217
0.000147833
0.000348251
-0.000210216
0.000204904
0.00028025
-5.71219e-05
0.000228109
0.000247839
3.11055e-05
0.000190345
0.000190756
0.000141592
0.000159493
0.000219044
0.000103063
3.37325e-05
0.000158691
9.6608e-05
0.000179489
0.000158268
0.000159096
0.000219185
0.000287095
0.000862972
0.000862835
-0.00371373
0.000946551
0.000551039
-0.00168937
0.000787133
0.000385057
-0.000861266
0.000530941
0.000222384
-0.000188695
0.000154224
0.000111876
0.000551158
0.000946429
-0.00168952
0.000640412
0.000640299
-0.000747248
0.000572971
0.000477265
-0.000372727
0.000411424
0.000306446
2.03043e-05
0.000225664
0.000206255
0.000385202
0.000787024
-0.000861273
0.000477376
0.000572855
-0.000372447
0.000458849
0.000458744
-0.00013502
0.000347168
0.000320739
0.000128598
0.000241181
0.000283934
0.000222498
0.000530841
-0.000188775
0.000306552
0.000411342
2.03378e-05
0.000320848
0.000347091
0.000128463
0.000252818
0.000252755
0.000277606
0.000203103
0.000353326
0.000154366
0.000111827
0.000225816
0.000206465
0.000241314
0.000283919
0.000203173
0.000353447
0.000419048
0.00230953
0.00230984
-0.00250391
-0.0020211
-0.00202081
-0.00179119
0.00211371
0.00117002
-0.00265359
0.00143625
0.000725414
-0.000918924
0.000885371
0.000391049
-3.43442e-05
0.000223989
0.000333566
0.00117001
0.00211409
-0.00265379
0.0011354
0.00113604
-0.000678654
0.000910261
0.000807966
-0.000230137
0.000603303
0.000450108
0.000268203
0.000305961
0.000426668
0.000725059
0.00143671
-0.000918921
0.000807407
0.000910779
-0.000229536
0.0007152
0.000715802
4.93501e-05
0.000501642
0.000440101
0.000352164
0.000321176
0.000491579
0.000390881
0.000885901
-3.44759e-05
0.000449617
0.000604175
0.000268206
0.00043962
0.000502297
0.000351965
0.000332521
0.000333197
0.000491607
0.00026643
0.000545835
0.000223725
0.000333495
0.000305417
0.000427058
0.00032055
0.000491615
0.000265764
0.000545965
0.000598628
0.000669267
0.000669255
-0.00385609
0.00409126
0.00221959
-0.00144817
-0.00060701
-0.00104162
-0.000537701
-0.000904817
-0.00097938
-0.00197464
-0.00150313
0.00225045
0.0010995
-0.00019612
0.00120615
0.000496402
0.000495534
0.000277054
0.000696075
0.00221977
0.00409097
-0.0014481
-0.00104186
-0.000606519
-0.000537847
-0.000904718
-0.000979334
-0.00197461
-0.00150335
0.00194259
0.00194228
-0.000124159
0.00131046
0.00117151
0.000329989
0.000783147
0.000582413
0.000709502
0.000368505
0.00073855
0.00109975
0.00225019
-0.000196163
0.00117171
0.00131009
0.000330689
0.000919198
0.000918956
0.000554416
0.000611184
0.000532939
0.000709652
0.000365278
0.000774418
0.00049671
0.00120584
0.0004954
0.000582682
0.000782811
0.000709514
0.000533215
0.000610933
0.000709455
0.000384627
0.000384391
0.000788744
0.00029413
0.000781964
0.000277376
0.000695794
0.000368847
0.000738718
0.000365602
0.000774325
0.000294369
0.00078204
0.000799113
0.00218876
0.000659201
0.000659113
-0.00350964
-0.0010715
0.00298137
0.00113297
-0.00107149
-0.00137326
-0.00130711
-0.000279537
-0.000260692
-0.000113851
-8.33533e-05
0.00336813
0.00169846
0.00209084
-0.00183267
-0.00164314
-0.00213033
-0.00176364
0.00171449
0.000712481
0.00144155
0.000347086
0.00131652
-0.00107157
0.0011336
0.00298138
-0.00107135
-0.00137363
-0.0013066
-0.000280031
-0.000260738
-0.000114139
-8.36602e-05
0.00296505
0.00296496
0.00101146
-0.00124715
-0.000946362
-0.0016371
-0.000834598
-0.00124784
-0.000946931
-0.00163747
-0.000835205
0.000806794
0.0008068
0.000653443
0.00162609
0.00164575
0.00172166
0.000980514
0.00071622
0.00135134
0.00043009
0.00121835
0.0016978
0.00336881
0.00209055
-0.00183249
-0.00164323
-0.00213047
-0.00176388
0.0016447
0.00162651
0.00172223
0.00118684
0.00118801
0.00147002
0.000759223
0.000610644
0.00124285
0.000415349
0.00115622
0.000712566
0.00171524
0.00144135
0.000715562
0.000981699
0.00135133
0.000610032
0.000760221
0.00124278
0.000434392
0.00043533
0.0011397
0.000332762
0.00106537
0.000346567
0.00131622
0.00042924
0.00121835
0.000414347
0.00115616
0.00033179
0.00106529
0.00102552
0.00501041
3.86487e-05
3.87606e-05
-0.00509113
-0.00100843
0.000262342
0.000220595
-0.000815671
0.00133318
0.00261932
0.00132997
0.00379537
-0.00205573
-0.00161881
-0.00113776
-0.00086939
0.00135798
0.000564633
0.00211743
0.000260525
0.00180846
-0.00100862
0.000262451
0.000220178
-0.000815907
0.00133341
-0.000399126
-0.000399139
0.000930504
0.000929771
0.00146662
-0.00024109
-0.000302684
-0.000214821
-0.000241022
-0.000302724
-0.000214829
0.00133532
0.00136662
0.00280709
-0.000779625
-0.000670155
-0.00044717
-0.000560453
0.000803798
0.00056798
0.00187952
0.000353836
0.00158407
0.00133053
0.00261879
0.00379381
-0.00205513
-0.00161862
-0.00113767
-0.000868808
0.00136692
0.00133428
0.00280718
-0.000779204
-0.000669765
-0.000446609
-0.000560032
0.000977327
0.000976893
0.00224933
0.000613485
0.000491792
0.00168288
0.000330832
0.00145366
0.000565299
0.00135716
0.00211746
0.000568413
0.0008029
0.00187959
0.000492275
0.000612931
0.00168288
0.000343743
0.00034323
0.00143679
0.000269803
0.00128184
0.000261222
0.00180769
0.000354517
0.00158376
0.000331472
0.00145345
0.000270319
0.0012817
0.00117834
0.00524137
7.70425e-05
7.71011e-05
-0.00539925
0.000135966
0.000199162
-0.000344656
-0.00316057
0.000178791
0.000180544
0.000202928
0.00143484
0.000870748
0.000191604
5.85987e-05
0.0013411
0.000505058
0.00342303
-0.000915623
-0.000465717
-3.98473e-05
-5.88839e-05
0.000730424
0.000432568
0.00229642
9.68715e-05
0.00185585
0.000135929
-0.000343561
0.000201036
-0.00316205
0.000178757
0.000180622
0.000202948
0.00143489
0.000870773
0.000192029
5.89249e-05
0.000353442
0.000353559
0.00271988
0.000245278
-0.000267163
0.000457083
-0.000230796
0.000244964
-0.000266612
0.000454275
-0.000230348
-0.00110918
-0.000892333
-0.000892162
-0.000939895
0.000476457
0.000482455
0.00270668
0.000416403
0.000369377
0.00200276
0.000177136
0.00165282
0.000502229
0.00134224
0.00342284
-0.00091672
-0.000466306
-4.15325e-05
-5.86874e-05
0.000481359
0.000476995
0.00270461
0.000435174
0.000436921
0.00234105
0.000384828
0.000300964
0.00180164
0.000196994
0.0015491
0.000432167
0.000731394
0.00229693
0.000368612
0.000417339
0.0020028
0.000300317
0.0003859
0.00180219
0.00024391
0.000244858
0.0015493
0.00020223
0.00136469
9.58272e-05
0.00185552
0.000176152
0.00165145
0.000195844
0.00154885
0.000201211
0.0013642
0.0012505
-0.000165067
-0.000164324
0.0220622
-0.00517898
-0.00562302
-0.00547169
-0.00547172
0.000486554
0.00271337
-0.000666611
-0.000367065
-0.00217191
0.000372198
-0.000206
0.00287214
0.000419673
0.000308132
-0.000322987
-3.70526e-05
9.85657e-05
0.00018114
0.00237368
-7.65416e-05
0.00169077
0.000486241
0.00271265
-0.000366203
-0.000666311
-0.00217197
-0.00029082
-0.000292743
0.000622053
0.000311594
-1.15997e-05
-0.000274901
0.000258334
0.000310454
-1.20853e-05
-0.000275407
0.000257122
0.000706129
0.000706141
0.000705614
-9.05245e-05
-0.000162462
0.00246285
1.94874e-05
8.2941e-05
0.00199095
-2.03672e-05
0.00155149
-0.000203628
0.000370891
0.00287263
0.000419568
0.000307649
-0.000323026
-3.69089e-05
-0.000161032
-9.2047e-05
0.00246132
-4.39443e-05
-4.505e-05
0.00210655
6.12923e-05
2.92844e-05
0.00175006
1.52434e-05
0.00144664
0.000181617
9.76411e-05
0.00237351
8.32241e-05
1.85661e-05
0.00199058
2.97134e-05
6.04604e-05
0.00175019
3.84314e-05
3.7789e-05
0.00153208
6.70838e-05
0.00131516
-7.54635e-05
0.00169067
-1.93703e-05
0.00155047
1.61332e-05
0.00144644
6.78307e-05
0.00131481
0.00118936
0.00558267
-1.06591e-05
-1.07189e-05
-0.00555963
-0.000627948
0.000574653
0.000147645
-0.00052004
0.000424707
5.66642e-05
-0.00013905
0.00302869
-0.000287236
-0.000167042
0.000140277
0.000216312
5.6156e-05
6.44587e-05
0.00230907
-8.06086e-05
0.00161825
-0.000627771
0.000574794
0.000146867
-0.000519897
0.00042451
-0.000120419
-0.000119947
0.000169374
0.000169553
0.000912402
-7.92552e-05
-7.60508e-05
-4.02905e-05
-7.87987e-05
-7.50954e-05
-3.94205e-05
-0.000131453
-9.27365e-05
0.00259525
-0.000101607
1.1234e-05
-1.96996e-06
4.50755e-05
-1.56573e-05
-1.28376e-05
0.00195245
-4.85507e-05
0.00148168
-0.000139072
5.65064e-05
0.00302942
-0.000287242
-0.000167422
0.000140184
0.000216108
-9.26617e-05
-0.000130635
0.00259505
-0.000102068
1.0258e-05
-2.34198e-06
4.46509e-05
-6.72353e-05
-6.68578e-05
0.00205524
2.55931e-05
-3.67764e-05
0.00168117
-2.12535e-05
0.00135253
6.38475e-05
5.64263e-05
0.00230858
-1.34556e-05
-1.48156e-05
0.00195206
-3.74446e-05
2.59866e-05
0.00168134
3.47148e-06
4.00077e-06
0.00145039
4.56334e-05
0.00123214
-8.06625e-05
0.00161831
-4.88042e-05
0.00148116
-2.17743e-05
0.00135247
4.50977e-05
0.00123172
0.00110707
0.00560624
8.2546e-06
8.14848e-06
-0.00562222
0.000331807
0.000743724
-0.000217466
-6.44173e-05
-0.000802847
-0.00209683
-0.000961697
0.00193521
0.000766932
0.00083009
0.00131424
0.00122023
-0.00103206
-0.000354634
0.00159159
-0.000225224
0.00125168
0.000331875
0.000743256
-6.41886e-05
-0.00021745
-0.000802495
-0.00228298
-0.00228414
0.0018175
0.000735076
0.000509316
0.00110293
0.00058725
0.000734499
0.000508764
0.00110253
0.000586736
-0.000848652
-0.000750612
-0.000750741
-0.000767482
-0.00141604
-0.0010266
0.00179321
-0.000749826
-0.000503031
0.00143463
-0.000227564
0.00118757
-0.00096058
-0.00209695
0.00193549
0.000766949
0.000830198
0.00131426
0.00122034
-0.00102573
-0.00141696
0.00179301
-0.000753769
-0.000754576
0.00151126
-0.000445994
-0.000440977
0.00131134
-0.00020672
0.00109531
-0.000353878
-0.00103273
0.00159148
-0.000502283
-0.00075091
0.00143442
-0.000440224
-0.000446758
0.00131146
-0.000301781
-0.000302571
0.00117354
-0.000113239
0.00103236
-0.000224364
0.00125163
-0.000226694
0.00118713
-0.000205801
0.00109523
-0.00011242
0.0010321
0.000920579
0.0050034
-0.00229601
-0.0022962
-0.0146369
0.00484683
0.00484682
0.00459334
-0.00432296
-0.00280208
-0.00370751
0.00261006
0.00226067
0.00217897
0.0017208
0.00128645
0.000142568
0.000309131
0.000303321
-0.00196506
-0.00110665
0.000664053
-0.00101695
-0.000312779
0.000958131
-0.000276666
0.000825663
-0.00280163
-0.0043229
-0.00370708
0.00261018
0.00226085
0.00217903
0.00172092
0.00128605
0.00030897
0.000142166
0.000303097
-0.00222705
-0.00222725
0.000668088
-0.00138874
-0.00112336
0.000971604
-0.000736269
-0.000463607
0.000932986
-0.000284722
0.000861692
-0.00110636
-0.00196488
0.000664118
-0.00112324
-0.00138888
0.000971538
-0.000815677
-0.000815695
0.000896031
-0.000450963
-0.000437122
0.000920141
-0.000248953
0.000793176
-0.000312608
-0.00101689
0.000958115
-0.000463659
-0.000736232
0.000932819
-0.000437183
-0.00045086
0.000920152
-0.000288256
-0.00028813
0.00087562
-0.000125288
0.00080124
-0.000276374
0.000825577
-0.000284694
0.000861512
-0.000248926
0.000793074
-0.000125406
0.000801103
0.00070877
-0.00532507
-0.0053257
-0.0230659
0.0102774
0.00846422
0.00846414
0.00650643
-0.00356743
-0.00240226
-0.00305807
-0.00204532
-0.000929752
5.70686e-05
-0.00118548
-0.000401423
0.000493879
-0.00025106
0.000535786
-0.0024014
-0.00356791
-0.00305792
-0.00208717
-0.00208792
3.95119e-05
-0.00142524
-0.00107145
0.000451369
-0.000880627
-0.00055235
0.000539302
-0.000291083
0.000600816
-0.000929133
-0.00204582
5.71249e-05
-0.00107089
-0.00142592
0.000451296
-0.000873401
-0.000873995
0.000501088
-0.00057543
-0.000527249
0.000597069
-0.000277629
0.000567716
-0.000400929
-0.001186
0.000493897
-0.00055176
-0.000881445
0.000539174
-0.000526633
-0.00057607
0.000597099
-0.000395097
-0.000395784
0.000612619
-0.000192996
0.000605581
-0.000250398
0.000535764
-0.0002904
0.000600685
-0.000276958
0.000567656
-0.000192336
0.000605482
0.000547445
-0.0043043
-0.00430456
-0.0143858
-0.00289917
-0.00203456
-0.00244415
-0.00176559
-0.000875438
-0.000212409
-0.00102985
-0.000337041
8.53361e-05
-0.000251393
0.00029166
-0.00203429
-0.0028994
-0.00244406
-0.00184864
-0.00184886
-0.000331842
-0.00128352
-0.0009931
3.91234e-06
-0.000797585
-0.000490324
0.000206649
-0.000296252
0.000366527
-0.000875165