/*--------------------------------*- C++ -*----------------------------------*\
| =========                 |                                                 |
| \\      /  F ield         | OpenFOAM: The Open Source CFD Toolbox           |
|  \\    /   O peration     | Version:  5.x                                   |
|   \\  /    A nd           | Web:      www.OpenFOAM.org                      |
|    \\/     M anipulation  |                                                 |
\*---------------------------------------------------------------------------*/
FoamFile
{
    version     2.0;
    format      ascii;
    class       volScalarField;
    location    "0.09";
    object      phiIB;
}
// * * * * * * * * * * * * * * * * * * * * * * * * * * * * * * * * * * * * * //

dimensions      [0 2 -1 0 0 0 0];

internalField   nonuniform List<scalar> 
1553
(
-0.000396147
-0.00039616
-0.000396154
-0.000396184
-0.000396241
-0.00039616
-0.000396177
-0.000396169
-0.0003962
-0.000396253
-0.000396155
-0.000396169
-0.000396143
-0.000396172
-0.000396215
-0.000396184
-0.0003962
-0.000396172
-0.000396202
-0.000396242
-0.000396242
-0.000396255
-0.000396216
-0.000396243
-0.000396268
-0.000784958
-0.000784941
-0.00078492
-0.000784923
-0.000784889
-0.000784941
-0.000784923
-0.000784899
-0.000784901
-0.000784864
-0.000784921
-0.0007849
-0.000784872
-0.000784873
-0.000784833
-0.000784925
-0.000784902
-0.000784873
-0.000784872
-0.00078483
-0.000784891
-0.000784867
-0.000784834
-0.000784832
-0.000784787
-0.00185234
-0.00185231
-0.00185227
-0.0018523
-0.00185236
-0.00185231
-0.00185227
-0.00185223
-0.00185226
-0.00185231
-0.00185228
-0.00185224
-0.00185219
-0.0018522
-0.00185224
-0.0018523
-0.00185226
-0.0018522
-0.00185222
-0.00185225
-0.00185236
-0.00185231
-0.00185224
-0.00185225
-0.00185226
-0.00239584
-0.00239579
-0.00239576
-0.0023958
-0.00239585
-0.00239579
-0.00239574
-0.00239571
-0.00239573
-0.00239578
-0.00239577
-0.00239571
-0.00239566
-0.00239568
-0.00239571
-0.0023958
-0.00239574
-0.00239568
-0.00239569
-0.00239571
-0.00239585
-0.00239578
-0.00239571
-0.00239571
-0.00239571
-0.00339804
-0.00339798
-0.00339797
-0.00339804
-0.00339819
-0.00339798
-0.00339791
-0.00339789
-0.00339795
-0.00339809
-0.00339797
-0.00339789
-0.00339784
-0.00339789
-0.003398
-0.00339804
-0.00339796
-0.00339789
-0.00339793
-0.00339803
-0.0033982
-0.0033981
-0.00339801
-0.00339803
-0.00339811
-0.00400679
-0.00400672
-0.00400674
-0.00400685
-0.00400708
-0.00400672
-0.00400664
-0.00400665
-0.00400675
-0.00400696
-0.00400674
-0.00400665
-0.00400663
-0.00400673
-0.00400691
-0.00400686
-0.00400676
-0.00400673
-0.0040068
-0.00400697
-0.00400709
-0.00400697
-0.00400691
-0.00400697
-0.0040071
-0.00495156
-0.00495149
-0.00495155
-0.00495174
-0.00495213
-0.00495149
-0.00495139
-0.00495144
-0.00495162
-0.00495199
-0.00495155
-0.00495144
-0.00495145
-0.00495161
-0.00495194
-0.00495175
-0.00495163
-0.00495161
-0.00495176
-0.00495206
-0.00495215
-0.004952
-0.00495195
-0.00495206
-0.00495231
-0.0056071
-0.00560707
-0.00560722
-0.00560753
-0.00560813
-0.00560708
-0.00560698
-0.00560709
-0.00560739
-0.00560796
-0.00560723
-0.0056071
-0.00560718
-0.00560745
-0.00560797
-0.00560754
-0.0056074
-0.00560745
-0.00560769
-0.00560818
-0.00560815
-0.00560798
-0.00560798
-0.00560818
-0.00560861
-0.00650494
-0.00650492
-0.00650518
-0.00650566
-0.00650658
-0.00650492
-0.00650487
-0.00650507
-0.0065055
-0.00650639
-0.00650519
-0.00650507
-0.00650522
-0.00650563
-0.00650644
-0.00650567
-0.00650551
-0.00650564
-0.00650601
-0.00650677
-0.00650661
-0.00650641
-0.00650645
-0.00650678
-0.00650744
-0.00719421
-0.00719422
-0.00719465
-0.00719536
-0.00719679
-0.00719423
-0.00719423
-0.00719463
-0.00719529
-0.00719662
-0.00719466
-0.00719464
-0.00719495
-0.00719556
-0.00719679
-0.00719538
-0.00719531
-0.00719557
-0.00719614
-0.00719732
-0.00719683
-0.00719664
-0.00719681
-0.00719733
-0.00719837
-0.00805099
-0.00805104
-0.00805167
-0.0080527
-0.00805476
-0.00805104
-0.00805108
-0.00805168
-0.00805267
-0.00805464
-0.00805168
-0.00805169
-0.00805217
-0.0080531
-0.00805492
-0.00805272
-0.00805269
-0.0080531
-0.00805395
-0.00805568
-0.0080548
-0.00805467
-0.00805494
-0.00805569
-0.00805721
-0.0087611
-0.00876122
-0.00876223
-0.0087637
-0.00876673
-0.00876123
-0.00876134
-0.00876229
-0.00876372
-0.00876668
-0.00876226
-0.00876231
-0.00876311
-0.00876445
-0.00876719
-0.00876373
-0.00876375
-0.00876445
-0.00876568
-0.00876826
-0.00876678
-0.00876673
-0.00876722
-0.00876828
-0.00877055
-0.00957737
-0.0095776
-0.00957891
-0.00958089
-0.00958506
-0.0095776
-0.00957777
-0.00957902
-0.00958093
-0.00958505
-0.00957893
-0.00957903
-0.00958009
-0.00958188
-0.0095857
-0.00958092
-0.00958096
-0.00958189
-0.00958351
-0.0095871
-0.00958511
-0.0095851
-0.00958573
-0.00958712
-0.0095903
-0.0102935
-0.0102938
-0.0102955
-0.0102977
-0.0103035
-0.0102938
-0.010294
-0.0102956
-0.0102978
-0.0103035
-0.0102955
-0.0102957
-0.010297
-0.0102991
-0.0103043
-0.0102978
-0.0102979
-0.0102991
-0.010301
-0.010306
-0.0103036
-0.0103036
-0.0103044
-0.010306
-0.0103103
-0.0110663
-0.0110649
-0.0110654
-0.0110663
-0.0110728
-0.0110649
-0.011064
-0.011065
-0.0110661
-0.0110726
-0.0110654
-0.011065
-0.0110657
-0.011067
-0.0110732
-0.0110663
-0.0110661
-0.011067
-0.0110685
-0.0110745
-0.0110728
-0.0110726
-0.0110733
-0.0110745
-0.0110799
-0.0117851
-0.011773
-0.0117625
-0.0117607
-0.0117669
-0.011773
-0.0117637
-0.0117594
-0.011759
-0.0117656
-0.0117626
-0.0117595
-0.0117591
-0.0117592
-0.011766
-0.0117608
-0.011759
-0.0117592
-0.0117597
-0.0117666
-0.011767
-0.0117657
-0.0117661
-0.0117667
-0.0117729
-0.0124769
-0.012467
-0.0124518
-0.0124377
-0.012442
-0.012467
-0.0124567
-0.0124406
-0.0124325
-0.012438
-0.0124519
-0.0124406
-0.0124324
-0.0124303
-0.0124373
-0.0124378
-0.0124325
-0.0124303
-0.012429
-0.0124366
-0.0124421
-0.012438
-0.0124374
-0.0124367
-0.012445
-0.0130078
-0.0130085
-0.0130083
-0.0130061
-0.0130125
-0.0130086
-0.013007
-0.0130042
-0.0129995
-0.0130076
-0.0130084
-0.0130043
-0.0129987
-0.0129969
-0.0130079
-0.0130062
-0.0129996
-0.0129969
-0.0129975
-0.0130117
-0.0130127
-0.0130078
-0.013008
-0.0130118
-0.013031
-0.0134086
-0.0134123
-0.0134247
-0.0134349
-0.0134575
-0.0134124
-0.0134153
-0.0134257
-0.0134346
-0.0134568
-0.0134248
-0.0134257
-0.013432
-0.0134365
-0.0134632
-0.0134351
-0.0134347
-0.0134365
-0.0134464
-0.0134812
-0.0134577
-0.0134571
-0.0134634
-0.0134813
-0.0135161
-0.0135621
-0.0136129
-0.013655
-0.0137088
-0.0137697
-0.0136129
-0.0136437
-0.0136759
-0.0137207
-0.0137777
-0.0136552
-0.0136761
-0.0137019
-0.0137385
-0.0137999
-0.0137091
-0.013721
-0.0137386
-0.0137743
-0.0138278
-0.0137701
-0.0137782
-0.0138002
-0.013828
-0.0138703
-0.0137433
-0.0137552
-0.0138065
-0.0138669
-0.013968
-0.0137552
-0.0137806
-0.0138233
-0.0138796
-0.0139759
-0.0138067
-0.0138234
-0.0138594
-0.01391
-0.0139913
-0.0138671
-0.0138798
-0.0139101
-0.0139506
-0.0140115
-0.0139683
-0.0139761
-0.0139915
-0.0140116
-0.0140574
-0.0134294
-0.0136525
-0.0137436
-0.0138971
-0.0140582
-0.0136525
-0.0137731
-0.013827
-0.0139374
-0.0140655
-0.0137438
-0.0138273
-0.0138833
-0.0139742
-0.0140797
-0.0138973
-0.0139378
-0.0139742
-0.0140292
-0.0141048
-0.0140587
-0.0140661
-0.01408
-0.0141052
-0.0141671
-0.013835
-0.0138061
-0.0138906
-0.0139373
-0.0140855
-0.0138062
-0.013874
-0.0139014
-0.0139531
-0.0140773
-0.0138907
-0.0139014
-0.0139316
-0.0139741
-0.01408
-0.0139374
-0.0139532
-0.0139743
-0.0139988
-0.0140834
-0.0140858
-0.0140775
-0.0140802
-0.0140835
-0.0141476
-0.0125825
-0.013555
-0.0136402
-0.0138566
-0.0140656
-0.013555
-0.0137629
-0.0137815
-0.0139022
-0.0140707
-0.0136402
-0.0137817
-0.0138329
-0.0139279
-0.0140867
-0.0138568
-0.0139026
-0.0139279
-0.0140036
-0.0141145
-0.014066
-0.0140716
-0.0140871
-0.014115
-0.0142032
-0.0129241
-0.0135028
-0.0136052
-0.0137544
-0.0140039
-0.0135028
-0.0139052
-0.0137576
-0.0138326
-0.0140114
-0.0136053
-0.0137576
-0.0137815
-0.01386
-0.0140202
-0.0137547
-0.0138328
-0.0138602
-0.0139047
-0.0140256
-0.0140042
-0.0140117
-0.0140205
-0.0140257
-0.014115
-0.00776489
-0.0122964
-0.0134538
-0.0136594
-0.0140111
-0.012295
-0.0132368
-0.0135451
-0.0137068
-0.0139775
-0.0134533
-0.0135452
-0.0136912
-0.0137885
-0.0140114
-0.0136597
-0.0137073
-0.0137886
-0.0138814
-0.0140251
-0.0140113
-0.0139785
-0.0140117
-0.0140257
-0.0141377
-0.0133388
-0.0152813
-0.0137076
-0.0138152
-0.0138907
-0.0152828
-0.0138509
-0.0137464
-0.0137068
-0.0138419
-0.0137074
-0.0137463
-0.0137032
-0.0137263
-0.0138486
-0.0138156
-0.013707
-0.0137265
-0.0137228
-0.0138261
-0.0138911
-0.0138422
-0.0138489
-0.0138262
-0.0139232
-0.0142245
-0.0137403
-0.0136175
-0.0136745
-0.0138848
-0.0137416
-0.013305
-0.013541
-0.0136533
-0.0137919
-0.013617
-0.013541
-0.0136326
-0.0136736
-0.0138245
-0.0136748
-0.0136538
-0.0136737
-0.0137333
-0.0138181
-0.0138849
-0.0137927
-0.0138247
-0.0138186
-0.013909
-0.0118975
-0.0130835
-0.0129866
-0.013305
-0.0134461
-0.0130833
-0.0132541
-0.0131677
-0.0132785
-0.0133917
-0.0129864
-0.0131676
-0.0131945
-0.0133017
-0.0134042
-0.013305
-0.0132784
-0.0133017
-0.013331
-0.0133953
-0.0134461
-0.0133921
-0.0134042
-0.0133953
-0.0134843
-0.0112193
-0.0119466
-0.0134394
-0.013438
-0.0134783
-0.0119445
-0.0122593
-0.0132612
-0.013402
-0.0134195
-0.0134387
-0.0132608
-0.0133338
-0.0133842
-0.0134315
-0.0134381
-0.0134023
-0.0133844
-0.0134127
-0.0134401
-0.0134779
-0.0134199
-0.0134315
-0.0134402
-0.0134925
-0.0146206
-0.0138215
-0.0131439
-0.0128879
-0.0128809
-0.0138203
-0.0128337
-0.0129469
-0.0128425
-0.0128317
-0.0131439
-0.0129469
-0.012877
-0.0128369
-0.0128108
-0.0128878
-0.0128425
-0.0128369
-0.0128047
-0.0127916
-0.0128807
-0.0128318
-0.0128107
-0.0127916
-0.0128026
-0.0128952
-0.0129258
-0.0127136
-0.0129487
-0.0128151
-0.0129257
-0.0129152
-0.0128913
-0.0129042
-0.0128515
-0.0127133
-0.0128913
-0.0128046
-0.0128865
-0.012839
-0.0129487
-0.0129043
-0.0128863
-0.012882
-0.0128554
-0.0128148
-0.0128517
-0.0128389
-0.0128555
-0.012856
-0.0117865
-0.0120251
-0.0119211
-0.0119144
-0.0118491
-0.012025
-0.0120824
-0.0119578
-0.0119237
-0.0118546
-0.011921
-0.0119577
-0.0118839
-0.0118792
-0.0118331
-0.0119144
-0.0119236
-0.0118792
-0.0118656
-0.0118273
-0.011849
-0.0118546
-0.011833
-0.0118273
-0.011821
-0.0116884
-0.0117912
-0.0116101
-0.0117096
-0.0116353
-0.0117911
-0.0117299
-0.0116832
-0.0117003
-0.01165
-0.0116101
-0.0116833
-0.0116495
-0.0116776
-0.0116467
-0.0117096
-0.0117003
-0.0116775
-0.011674
-0.011651
-0.0116353
-0.0116502
-0.0116467
-0.0116512
-0.0116551
-0.00976654
-0.00986247
-0.00978181
-0.00984229
-0.00985611
-0.00986255
-0.00988501
-0.00983169
-0.0098854
-0.00989039
-0.00978183
-0.0098317
-0.00983795
-0.00990175
-0.00990818
-0.00984225
-0.00988539
-0.00990177
-0.0099382
-0.00994474
-0.00985598
-0.00989033
-0.00990818
-0.00994473
-0.00995758
-0.00927764
-0.00915981
-0.00895591
-0.00892919
-0.00890062
-0.00915982
-0.00905469
-0.00893942
-0.00892928
-0.00890418
-0.00895592
-0.00893954
-0.00890653
-0.00891212
-0.00890204
-0.00892918
-0.00892935
-0.00891215
-0.0089122
-0.00889992
-0.00890061
-0.00890424
-0.00890208
-0.00889997
-0.00889984
-0.0066109
-0.00657685
-0.00649529
-0.00645636
-0.00642896
-0.00657684
-0.00654723
-0.00648339
-0.00643868
-0.00641958
-0.00649529
-0.00648353
-0.00643675
-0.00641064
-0.00640034
-0.00645639
-0.00643875
-0.0064107
-0.00639989
-0.00638703
-0.00642898
-0.00641959
-0.0064004
-0.00638705
-0.00638322
-0.00558657
-0.00549639
-0.00535676
-0.00528144
-0.00524302
-0.00549634
-0.00541888
-0.00531337
-0.00526301
-0.00522809
-0.00535664
-0.0053132
-0.00525556
-0.00522713
-0.00520416
-0.00528133
-0.00526287
-0.0052271
-0.00520701
-0.00518885
-0.0052428
-0.00522792
-0.00520406
-0.00518878
-0.00517952
-0.00221736
-0.00225057
-0.0022601
-0.00222849
-0.00221893
-0.00225053
-0.0022624
-0.0022557
-0.00221762
-0.00219905
-0.00226004
-0.00225553
-0.00223143
-0.00219937
-0.00218246
-0.00222842
-0.00221751
-0.00219936
-0.00217321
-0.00217361
-0.00221879
-0.00219894
-0.00218238
-0.00217359
-0.00217915
-0.00145524
-0.00135544
-0.00122826
-0.00119467
-0.00116668
-0.00135547
-0.00128478
-0.0012131
-0.00118738
-0.00116224
-0.00122817
-0.00121295
-0.00118384
-0.00117014
-0.0011516
-0.00119459
-0.00118725
-0.00117015
-0.00116239
-0.00114794
-0.00116649
-0.00116201
-0.00115151
-0.00114782
-0.00114072
-0.0150734
-0.0150721
-0.0133996
-0.0134897
-0.0124862
-0.0124858
-0.0125828
-0.0127107
-0.0127106
-0.0131199
-0.0125142
-0.0124093
-0.0124092
-0.0123315
-0.0105606
-0.0105591
-0.012989
-0.0143505
-0.016096
-0.0160941
-0.0137357
-0.0120082
-0.0120086
-0.0122214
-0.0102096
-0.0112705
-0.0112693
-0.0127828
-0.0142515
-0.0142528
-0.0135675
-0.0123944
-0.0129749
-0.012976
-0.0132415
-0.0131605
-0.0137815
-0.0130741
-0.0130855
-0.0134103
-0.0131998
-0.0134735
-0.0137821
-0.0131606
-0.0130734
-0.0130836
-0.013199
-0.0134119
-0.0134741
-0.0135832
-0.013815
-0.01317
-0.0131697
-0.0129297
-0.0136687
-0.0136683
-0.0132451
-0.0137
-0.0131372
-0.013443
-0.0125529
-0.0127554
-0.0123951
-0.0137001
-0.0132443
-0.0131366
-0.0134427
-0.012755
-0.0125525
-0.0123948
-0.0142325
-0.0134673
-0.0137564
-0.0123231
-0.0133041
-0.0140602
-0.0137669
-0.0142324
-0.0134668
-0.0137562
-0.0123229
-0.0133038
-0.0140602
-0.0137665
-0.0142278
-0.0142287
-0.0135237
-0.0147561
-0.0147169
-0.0147182
-0.0137767
-0.0131659
-0.0142492
-0.0142491
-0.0143957
-0.0138831
-0.0138632
-0.0138629
-0.0141923
-0.0145133
-0.0138591
-0.0133856
-0.0142156
-0.0126422
-0.014948
-0.0141928
-0.0145146
-0.0138608
-0.0133859
-0.0142173
-0.0126434
-0.0149481
-0.0148626
-0.0141371
-0.0141372
-0.0124226
-0.0145175
-0.0137302
-0.01373
-0.0140761
-0.0147357
-0.0147349
-0.0146291
-0.0148808
-0.0143749
-0.0143742
-0.0147636
-0.014901
-0.0147964
-0.0141259
-0.0149749
-0.0138672
-0.0147308
-0.0147634
-0.0148996
-0.0147954
-0.014125
-0.0149743
-0.0138667
-0.0147299
-0.0149149
-0.0149149
-0.0148352
-0.0154937
-0.0150077
-0.0153013
-0.0153014
-0.0140065
-0.0138629
-0.0136752
-0.0150275
-0.0137852
-0.0141387
-0.013693
-0.0138627
-0.0140076
-0.0136753
-0.0150276
-0.014138
-0.0137858
-0.0136936
-0.0156756
-0.0143669
-0.0151799
-0.0156596
-0.0156294
-0.0154106
-0.0158375
-0.0156763
-0.0143684
-0.0151812
-0.0156604
-0.0156297
-0.0154106
-0.0158377
-0.0167451
-0.0139938
-0.0139932
-0.0117209
-0.0158195
-0.0136669
-0.0136665
-0.0145017
-0.0145018
-0.015478
-0.0160304
-0.0141546
-0.0145682
-0.0145682
-0.0145438
-0.014543
-0.0148026
-0.0142234
-0.0136926
-0.0139137
-0.0139129
-0.0127625
-0.0125448
-0.0126923
-0.0139599
-0.0134096
-0.0136244
-0.0132414
-0.0125441
-0.0127602
-0.0126884
-0.0139582
-0.0136238
-0.0134082
-0.013239
-0.0137064
-0.0138285
-0.0141343
-0.0136288
-0.0140877
-0.0131701
-0.0133814
-0.0138275
-0.0137056
-0.0141334
-0.0136282
-0.0140871
-0.0131697
-0.0133808
-0.0148621
-0.015832
-0.0151147
-0.014852
-0.0150331
-0.0145749
-0.0143918
-0.0148603
-0.0158307
-0.0151137
-0.0148511
-0.0150306
-0.0145728
-0.0143901
-0.0121558
-0.0121551
-0.0121828
-0.0104116
-0.0118786
-0.0118783
-0.0131933
-0.0156024
-0.014138
-0.0141386
-0.0146641
-0.014959
-0.0151526
-0.0151528
-0.0143054
-0.0143048
-0.0158889
-0.0156733
-0.0136943
-0.0142301
-0.0142283
-0.0163181
-0.015681
-0.0138445
-0.0166875
-0.0167066
-0.0157651
-0.0160551
-0.016319
-0.015683
-0.0138437
-0.016687
-0.0167132
-0.0157652
-0.0160556
-0.0146817
-0.0132158
-0.0128857
-0.0144427
-0.0143935
-0.0139441
-0.0141531
-0.0146823
-0.0132152
-0.0128851
-0.0144436
-0.0143935
-0.013944
-0.0141535
-0.016921
-0.0147226
-0.0147217
-0.0141193
-0.0156516
-0.0148738
-0.0148741
-0.0129079
-0.0110712
-0.0110704
-0.0125839
-0.0110173
-0.0127076
-0.0127069
-0.0134237
-0.0108132
-0.0119572
-0.0112697
-0.010667
-0.0121498
-0.0130539
-0.0134226
-0.0108114
-0.011955
-0.0112675
-0.0106639
-0.0121474
-0.0130524
-0.0136949
-0.0139426
-0.0136308
-0.0136984
-0.0138069
-0.013373
-0.0134714
-0.0139413
-0.0136937
-0.0136297
-0.0136966
-0.0138043
-0.013371
-0.01347
-0.0115538
-0.0115545
-0.0123734
-0.00984235
-0.00520079
-0.00682295
-0.00682293
-0.0132854
-0.0127496
-0.0134723
-0.0139625
-0.0130023
-0.0132068
-0.013372
-0.0127493
-0.0132857
-0.0134727
-0.0139637
-0.0132066
-0.0130021
-0.0133726
-0.0150025
-0.0146549
-0.0144654
-0.0136504
-0.0136236
-0.0135346
-0.0139534
-0.0150051
-0.014655
-0.0144659
-0.0136505
-0.0136244
-0.0135349
-0.0139534
-0.012401
-0.0122062
-0.0122032
-0.0132577
-0.00969317
-0.0132393
-0.0132365
-0.014139
-0.0128681
-0.0136704
-0.0112638
-0.0128803
-0.0132981
-0.0103084
-0.0141425
-0.0128621
-0.0136696
-0.0112553
-0.0128806
-0.013297
-0.0103078
-0.0138844
-0.0138858
-0.0128279
-0.0117707
-0.0130058
-0.013012
-0.0130147
-0.0137477
-0.0137481
-0.0135247
-0.0137055
-0.0136234
-0.013624
-0.0135339
-0.00999533
-0.0099951
-0.010278
-0.0108202
-0.0095849
-0.010077
-0.0100762
-0.0128271
-0.0129557
-0.0128691
-0.0121774
-0.0133323
-0.0128068
-0.0133562
-0.0129551
-0.0128268
-0.0128706
-0.0121744
-0.0128038
-0.0133311
-0.0133531
-0.0120756
-0.0132166
-0.0131523
-0.0127417
-0.0129371
-0.0128582
-0.012712
-0.0120715
-0.0132142
-0.0131487
-0.0127405
-0.0129335
-0.0128554
-0.0127104
-0.0093612
-0.011795
-0.00948904
-0.0108496
-0.0121411
-0.0127311
-0.00987882
-0.00935986
-0.0117936
-0.00948798
-0.0108488
-0.0121391
-0.0127293
-0.00987743
-0.0143483
-0.0137895
-0.0146359
-0.0136928
-0.013613
-0.0139029
-0.0133809
-0.0143487
-0.0137892
-0.0146356
-0.0136933
-0.013613
-0.013903
-0.0133811
-0.0136044
-0.0136045
-0.0139091
-0.0107024
-0.0116679
-0.0116675
-0.0122891
-0.00795221
-0.00929481
-0.0092946
-0.00610672
-0.0104366
-0.00806594
-0.00806544
-0.012064
-0.0120616
-0.0102441
-0.0111643
-0.0133468
-0.0124322
-0.0124302
-0.00945477
-0.0113851
-0.0121854
-0.0114316
-0.0117111
-0.011685
-0.00855676
-0.00945396
-0.0113843
-0.012185
-0.0114308
-0.0117096
-0.0116837
-0.00855769
-0.0135089
-0.0132209
-0.0133599
-0.0128551
-0.0126087
-0.0131846
-0.0131587
-0.0135066
-0.0132213
-0.0133586
-0.0128541
-0.0126094
-0.0131845
-0.013158
-0.0131919
-0.0131895
-0.0132111
-0.0132818
-0.0134269
-0.0134247
-0.013138
-0.0137686
-0.0133106
-0.0134919
-0.0136232
-0.0132973
-0.0135954
-0.0135437
-0.0137678
-0.0133093
-0.0134905
-0.013619
-0.013293
-0.0135917
-0.0135403
-0.0105984
-0.0127414
-0.0127413
-0.0126688
-0.0127368
-0.012347
-0.0123482
-0.0111928
-0.0132588
-0.0123276
-0.0128113
-0.0128503
-0.0133834
-0.0132411
-0.0111911
-0.0132582
-0.0123265
-0.0128113
-0.0128479
-0.0133818
-0.0132405
)
;

boundaryField
{
    inlet
    {
        type            fixedValue;
        value           uniform 0;
    }
    wall
    {
        type            zeroGradient;
    }
    outlet
    {
        type            fixedValue;
        value           uniform 0;
    }
    procBoundary3to1
    {
        type            processor;
        value           nonuniform List<scalar> 
320
(
-0.000396211
-0.000396226
-0.000396224
-0.000396255
-0.000396322
-0.000784994
-0.000784979
-0.000784962
-0.000784967
-0.000784936
-0.00185245
-0.00185242
-0.0018524
-0.00185244
-0.00185251
-0.00239595
-0.00239591
-0.0023959
-0.00239594
-0.002396
-0.00339821
-0.00339817
-0.00339817
-0.00339825
-0.00339842
-0.00400698
-0.00400692
-0.00400696
-0.0040071
-0.00400735
-0.0049518
-0.00495175
-0.00495185
-0.00495206
-0.00495249
-0.00560739
-0.00560738
-0.00560756
-0.00560789
-0.00560854
-0.0065053
-0.00650531
-0.00650561
-0.00650612
-0.00650711
-0.00719462
-0.00719466
-0.00719515
-0.0071959
-0.00719739
-0.0080515
-0.00805159
-0.00805231
-0.0080534
-0.00805556
-0.00876165
-0.00876182
-0.00876294
-0.00876447
-0.00876764
-0.0095781
-0.00957837
-0.00957983
-0.0095819
-0.00958628
-0.0102944
-0.0102947
-0.0102966
-0.0102989
-0.0103049
-0.0110676
-0.0110664
-0.0110671
-0.0110681
-0.0110749
-0.0117853
-0.0117734
-0.0117643
-0.0117631
-0.0117698
-0.0124781
-0.0124683
-0.0124533
-0.0124407
-0.0124461
-0.013012
-0.0130128
-0.0130129
-0.0130104
-0.0130178
-0.0134143
-0.0134184
-0.0134319
-0.0134431
-0.0134659
-0.0135685
-0.01362
-0.0136634
-0.0137176
-0.0137792
-0.0137509
-0.0137629
-0.0138158
-0.0138765
-0.0139787
-0.0134375
-0.013663
-0.0137554
-0.0139102
-0.0140741
-0.0138453
-0.0138159
-0.0139035
-0.0139501
-0.014106
-0.0125951
-0.0135692
-0.0136553
-0.0138755
-0.0140884
-0.0129306
-0.013515
-0.0136247
-0.0137721
-0.0140321
-0.00774618
-0.0122984
-0.0134752
-0.0136841
-0.0140389
-0.0133401
-0.015286
-0.0137327
-0.0138358
-0.0139203
-0.0142439
-0.0137617
-0.0136388
-0.013696
-0.0139059
-0.011861
-0.0130986
-0.0130104
-0.0133193
-0.0134746
-0.0112216
-0.0119612
-0.0134774
-0.0134486
-0.0135048
-0.0146206
-0.0138324
-0.0131584
-0.0129044
-0.0129039
-0.0129095
-0.0129302
-0.0127329
-0.0129658
-0.0128341
-0.0117805
-0.0120386
-0.0119324
-0.0119282
-0.011868
-0.0116854
-0.0117962
-0.0116085
-0.0117144
-0.011635
-0.0097683
-0.00986195
-0.00978402
-0.00984146
-0.00985667
-0.00927505
-0.00916383
-0.00895347
-0.00892883
-0.00889821
-0.0066134
-0.00657915
-0.00649515
-0.00645389
-0.00642695
-0.00558789
-0.00550574
-0.00536152
-0.00528066
-0.00524318
-0.00221757
-0.00225623
-0.00226544
-0.00223408
-0.00222054
-0.00145298
-0.00135021
-0.00122822
-0.00119869
-0.00117072
-0.0134859
-0.0124893
-0.0150789
-0.0124975
-0.0124087
-0.0127074
-0.0143519
-0.0160826
-0.0105794
-0.0102036
-0.0112709
-0.0120107
-0.0123941
-0.0129849
-0.014265
-0.0130815
-0.0134237
-0.0131573
-0.0131655
-0.0136709
-0.0138167
-0.0134421
-0.0125562
-0.0132355
-0.0134675
-0.0137666
-0.0137551
-0.0147664
-0.0147379
-0.014232
-0.0144129
-0.0138817
-0.014265
-0.014528
-0.0149578
-0.0133927
-0.014625
-0.0143718
-0.0147354
-0.0149015
-0.0147286
-0.0141221
-0.0149265
-0.0153037
-0.0150116
-0.0150107
-0.0137861
-0.0140013
-0.0156116
-0.0158329
-0.0156754
-0.0145432
-0.0139228
-0.0136976
-0.0139692
-0.0134253
-0.0127533
-0.0141315
-0.0133698
-0.0136981
-0.0150558
-0.0144118
-0.0148589
-0.0104109
-0.0118635
-0.0121414
-0.0146662
-0.0151547
-0.014143
-0.015692
-0.0160538
-0.0166722
-0.0131959
-0.0141447
-0.0144482
-0.0125889
-0.0127176
-0.0110789
-0.0108436
-0.0130726
-0.0112756
-0.0136738
-0.0134307
-0.0137356
-0.0115583
-0.0068279
-0.0051993
-0.013952
-0.0129999
-0.0132902
-0.0146548
-0.0139444
-0.0136127
-0.0128963
-0.0102893
-0.0141528
-0.00997745
-0.0100432
-0.00956094
-0.0121602
-0.0133383
-0.0128328
-0.0132103
-0.0127012
-0.0127502
-0.0121205
-0.0098649
-0.00937989
-0.0107015
-0.0116752
-0.0136222
-0.00610868
-0.00807717
-0.00928218
-0.0113686
-0.00857752
-0.011447
-0.0132135
-0.0131806
-0.0128706
)
;
    }
    procBoundary3to2
    {
        type            processor;
        value           nonuniform List<scalar> 
320
(
-0.000396212
-0.000396227
-0.000396225
-0.000396256
-0.000396324
-0.000784995
-0.00078498
-0.000784964
-0.000784969
-0.000784939
-0.00185245
-0.00185243
-0.00185241
-0.00185244
-0.00185251
-0.00239595
-0.00239592
-0.0023959
-0.00239595
-0.00239601
-0.00339822
-0.00339817
-0.00339818
-0.00339826
-0.00339843
-0.00400698
-0.00400693
-0.00400697
-0.00400711
-0.00400736
-0.00495181
-0.00495176
-0.00495186
-0.00495208
-0.00495251
-0.00560739
-0.00560738
-0.00560757
-0.00560791
-0.00560856
-0.00650531
-0.00650532
-0.00650563
-0.00650614
-0.00650714
-0.00719463
-0.00719467
-0.00719518
-0.00719593
-0.00719744
-0.00805151
-0.0080516
-0.00805234
-0.00805343
-0.00805561
-0.00876167
-0.00876185
-0.00876298
-0.00876452
-0.00876771
-0.00957812
-0.0095784
-0.00957987
-0.00958194
-0.00958635
-0.0102944
-0.0102947
-0.0102967
-0.010299
-0.010305
-0.0110676
-0.0110665
-0.0110672
-0.0110682
-0.0110751
-0.0117853
-0.0117735
-0.0117644
-0.0117632
-0.01177
-0.0124782
-0.0124684
-0.0124534
-0.0124409
-0.0124462
-0.0130122
-0.013013
-0.0130131
-0.0130107
-0.0130181
-0.0134144
-0.0134186
-0.0134322
-0.0134434
-0.0134662
-0.0135687
-0.0136203
-0.0136638
-0.013718
-0.0137798
-0.013751
-0.013763
-0.013816
-0.0138768
-0.0139792
-0.0134377
-0.0136633
-0.0137559
-0.0139108
-0.0140751
-0.0138454
-0.013816
-0.0139037
-0.0139503
-0.0141064
-0.0125952
-0.0135695
-0.0136557
-0.0138761
-0.0140895
-0.0129307
-0.0135151
-0.0136248
-0.0137726
-0.0140327
-0.00774608
-0.012298
-0.0134754
-0.013685
-0.0140402
-0.0133402
-0.0152865
-0.0137326
-0.0138364
-0.0139211
-0.0142441
-0.0137641
-0.0136397
-0.0136969
-0.013907
-0.0118601
-0.0130976
-0.0130102
-0.0133191
-0.013475
-0.011221
-0.0119586
-0.0134768
-0.0134486
-0.0135049
-0.0146199
-0.0138311
-0.0131583
-0.0129042
-0.0129039
-0.0129093
-0.0129299
-0.0127329
-0.0129658
-0.0128342
-0.0117803
-0.0120384
-0.0119322
-0.011928
-0.011868
-0.0116854
-0.0117961
-0.0116085
-0.0117144
-0.0116351
-0.0097682
-0.00986195
-0.00978402
-0.00984141
-0.00985655
-0.00927495
-0.00916379
-0.00895339
-0.00892872
-0.00889808
-0.00661324
-0.00657909
-0.00649507
-0.00645384
-0.0064269
-0.00558765
-0.00550556
-0.0053613
-0.00528044
-0.00524285
-0.00221748
-0.00225607
-0.00226529
-0.0022338
-0.00222022
-0.00145285
-0.00135012
-0.00122801
-0.00119849
-0.00117036
-0.0150772
-0.0124887
-0.0134857
-0.0127071
-0.0124086
-0.0124973
-0.0105776
-0.0160804
-0.0143513
-0.0120099
-0.0112696
-0.0102028
-0.0142666
-0.0129876
-0.0123925
-0.0131557
-0.0134246
-0.0130786
-0.0138163
-0.0136702
-0.0131651
-0.0132348
-0.0125558
-0.0134416
-0.0137546
-0.0137658
-0.0134666
-0.0142323
-0.0147376
-0.0147664
-0.0142651
-0.0138822
-0.0144134
-0.0133945
-0.014959
-0.0145301
-0.0147339
-0.0143706
-0.0146244
-0.0141209
-0.0147273
-0.0148995
-0.0150117
-0.0153039
-0.0149265
-0.014002
-0.0137869
-0.0150098
-0.0156766
-0.0158336
-0.015612
-0.0136969
-0.0139214
-0.0145418
-0.012752
-0.0134236
-0.0139672
-0.0136972
-0.0133692
-0.0141305
-0.0148566
-0.0144097
-0.0150528
-0.0121416
-0.011862
-0.0104109
-0.0141432
-0.0151549
-0.0146663
-0.0166719
-0.016054
-0.0156924
-0.0144487
-0.014145
-0.0131944
-0.0110776
-0.0127163
-0.0125882
-0.0112734
-0.0130709
-0.0108421
-0.0137329
-0.0134292
-0.0136725
-0.00519902
-0.00682757
-0.0115585
-0.0132906
-0.0130002
-0.0139521
-0.0136131
-0.0139443
-0.014655
-0.0141537
-0.010288
-0.0128965
-0.00956087
-0.0100424
-0.00997641
-0.0128319
-0.0133375
-0.0121575
-0.0127485
-0.0126995
-0.0132075
-0.00937823
-0.00986357
-0.0121185
-0.0136223
-0.0116751
-0.0107014
-0.00928214
-0.00807679
-0.00610817
-0.0114473
-0.00857783
-0.0113684
-0.0128712
-0.0131806
-0.0132136
)
;
    }
}


// ************************************************************************* //
