/*--------------------------------*- C++ -*----------------------------------*\
| =========                 |                                                 |
| \\      /  F ield         | OpenFOAM: The Open Source CFD Toolbox           |
|  \\    /   O peration     | Version:  5.x                                   |
|   \\  /    A nd           | Web:      www.OpenFOAM.org                      |
|    \\/     M anipulation  |                                                 |
\*---------------------------------------------------------------------------*/
FoamFile
{
    version     2.0;
    format      ascii;
    class       volVectorField;
    location    "0.09";
    object      U;
}
// * * * * * * * * * * * * * * * * * * * * * * * * * * * * * * * * * * * * * //

dimensions      [0 1 -1 0 0 0 0];

internalField   nonuniform List<vector> 
1553
(
(-3.31724e-05 -3.28857e-05 0.0517188)
(-3.54974e-06 -3.4331e-05 0.0517193)
(3.59549e-06 -3.75114e-05 0.0517238)
(2.75222e-05 -3.84673e-05 0.0517316)
(3.04215e-05 -4.17559e-05 0.0517671)
(-3.46181e-05 -3.26665e-06 0.0517193)
(-5.01775e-06 -4.74291e-06 0.0517203)
(2.25194e-06 -7.87518e-06 0.0517248)
(2.60519e-05 -8.94587e-06 0.0517329)
(2.92151e-05 -1.24876e-05 0.0517679)
(-3.78054e-05 3.80391e-06 0.0517238)
(-8.15826e-06 2.45301e-06 0.0517249)
(-6.07479e-07 -4.05155e-07 0.0517282)
(2.29091e-05 -1.40702e-06 0.0517362)
(2.68178e-05 -4.64069e-06 0.0517693)
(-3.87592e-05 2.76959e-05 0.0517316)
(-9.22681e-06 2.62253e-05 0.0517329)
(-1.60809e-06 2.30821e-05 0.0517362)
(2.18158e-05 2.19877e-05 0.0517443)
(2.59236e-05 1.85938e-05 0.0517769)
(-4.20485e-05 3.04703e-05 0.0517672)
(-1.27715e-05 2.92626e-05 0.0517679)
(-4.84449e-06 2.68637e-05 0.0517693)
(1.84208e-05 2.59685e-05 0.0517769)
(2.33599e-05 2.34047e-05 0.0518072)
(-2.35168e-05 -2.30967e-05 -0.0305316)
(-1.88402e-05 -2.42762e-05 -0.0305328)
(-1.59552e-05 -2.58492e-05 -0.0305331)
(-1.88953e-05 -2.66756e-05 -0.0305348)
(-1.13779e-05 -2.79176e-05 -0.0305405)
(-2.4696e-05 -1.84169e-05 -0.0305328)
(-2.00581e-05 -1.96386e-05 -0.0305341)
(-1.69995e-05 -2.1231e-05 -0.0305345)
(-1.97615e-05 -2.20548e-05 -0.0305364)
(-1.1879e-05 -2.32645e-05 -0.0305421)
(-2.62714e-05 -1.55766e-05 -0.030533)
(-2.16544e-05 -1.66208e-05 -0.0305345)
(-1.83714e-05 -1.79934e-05 -0.0305352)
(-2.09291e-05 -1.86865e-05 -0.0305371)
(-1.26139e-05 -1.97285e-05 -0.0305429)
(-2.70963e-05 -1.85198e-05 -0.0305347)
(-2.24749e-05 -1.93821e-05 -0.0305363)
(-1.90652e-05 -2.05519e-05 -0.0305371)
(-2.14968e-05 -2.11179e-05 -0.0305391)
(-1.29448e-05 -2.20148e-05 -0.0305449)
(-2.83398e-05 -1.11415e-05 -0.0305404)
(-2.36861e-05 -1.16428e-05 -0.030542)
(-2.01069e-05 -1.2379e-05 -0.0305428)
(-2.2392e-05 -1.27082e-05 -0.0305449)
(-1.35333e-05 -1.32967e-05 -0.0305506)
(-3.46598e-05 -3.43071e-05 0.0402821)
(-4.70363e-06 -3.61248e-05 0.040282)
(2.04872e-06 -3.96341e-05 0.0402935)
(2.07091e-05 -4.08699e-05 0.0402968)
(2.52751e-05 -4.42359e-05 0.0403246)
(-3.64759e-05 -4.35287e-06 0.0402821)
(-6.49972e-06 -6.15105e-06 0.040282)
(4.22481e-07 -9.81754e-06 0.0402931)
(1.91045e-05 -1.10875e-05 0.0402964)
(2.4044e-05 -1.47195e-05 0.0403237)
(-3.99895e-05 2.33104e-06 0.0402936)
(-1.01683e-05 7.00763e-07 0.0402932)
(-2.88772e-06 -2.60436e-06 0.040303)
(1.58064e-05 -3.78294e-06 0.040306)
(2.15731e-05 -7.12359e-06 0.0403318)
(-4.12251e-05 2.09688e-05 0.040297)
(-1.14351e-05 1.93631e-05 0.0402965)
(-4.06122e-06 1.60677e-05 0.040306)
(1.45846e-05 1.48429e-05 0.0403089)
(2.06377e-05 1.14325e-05 0.0403344)
(-4.45911e-05 2.53901e-05 0.0403248)
(-1.50686e-05 2.41599e-05 0.0403238)
(-7.40719e-06 2.16866e-05 0.0403319)
(1.11712e-05 2.07482e-05 0.0403344)
(1.80919e-05 1.82025e-05 0.0403581)
(-3.13714e-05 -3.08394e-05 -0.0196782)
(-7.48073e-06 -3.24127e-05 -0.0196795)
(-1.21027e-06 -3.53797e-05 -0.0196697)
(1.20957e-05 -3.64857e-05 -0.0196685)
(1.76985e-05 -3.92817e-05 -0.0196514)
(-3.29449e-05 -6.94306e-06 -0.0196794)
(-9.0919e-06 -8.55802e-06 -0.0196808)
(-2.67312e-06 -1.17713e-05 -0.0196715)
(1.07015e-05 -1.29588e-05 -0.0196705)
(1.66714e-05 -1.61132e-05 -0.019654)
(-3.59128e-05 -7.43716e-07 -0.0196695)
(-1.2309e-05 -2.20912e-06 -0.0196714)
(-5.61109e-06 -5.14596e-06 -0.0196635)
(7.75301e-06 -6.22318e-06 -0.0196629)
(1.44774e-05 -9.12302e-06 -0.0196476)
(-3.70184e-05 1.25432e-05 -0.0196683)
(-1.34941e-05 1.11509e-05 -0.0196704)
(-6.68719e-06 8.1988e-06 -0.0196628)
(6.72358e-06 7.17406e-06 -0.0196623)
(1.37078e-05 4.24945e-06 -0.0196476)
(-3.98162e-05 1.79745e-05 -0.0196511)
(-1.66526e-05 1.6948e-05 -0.0196537)
(-9.58709e-06 1.47493e-05 -0.0196475)
(3.80366e-06 1.39843e-05 -0.0196474)
(1.14822e-05 1.17587e-05 -0.0196341)
(-4.06767e-05 -4.01617e-05 0.03105)
(3.93549e-06 -4.26176e-05 0.0310494)
(1.31035e-05 -4.76609e-05 0.0310711)
(3.91823e-05 -4.93879e-05 0.0310752)
(4.36044e-05 -5.41842e-05 0.0311159)
(-4.31262e-05 4.4543e-06 0.0310495)
(1.44701e-06 1.95907e-06 0.0310487)
(1.07832e-05 -3.53106e-06 0.0310696)
(3.68763e-05 -5.34053e-06 0.0310735)
(4.18394e-05 -1.08336e-05 0.0311134)
(-4.81794e-05 1.35412e-05 0.0310713)
(-4.04986e-06 1.12014e-05 0.0310697)
(5.80392e-06 6.25265e-06 0.0310886)
(3.18783e-05 4.51398e-06 0.0310918)
(3.79948e-05 -6.01613e-07 0.0311295)
(-4.99159e-05 3.95982e-05 0.0310755)
(-5.84153e-06 3.72972e-05 0.0310737)
(4.09578e-06 3.22923e-05 0.0310919)
(3.00206e-05 3.04484e-05 0.031095)
(3.66112e-05 2.50753e-05 0.0311319)
(-5.46977e-05 4.38357e-05 0.0311163)
(-1.13543e-05 4.20885e-05 0.0311137)
(-1.04349e-06 3.82064e-05 0.0311297)
(2.46613e-05 3.68366e-05 0.0311321)
(3.2496e-05 3.27214e-05 0.0311665)
(-4.20332e-05 -4.12953e-05 -0.0118779)
(1.34627e-05 -4.38038e-05 -0.0118785)
(2.44188e-05 -4.91716e-05 -0.0118506)
(5.66561e-05 -5.09492e-05 -0.0118452)
(6.03772e-05 -5.60432e-05 -0.0117963)
(-4.45502e-05 1.42244e-05 -0.0118784)
(1.089e-05 1.16451e-05 -0.0118793)
(2.1985e-05 5.59515e-06 -0.0118525)
(5.43125e-05 3.56539e-06 -0.0118474)
(5.85508e-05 -2.57109e-06 -0.0117995)
(-4.99193e-05 2.50847e-05 -0.0118503)
(4.83348e-06 2.26447e-05 -0.0118523)
(1.63391e-05 1.69988e-05 -0.0118285)
(4.8488e-05 1.50889e-05 -0.0118244)
(5.40987e-05 9.27965e-06 -0.01178)
(-5.16944e-05 5.7291e-05 -0.0118449)
(2.80413e-06 5.49445e-05 -0.0118471)
(1.44292e-05 4.91308e-05 -0.0118243)
(4.65914e-05 4.7227e-05 -0.0118205)
(5.26013e-05 4.11789e-05 -0.011777)
(-5.6797e-05 6.07769e-05 -0.0117958)
(-3.32489e-06 5.89471e-05 -0.011799)
(8.62357e-06 5.45057e-05 -0.0117797)
(4.05361e-05 5.30012e-05 -0.0117768)
(4.78896e-05 4.82895e-05 -0.0117373)
(-5.11249e-05 -5.03339e-05 0.0241417)
(3.14577e-05 -5.41846e-05 0.0241425)
(4.65499e-05 -6.23619e-05 0.0241882)
(9.38085e-05 -6.501e-05 0.024198)
(9.55451e-05 -7.28808e-05 0.024277)
(-5.49405e-05 3.22482e-05 0.0241426)
(2.75036e-05 2.8304e-05 0.0241433)
(4.29088e-05 1.8695e-05 0.0241873)
(9.02111e-05 1.56015e-05 0.0241967)
(9.2724e-05 5.58716e-06 0.0242741)
(-6.31325e-05 4.72279e-05 0.0241886)
(1.79046e-05 4.35934e-05 0.0241876)
(3.38475e-05 3.45348e-05 0.0242282)
(8.06976e-05 3.15694e-05 0.0242362)
(8.52978e-05 2.1976e-05 0.0243097)
(-6.57787e-05 9.44685e-05 0.0241985)
(1.48104e-05 9.08767e-05 0.024197)
(3.08848e-05 8.13552e-05 0.0242363)
(7.76492e-05 7.83108e-05 0.0242438)
(8.28968e-05 6.7955e-05 0.0243157)
(-7.36497e-05 9.59584e-05 0.0242778)
(4.79425e-06 9.31461e-05 0.0242748)
(2.12848e-05 8.57092e-05 0.0243101)
(6.72974e-05 8.33122e-05 0.024316)
(7.4672e-05 7.50874e-05 0.0243831)
(-5.51402e-05 -5.40729e-05 -0.00629606)
(5.97633e-05 -5.78507e-05 -0.00629315)
(7.97742e-05 -6.74874e-05 -0.00622869)
(0.000145237 -7.05097e-05 -0.00621278)
(0.000143413 -7.95731e-05 -0.00610337)
(-5.89741e-05 6.09262e-05 -0.00629302)
(5.54975e-05 5.66194e-05 -0.00629115)
(7.51631e-05 4.53833e-05 -0.00622817)
(0.000140878 4.15684e-05 -0.00621307)
(0.000139988 2.99746e-05 -0.00610602)
(-6.86031e-05 8.08285e-05 -0.00622829)
(4.42205e-05 7.61843e-05 -0.00622789)
(6.47232e-05 6.57469e-05 -0.00617172)
(0.000129824 6.20096e-05 -0.00615862)
(0.000131516 5.06626e-05 -0.00605887)
(-7.16255e-05 0.000146214 -0.00621229)
(4.04158e-05 0.000141897 -0.0062127)
(6.09884e-05 0.000130821 -0.00615854)
(0.000125789 0.000126792 -0.00614626)
(0.000128332 0.000114473 -0.00604899)
(-8.06807e-05 0.000144061 -0.00610259)
(2.88319e-05 0.000140671 -0.00610535)
(4.96228e-05 0.000132175 -0.0060585)
(0.000113476 0.000128996 -0.00604869)
(0.000118833 0.000119497 -0.00596011)
(-6.42929e-05 -6.31375e-05 0.0189471)
(9.90622e-05 -6.95215e-05 0.0189558)
(0.000127189 -8.33332e-05 0.0190545)
(0.000219655 -8.79206e-05 0.0190812)
(0.0002112 -0.000101923 0.0192447)
(-7.06618e-05 0.000100254 0.018956)
(9.25737e-05 9.37887e-05 0.0189629)
(0.000121242 7.58715e-05 0.0190585)
(0.000212888 6.99647e-05 0.0190839)
(0.000205952 5.02672e-05 0.0192447)
(-8.44801e-05 0.000128227 0.0190551)
(7.46794e-05 0.000122295 0.019059)
(0.000103365 0.00010441 0.0191481)
(0.000194044 9.86135e-05 0.0191703)
(0.000190994 7.92111e-05 0.0193227)
(-8.90724e-05 0.000220686 0.019082)
(6.8757e-05 0.000213938 0.0190846)
(9.75612e-05 0.000195072 0.0191704)
(0.000187681 0.000188718 0.0191913)
(0.000186022 0.00016694 0.0193396)
(-0.000103074 0.000211896 0.0192459)
(4.90722e-05 0.000206675 0.0192459)
(7.81535e-05 0.000191703 0.0193233)
(0.000165911 0.00018674 0.0193402)
(0.000168585 0.000169303 0.0194781)
(-6.63318e-05 -6.46166e-05 -0.00257098)
(0.000166817 -7.18432e-05 -0.00255411)
(0.000204858 -8.84634e-05 -0.00241222)
(0.000335161 -9.3945e-05 -0.0023668)
(0.00031521 -0.000110035 -0.0021337)
(-7.35554e-05 0.000168655 -0.00255402)
(0.000157719 0.000159555 -0.00253938)
(0.000195925 0.000138717 -0.00240195)
(0.000326798 0.000130422 -0.0023591)
(0.000308972 0.000107768 -0.00213084)
(-9.01956e-05 0.000206495 -0.00241168)
(0.000136879 0.000197595 -0.00240149)
(0.000175725 0.000177371 -0.00227665)
(0.000304201 0.000169094 -0.0022385)
(0.000291886 0.000145347 -0.00202631)
(-9.56608e-05 0.000336718 -0.00236617)
(0.000128594 0.000328553 -0.00235857)
(0.000167424 0.000305831 -0.00223843)
(0.000294762 0.00029643 -0.0022032)
(0.000284517 0.000270025 -0.0019973)
(-0.000111717 0.000316291 -0.00213267)
(0.000106004 0.000310217 -0.00212979)
(0.000143615 0.000293031 -0.00202577)
(0.000268395 0.0002857 -0.00199681)
(0.000264623 0.000265806 -0.00181056)
(-7.24922e-05 -7.08744e-05 0.0149053)
(0.000258168 -8.17015e-05 0.0149401)
(0.000314896 -0.000106788 0.0151533)
(0.000499014 -0.000115448 0.0152263)
(0.000456974 -0.000141428 0.0155712)
(-8.33202e-05 0.0002599 0.0149403)
(0.000244983 0.000246742 0.0149725)
(0.00030191 0.000211754 0.0151773)
(0.000484821 0.00019856 0.0152476)
(0.000446713 0.000157926 0.0155817)
(-0.000108409 0.000316469 0.0151544)
(0.000210022 0.000303485 0.0151782)
(0.000266714 0.000268288 0.015369)
(0.000445169 0.000254849 0.0154307)
(0.000415155 0.000213058 0.0157477)
(-0.000117088 0.00050054 0.0152277)
(0.000196802 0.000486468 0.0152487)
(0.000253274 0.000446738 0.0154309)
(0.00042957 0.000431167 0.0154885)
(0.000403655 0.00038295 0.0157938)
(-0.000143024 0.000458078 0.0155736)
(0.000156238 0.000447965 0.0155836)
(0.000211435 0.000416329 0.0157489)
(0.000381381 0.000404858 0.0157948)
(0.000365398 0.000366601 0.0160763)
(-6.02401e-05 -5.75549e-05 -0.000595518)
(0.000414322 -7.01242e-05 -0.000532719)
(0.000490594 -0.000101716 -0.000228274)
(0.000752773 -0.000111903 -9.82455e-05)
(0.00067736 -0.000144478 0.000392775)
(-7.27939e-05 0.000417287 -0.000532734)
(0.000394316 0.0003973 -0.000477172)
(0.000470514 0.000354119 -0.000180126)
(0.000730846 0.000334441 -5.8773e-05)
(0.000660043 0.000284 0.000419599)
(-0.000104431 0.000493343 -0.000227614)
(0.000351154 0.000473275 -0.000179419)
(0.000427738 0.000430488 8.87472e-05)
(0.000682625 0.000409619 0.000197266)
(0.000625353 0.000357144 0.000640311)
(-0.000114611 0.000755589 -9.75951e-05)
(0.000331458 0.00073369 -5.80725e-05)
(0.000406857 0.000685419 0.000197252)
(0.000657467 0.00066029 0.000295253)
(0.00060585 0.000599014 0.000720595)
(-0.000147251 0.000679474 0.000394177)
(0.000281013 0.000662192 0.000420995)
(0.000354372 0.000627462 0.000641036)
(0.00059622 0.000607988 0.000721344)
(0.000561965 0.000564103 0.00110236)
(-4.77432e-05 -4.56159e-05 0.0113464)
(0.000625943 -6.61881e-05 0.0114696)
(0.000749962 -0.000112186 0.0119339)
(0.00112148 -0.000131498 0.0121347)
(0.000973863 -0.000183225 0.0128618)
(-6.83453e-05 0.000628335 0.0114698)
(0.000598098 0.00060055 0.0115854)
(0.000720879 0.000529244 0.0120204)
(0.00108592 0.000494513 0.0122134)
(0.000950492 0.000405851 0.0129117)
(-0.000114342 0.0007522 0.0119357)
(0.000526853 0.000723155 0.0120222)
(0.000643929 0.000646196 0.0124257)
(0.000998036 0.000609376 0.0125942)
(0.000882293 0.00051449 0.0132502)
(-0.000133678 0.00112374 0.0121368)
(0.000492091 0.00108826 0.0122154)
(0.0006071 0.00100033 0.0125944)
(0.000954159 0.000956493 0.0127505)
(0.000852394 0.000845349 0.0133715)
(-0.000185398 0.000975725 0.0128657)
(0.000403485 0.000952445 0.0129156)
(0.000512219 0.000884211 0.0132522)
(0.000843054 0.000854351 0.0133734)
(0.000767262 0.000769219 0.0139357)
(2.14914e-05 2.56907e-05 -0.000645417)
(0.00100111 7.45576e-07 -0.000439159)
(0.00115495 -7.03262e-05 0.000205859)
(0.00168048 -9.14314e-05 0.000587972)
(0.00144054 -0.000163595 0.00161427)
(-3.42501e-06 0.0010059 -0.000439485)
(0.000944393 0.000949285 -0.000260212)
(0.00109773 0.000845363 0.000377673)
(0.00162188 0.000793401 0.000722142)
(0.00139364 0.000671931 0.00171699)
(-7.45813e-05 0.0011596 0.000206515)
(0.000840575 0.00110248 0.000378825)
(0.000999081 0.00100376 0.000951406)
(0.00150696 0.000946089 0.00125526)
(0.00131515 0.000816429 0.00217058)
(-9.5652e-05 0.00168536 0.000588364)
(0.000788538 0.00162691 0.000722913)
(0.000941339 0.00151179 0.00125494)
(0.00143445 0.00143938 0.0015197)
(0.00125953 0.00128545 0.00238016)
(-0.000167987 0.00144447 0.00161558)
(0.000667083 0.00139773 0.00171893)
(0.000811654 0.00131909 0.00217133)
(0.00128063 0.00126359 0.00238129)
(0.00115576 0.00115982 0.00314466)
(0.000101119 0.00010354 0.00716776)
(0.00147813 5.593e-05 0.00759187)
(0.00177803 -2.45775e-05 0.0086033)
(0.00253246 -8.21985e-05 0.00916947)
(0.00205366 -0.000192061 0.010713)
(5.33629e-05 0.00148118 0.00759155)
(0.0014161 0.00141937 0.00798395)
(0.00170412 0.00127556 0.00888243)
(0.00242772 0.0011625 0.00942641)
(0.00199743 0.00096275 0.010879)
(-2.71071e-05 0.00178099 0.00860611)
(0.00127251 0.00170716 0.00888583)
(0.00152118 0.00152428 0.00972866)
(0.00221953 0.00140768 0.0102038)
(0.00184643 0.00117825 0.0115503)
(-8.48443e-05 0.00253538 0.00917256)
(0.00115936 0.00243084 0.00943015)
(0.00140463 0.00222257 0.0102039)
(0.00208151 0.00208466 0.0106303)
(0.00175949 0.00181999 0.0118702)
(-0.000194628 0.00205645 0.0107194)
(0.000959821 0.00200056 0.0108866)
(0.00117518 0.00184942 0.0115539)
(0.00181695 0.00176259 0.011874)
(0.00157162 0.00157472 0.0129656)
(0.0003854 0.000391828 -0.00412723)
(0.00243541 0.000327504 -0.00332525)
(0.00273096 0.000127907 -0.00181484)
(0.0037902 7.9277e-05 -0.000670477)
(0.00306059 -0.000105651 0.00148971)
(0.000321135 0.002443 -0.00332629)
(0.00223413 0.00224209 -0.00265005)
(0.00253874 0.00196973 -0.0012042)
(0.00361847 0.00182688 -0.000232874)
(0.0029199 0.0015085 0.0018156)
(0.000121372 0.00273903 -0.0018148)
(0.00196214 0.00254722 -0.00120272)
(0.00231578 0.00232391 1.64503e-05)
(0.00332874 0.0021488 0.00085749)
(0.00273158 0.00180687 0.00272873)
(7.28866e-05 0.00379868 -0.000671217)
(0.00181899 0.0036278 -0.000232346)
(0.00214031 0.00333711 0.000856622)
(0.00310109 0.00310991 0.00156669)
(0.00256559 0.00270284 0.00325515)
(-0.000112475 0.00306787 0.00149013)
(0.00150079 0.00292798 0.00181762)
(0.00179823 0.00273903 0.00272917)
(0.00269447 0.0025735 0.00325658)
(0.00230953 0.00231743 0.0047473)
(0.000799423 0.000801762 -0.000254694)
(0.00379247 0.000628914 0.00119)
(0.00443432 0.000433314 0.00346522)
(0.00584165 0.000217278 0.00536587)
(0.00432645 -5.31766e-05 0.00856702)
(0.000626265 0.00379556 0.00118942)
(0.00353979 0.00354352 0.00239606)
(0.00412248 0.00310813 0.00446179)
(0.00545204 0.00269154 0.00616253)
(0.00415363 0.00220273 0.00910368)
(0.0004309 0.00443758 0.00347016)
(0.00310504 0.00412605 0.00446883)
(0.00358252 0.00358624 0.00636835)
(0.00493604 0.00320825 0.00775893)
(0.00381731 0.00261812 0.0104525)
(0.000214716 0.00584496 0.00537038)
(0.00268827 0.0054557 0.00616879)
(0.00320468 0.00493952 0.00775825)
(0.0044833 0.00448701 0.00891535)
(0.00353988 0.00383942 0.0113094)
(-5.55499e-05 0.00433042 0.00857801)
(0.00219981 0.00415827 0.00911835)
(0.00261445 0.00382163 0.0104588)
(0.00383594 0.00354443 0.0113171)
(0.00314239 0.00314694 0.013372)
(0.00176646 0.00177592 -0.0139778)
(0.00615391 0.00147102 -0.0111396)
(0.00690366 0.000999606 -0.0077399)
(0.00889239 0.000740174 -0.00441289)
(0.00642361 0.000240879 3.93544e-05)
(0.00146223 0.00616643 -0.0111414)
(0.00550419 0.00551861 -0.00885342)
(0.00630199 0.00487076 -0.00596159)
(0.00826073 0.00421841 -0.00311089)
(0.00601358 0.00339289 0.00088268)
(0.000989462 0.00691682 -0.00774117)
(0.00485823 0.00631672 -0.00596067)
(0.00560299 0.00561748 -0.0033394)
(0.00741383 0.00489925 -0.00091191)
(0.00556775 0.00401202 0.00274801)
(0.000730532 0.00890693 -0.00441527)
(0.00420533 0.0082777 -0.00311114)
(0.00488452 0.00742859 -0.000913576)
(0.00665419 0.00667005 0.000952105)
(0.00509063 0.00562665 0.00400637)
(0.00022983 0.00643744 3.72402e-05)
(0.00338057 0.00603017 0.000883351)
(0.00399642 0.00558235 0.00274735)
(0.00561189 0.00510634 0.00400751)
(0.00448274 0.00449845 0.00673086)
(0.00353281 0.00353356 -0.0184712)
(0.0100319 0.00281036 -0.0121603)
(0.0111622 0.00203119 -0.00634627)
(0.0136311 0.00133465 -0.000245205)
(0.00900591 0.000507525 0.00630316)
(0.00280885 0.0100337 -0.0121635)
(0.00872108 0.00872391 -0.00745129)
(0.00986672 0.00751145 -0.00282364)
(0.0123058 0.0061949 0.0021254)
(0.00835813 0.00491162 0.00777937)
(0.00203044 0.0111649 -0.00633912)
(0.00750964 0.00987005 -0.00280971)
(0.00863402 0.008637 0.00126771)
(0.0110299 0.00727237 0.0052986)
(0.00767099 0.0057403 0.010415)
(0.00133347 0.0136336 -0.000239944)
(0.00619236 0.0123092 0.00213492)
(0.00726905 0.0110327 0.00529508)
(0.00940709 0.00941028 0.00820107)
(0.00676297 0.00782378 0.0124015)
(0.000506843 0.00901015 0.00631946)
(0.00491016 0.00836373 0.00780518)
(0.00573711 0.00767633 0.010425)
(0.00782095 0.00676868 0.0124161)
(0.00601196 0.00601766 0.0162815)
(0.00794694 0.00796127 -0.0413488)
(0.0182799 0.00607275 -0.030487)
(0.0188197 0.00431581 -0.0215548)
(0.021547 0.00293057 -0.0113766)
(0.0132971 0.00142776 -0.00219888)
(0.00606283 0.0182996 -0.0304915)
(0.0148458 0.014871 -0.022416)
(0.0158781 0.0124847 -0.015567)
(0.0188668 0.00975984 -0.00754369)
(0.0119633 0.00750488 9.01652e-05)
(0.0042999 0.0188412 -0.021559)
(0.012465 0.0159023 -0.0155659)
(0.013707 0.0137319 -0.00965943)
(0.0165646 0.0109707 -0.00338793)
(0.0109591 0.00863415 0.00359616)
(0.0029171 0.0215707 -0.0113832)
(0.00973795 0.0188957 -0.00754551)
(0.0109464 0.0165894 -0.00339093)
(0.0137666 0.0137935 0.00105114)
(0.00952821 0.0115009 0.00661757)
(0.00140819 0.0133221 -0.00220665)
(0.00748631 0.0119964 8.92074e-05)
(0.00860726 0.0109874 0.00359319)
(0.0114761 0.00955861 0.00661844)
(0.00856857 0.00859896 0.011533)
(0.0142133 0.0142099 -0.0776821)
(0.0298293 0.0107138 -0.0464317)
(0.0302806 0.00767638 -0.0293735)
(0.0330008 0.00484305 -0.00958167)
(0.0186427 0.00229269 0.00452328)
(0.0107156 0.029827 -0.046439)
(0.023645 0.0236444 -0.0273255)
(0.0247425 0.0194075 -0.0167174)
(0.0279749 0.0141844 -0.0021862)
(0.0163975 0.0107059 0.0084097)
(0.00767995 0.0302812 -0.0293638)
(0.0194098 0.024744 -0.0166897)
(0.0208149 0.0208159 -0.00721126)
(0.0242951 0.0158667 0.00353202)
(0.0150299 0.0122633 0.0135022)
(0.0048458 0.0329997 -0.0095764)
(0.0141855 0.0279763 -0.00217081)
(0.0158653 0.024295 0.00352399)
(0.0194195 0.0194205 0.0107425)
(0.0126465 0.0157644 0.0178011)
(0.0022981 0.0186458 0.00454742)
(0.0107092 0.016404 0.00845993)
(0.0122619 0.0150352 0.0135181)
(0.0157646 0.0126531 0.0178265)
(0.0112167 0.0112233 0.024136)
(0.0391473 0.0391685 -0.123709)
(0.0665644 0.025083 -0.0795362)
(0.055678 0.0166289 -0.0510003)
(0.0554461 0.010064 -0.0212135)
(0.0281117 0.00485017 -0.00187164)
(0.0250829 0.0665939 -0.0795452)
(0.044549 0.0445944 -0.0488251)
(0.0410186 0.0346365 -0.0315989)
(0.0439996 0.022868 -0.0108867)
(0.0231596 0.0164859 0.00346161)
(0.0166036 0.0557122 -0.0510093)
(0.0346071 0.0410582 -0.0315997)
(0.0339262 0.0339707 -0.0183322)
(0.0372899 0.0238974 -0.0032901)
(0.0214824 0.0180258 0.00915685)
(0.0100499 0.0554841 -0.0212266)
(0.0228328 0.044051 -0.0108937)
(0.0238577 0.0373306 -0.00329467)
(0.0280569 0.028101 0.00623961)
(0.0170373 0.0221506 0.0144975)
(0.0048189 0.0281559 -0.00189039)
(0.0164591 0.0232281 0.00344918)
(0.017974 0.021535 0.00914802)
(0.0221099 0.0170933 0.0144935)
(0.0152752 0.0153312 0.0215499)
(0.0587549 0.0587425 -0.313201)
(0.102444 0.0414283 -0.137616)
(0.0886744 0.0266221 -0.0785793)
(0.0821318 0.0148345 -0.0190712)
(0.0390253 0.00695263 0.00990117)
(0.0414392 0.102433 -0.13763)
(0.0715442 0.0715336 -0.058897)
(0.0627193 0.0520582 -0.0357946)
(0.0630381 0.0321021 0.00128453)
(0.0315727 0.0217213 0.0183316)
(0.0266348 0.088671 -0.0785696)
(0.0520694 0.0627139 -0.0357359)
(0.0491385 0.0491341 -0.0150581)
(0.051789 0.0329925 0.0100223)
(0.0282074 0.0232826 0.0258098)
(0.0148467 0.0821209 -0.0190705)
(0.0321117 0.063028 0.00130471)
(0.032998 0.05178 0.010003)
(0.0372036 0.0371961 0.0241573)
(0.0214468 0.0281523 0.0330816)
(0.00696785 0.0390224 0.00992874)
(0.0217346 0.0315735 0.0184151)
(0.0232897 0.0282083 0.0258314)
(0.0281612 0.0214492 0.0331227)
(0.0187466 0.018749 0.0413013)
(0.218915 0.218947 -0.416788)
(0.301269 0.104687 -0.221078)
(0.174276 0.0589463 -0.105119)
(0.143825 0.0300758 -0.0227332)
(0.0586799 0.0124839 0.0111618)
(0.104753 0.301308 -0.221101)
(0.146066 0.146156 -0.0856359)
(0.101211 0.0980197 -0.0429219)
(0.0980884 0.0519255 0.00134437)
(0.0413899 0.0323986 0.0203072)
(0.0589011 0.174325 -0.10513)
(0.0979804 0.101271 -0.0429256)
(0.0796974 0.0797813 -0.0153675)
(0.0781668 0.0467868 0.0117709)
(0.038316 0.0327819 0.0276937)
(0.0300745 0.143881 -0.0227511)
(0.0518706 0.0981648 0.0013297)
(0.0467271 0.0782293 0.0117679)
(0.0511472 0.0512133 0.0259033)
(0.026684 0.0376697 0.0337351)
(0.0124253 0.0587518 0.0111267)
(0.032366 0.0415231 0.0202746)
(0.0326879 0.03841 0.0276762)
(0.0376074 0.0267816 0.0337198)
(0.0241017 0.0241993 0.0407856)
(0.278689 0.278699 -1.49689)
(0.589543 0.185809 -0.337569)
(0.287843 0.0886663 -0.0925996)
(0.19816 0.0388657 0.01161)
(0.0750975 0.014849 0.0496256)
(0.185843 0.589482 -0.337592)
(0.25049 0.250442 -0.0525555)
(0.149795 0.14145 -0.0113596)
(0.126175 0.0664978 0.0439331)
(0.0519647 0.0381914 0.0581517)
(0.0886902 0.287843 -0.0926056)
(0.141471 0.149776 -0.0112253)
(0.10392 0.103909 0.0220074)
(0.094776 0.0575635 0.0504477)
(0.0453184 0.0366737 0.0643817)
(0.0388995 0.198124 0.0115948)
(0.0665222 0.126135 0.0439513)
(0.0575836 0.0947491 0.05041)
(0.0591062 0.0590801 0.0644771)
(0.0300181 0.0412114 0.0688789)
(0.0148816 0.0750761 0.0496382)
(0.0382221 0.0519461 0.0582643)
(0.0366984 0.0453037 0.0644001)
(0.041238 0.0300045 0.068928)
(0.0264944 0.026481 0.0739047)
(0.876514 0.876351 -4.88649)
(1.57233 0.381646 -0.695722)
(0.444994 0.142504 0.0503072)
(0.284621 0.0629228 0.0781306)
(0.0997555 0.0199284 0.07832)
(0.381769 1.57247 -0.695599)
(0.438057 0.437989 0.0197417)
(0.195334 0.21164 0.0685501)
(0.167421 0.0904269 0.0818271)
(0.0573665 0.0471321 0.0750129)
(0.142414 0.445065 0.0502849)
(0.211614 0.195396 0.0685375)
(0.141512 0.141693 0.0776013)
(0.120522 0.0673981 0.0763783)
(0.0537251 0.043527 0.0756934)
(0.0629884 0.284698 0.0781284)
(0.0903502 0.167476 0.0818157)
(0.0673206 0.120603 0.0763847)
(0.0696101 0.0696877 0.0765097)
(0.0319274 0.0471895 0.0714292)
(0.0198168 0.0998572 0.078263)
(0.0471048 0.0575955 0.0749464)
(0.0433698 0.0538769 0.0756655)
(0.0471086 0.0320746 0.0713973)
(0.0298559 0.0300031 0.0707684)
(0.013932 0.0140687 -8.45685)
(2.55661 0.166446 -0.727145)
(0.305904 0.106724 0.353818)
(0.214515 0.0442249 0.196138)
(0.0777716 0.00986785 0.170344)
(0.165418 2.55683 -0.727288)
(0.344592 0.344195 0.631268)
(0.151503 0.161394 0.256048)
(0.130812 0.0640099 0.172522)
(0.0464195 0.0355109 0.149982)
(0.106757 0.305838 0.35369)
(0.16145 0.151371 0.256173)
(0.11045 0.110425 0.205286)
(0.0927151 0.0522341 0.156611)
(0.0457632 0.0330959 0.138645)
(0.0443153 0.214441 0.196115)
(0.0640441 0.130723 0.172534)
(0.0522661 0.0926596 0.156583)
(0.054052 0.054 0.135423)
(0.025479 0.0362328 0.124226)
(0.00992849 0.0776917 0.170298)
(0.0355715 0.0463417 0.150026)
(0.0331558 0.0457126 0.138638)
(0.0362873 0.0254324 0.124239)
(0.0263836 0.0263373 0.116628)
(0.0112895 0.011407 -8.56719)
(-0.220982 -0.100091 -1.22936)
(0.201378 0.0409301 0.380943)
(0.0922381 0.0400959 0.197602)
(0.0761193 -0.00115027 0.160602)
(-0.0996497 -0.220164 -1.23034)
(0.0390355 0.0389194 0.346072)
(0.0470963 0.0543993 0.270813)
(0.0628862 0.0509409 0.173073)
(0.0358362 0.0154247 0.135161)
(0.0402822 0.20139 0.380827)
(0.0545015 0.0472456 0.270711)
(0.0437691 0.0440587 0.213411)
(0.0541549 0.0304998 0.149561)
(0.0365015 0.0177852 0.121289)
(0.0400553 0.0924027 0.19763)
(0.0508546 0.0628595 0.173064)
(0.0304096 0.0542302 0.149587)
(0.0373358 0.0373999 0.122265)
(0.0209591 0.0252218 0.102037)
(-0.00133928 0.0761968 0.160524)
(0.0154321 0.0360973 0.135066)
(0.0175962 0.0366725 0.121258)
(0.0251486 0.0211195 0.101998)
(0.0224715 0.0226317 0.0894336)
(0.0505457 0.0506681 -8.96577)
(-0.212379 -0.14404 -0.975064)
(0.0940061 -0.0175315 0.263738)
(-0.0113667 0.0199649 0.228958)
(0.0417602 -0.0156818 0.178672)
(-0.1437 -0.212357 -0.97423)
(-0.0338317 -0.0340166 0.17532)
(-0.0143573 -0.0178181 0.231904)
(-0.000188019 0.0177646 0.197026)
(0.00800826 -0.00409955 0.164568)
(-0.0172604 0.0937424 0.263763)
(-0.0176491 -0.0145247 0.23159)
(-0.0064288 -0.00652429 0.215741)
(0.0010101 0.00164322 0.180767)
(0.0170226 -0.000233896 0.157713)
(0.020018 -0.0114005 0.228988)
(0.0177877 -0.000284062 0.197004)
(0.00168484 0.00092303 0.180827)
(0.00648272 0.00641605 0.160682)
(0.00463437 0.00431752 0.142972)
(-0.0155449 0.0415668 0.178622)
(-0.00399027 0.00784348 0.16437)
(-0.000116662 0.0169148 0.157675)
(0.00440354 0.00454737 0.142902)
(0.0134455 0.0133581 0.132856)
(-0.00266454 -0.00276842 -9.22119)
(0.928135 0.167353 -0.89393)
(0.0253653 -0.013895 0.257207)
(-0.00833524 0.00817876 0.202236)
(0.023923 -0.0143143 0.112743)
(0.166421 0.927547 -0.893871)
(0.0186421 0.0186847 0.330547)
(-0.0235813 -0.0111635 0.217465)
(-0.00273693 0.00349644 0.158897)
(0.00135994 -0.00560272 0.103211)
(-0.0139415 0.0252893 0.257281)
(-0.0110952 -0.0235514 0.217471)
(-0.00565801 -0.00564148 0.162223)
(-0.00412744 -0.00599821 0.128466)
(0.0120742 -0.00374571 0.0897128)
(0.00810643 -0.00825929 0.202163)
(0.0034447 -0.00264009 0.158866)
(-0.00606597 -0.00409216 0.128455)
(-0.000460972 -0.00040742 0.104779)
(0.00222939 0.000434325 0.0796871)
(-0.014344 0.0239125 0.112774)
(-0.00557797 0.00143971 0.103218)
(-0.00380744 0.0121425 0.0897201)
(0.000399099 0.00231688 0.0796843)
(0.0116627 0.0117503 0.0651304)
(0.00264836 0.0025416 -9.2631)
(-0.636576 -0.025744 -1.18267)
(-0.271194 -0.0800466 0.313791)
(-0.171806 -0.0222673 0.227444)
(-0.0519381 -0.0239886 0.172921)
(-0.0253029 -0.636539 -1.182)
(-0.289825 -0.289966 0.31689)
(-0.185533 -0.128799 0.266882)
(-0.11008 -0.0544693 0.200329)
(-0.0503549 -0.0264354 0.159998)
(-0.0799123 -0.271162 0.313843)
(-0.128702 -0.185617 0.266843)
(-0.0918073 -0.0918947 0.21539)
(-0.0699064 -0.0517532 0.177799)
(-0.0239585 -0.0233974 0.148741)
(-0.0221853 -0.171868 0.227406)
(-0.0543839 -0.110177 0.200276)
(-0.0516802 -0.0699837 0.17782)
(-0.0416943 -0.0417753 0.157024)
(-0.0219136 -0.0199864 0.137304)
(-0.0238839 -0.0520199 0.172892)
(-0.026355 -0.0504781 0.159877)
(-0.0232928 -0.0240457 0.148711)
(-0.0199085 -0.0220036 0.13724)
(-0.00213435 -0.00222426 0.125145)
(-0.569646 -0.569741 -7.05221)
(-0.587303 -0.296132 -0.435612)
(-0.236418 -0.0819892 0.0152313)
(-0.164654 -0.0198574 0.0370706)
(-0.0384928 -0.025713 0.0259605)
(-0.296042 -0.587319 -0.435529)
(-0.287495 -0.287503 0.0241551)
(-0.172303 -0.12534 0.0428104)
(-0.108694 -0.0469531 0.0357256)
(-0.0439138 -0.0300451 0.0285583)
(-0.0819591 -0.236389 0.0152518)
(-0.12531 -0.172321 0.0428302)
(-0.0939974 -0.0939996 0.03436)
(-0.071045 -0.0497759 0.0342204)
(-0.020573 -0.0267119 0.0223648)
(-0.0198337 -0.164645 0.0370831)
(-0.0469463 -0.108679 0.0357318)
(-0.0497911 -0.0710395 0.0342162)
(-0.0412749 -0.0412642 0.0289785)
(-0.0198016 -0.0233666 0.0222376)
(-0.0256907 -0.0384938 0.0259883)
(-0.0300213 -0.0439035 0.0285958)
(-0.0267166 -0.0205561 0.0223774)
(-0.0233725 -0.0197794 0.0222523)
(-0.00194021 -0.00191783 0.0138625)
(-0.646855 -0.64694 -2.96611)
(-0.444311 -0.232564 -0.355869)
(-0.234641 -0.0651693 0.0869422)
(-0.169075 -0.0236648 0.121198)
(-0.0695744 -0.0198222 0.108075)
(-0.232479 -0.444353 -0.355852)
(-0.255049 -0.255144 0.0850944)
(-0.175243 -0.118114 0.117165)
(-0.123555 -0.0570077 0.11994)
(-0.0620063 -0.0297576 0.113176)
(-0.0650854 -0.234705 0.0869366)
(-0.11804 -0.175321 0.117135)
(-0.0997331 -0.0998033 0.113353)
(-0.0814642 -0.058228 0.11853)
(-0.0388365 -0.0294435 0.107306)
(-0.0235978 -0.169133 0.121188)
(-0.0569389 -0.123638 0.119907)
(-0.0581611 -0.0815293 0.118538)
(-0.0534579 -0.0535286 0.116369)
(-0.0306506 -0.0282409 0.10956)
(-0.0197399 -0.0696416 0.108042)
(-0.0296921 -0.0620973 0.11311)
(-0.0293616 -0.0389062 0.107282)
(-0.0281755 -0.0307253 0.109523)
(-0.0117163 -0.0117909 0.101063)
(-0.512485 -0.512526 -1.95699)
(-0.396813 -0.206336 -0.376391)
(-0.206244 -0.0610711 -0.0984228)
(-0.155829 -0.0209222 -0.0702195)
(-0.058019 -0.020323 -0.0496841)
(-0.206302 -0.396836 -0.376373)
(-0.230375 -0.230402 -0.101906)
(-0.154767 -0.109604 -0.0732134)
(-0.114051 -0.049993 -0.0617323)
(-0.0548433 -0.0309407 -0.0448908)
(-0.0610314 -0.206275 -0.0984037)
(-0.109571 -0.154791 -0.073194)
(-0.0939627 -0.0939853 -0.0606896)
(-0.0774793 -0.0536371 -0.051078)
(-0.0348037 -0.0304902 -0.0441018)
(-0.0208883 -0.155847 -0.0702068)