/*--------------------------------*- C++ -*----------------------------------*\
| =========                 |                                                 |
| \\      /  F ield         | OpenFOAM: The Open Source CFD Toolbox           |
|  \\    /   O peration     | Version:  5.x                                   |
|   \\  /    A nd           | Web:      www.OpenFOAM.org                      |
|    \\/     M anipulation  |                                                 |
\*---------------------------------------------------------------------------*/
FoamFile
{
    version     2.0;
    format      ascii;
    class       volScalarField;
    location    "0.045";
    object      phiIB;
}
// * * * * * * * * * * * * * * * * * * * * * * * * * * * * * * * * * * * * * //

dimensions      [0 2 -1 0 0 0 0];

internalField   nonuniform List<scalar> 
1539
(
-3.01455e-05
-3.01431e-05
-3.01523e-05
-3.01482e-05
-3.01664e-05
-3.01432e-05
-3.01408e-05
-3.01499e-05
-3.01459e-05
-3.01641e-05
-3.01522e-05
-3.01499e-05
-3.01589e-05
-3.01548e-05
-3.01729e-05
-3.01482e-05
-3.01458e-05
-3.01548e-05
-3.01508e-05
-3.01689e-05
-3.01664e-05
-3.0164e-05
-3.01729e-05
-3.01688e-05
-3.01867e-05
-6.78328e-05
-6.78327e-05
-6.78356e-05
-6.7837e-05
-6.78433e-05
-6.78327e-05
-6.78327e-05
-6.78356e-05
-6.7837e-05
-6.78433e-05
-6.78356e-05
-6.78356e-05
-6.78384e-05
-6.78398e-05
-6.7846e-05
-6.78369e-05
-6.78369e-05
-6.78397e-05
-6.78411e-05
-6.78474e-05
-6.78433e-05
-6.78433e-05
-6.7846e-05
-6.78474e-05
-6.78536e-05
-0.000139665
-0.000139664
-0.000139675
-0.000139675
-0.000139697
-0.000139664
-0.000139662
-0.000139673
-0.000139674
-0.000139696
-0.000139675
-0.000139673
-0.000139684
-0.000139684
-0.000139706
-0.000139675
-0.000139673
-0.000139684
-0.000139684
-0.000139706
-0.000139697
-0.000139695
-0.000139706
-0.000139706
-0.000139728
-0.000191218
-0.000191217
-0.000191228
-0.00019123
-0.000191251
-0.000191217
-0.000191216
-0.000191227
-0.000191229
-0.00019125
-0.000191228
-0.000191227
-0.000191237
-0.000191239
-0.00019126
-0.00019123
-0.000191229
-0.000191239
-0.000191241
-0.000191262
-0.000191251
-0.00019125
-0.00019126
-0.000191262
-0.000191283
-0.000257268
-0.000257266
-0.000257283
-0.000257285
-0.000257319
-0.000257266
-0.000257264
-0.000257281
-0.000257283
-0.000257318
-0.000257283
-0.000257281
-0.000257298
-0.0002573
-0.000257334
-0.000257284
-0.000257283
-0.0002573
-0.000257301
-0.000257336
-0.000257319
-0.000257318
-0.000257334
-0.000257336
-0.000257369
-0.000313272
-0.000313269
-0.000313291
-0.000313293
-0.000313338
-0.000313269
-0.000313267
-0.000313289
-0.000313292
-0.000313336
-0.000313291
-0.000313289
-0.00031331
-0.000313313
-0.000313357
-0.000313293
-0.000313292
-0.000313313
-0.000313316
-0.00031336
-0.000313338
-0.000313336
-0.000313357
-0.00031336
-0.000313403
-0.0003758
-0.000375796
-0.000375825
-0.000375827
-0.00037589
-0.000375796
-0.000375792
-0.000375821
-0.000375824
-0.000375888
-0.000375824
-0.000375821
-0.00037585
-0.000375854
-0.000375916
-0.000375827
-0.000375824
-0.000375854
-0.000375858
-0.00037592
-0.00037589
-0.000375888
-0.000375916
-0.00037592
-0.000375981
-0.000434181
-0.000434176
-0.000434216
-0.000434222
-0.000434313
-0.000434176
-0.000434172
-0.000434213
-0.00043422
-0.000434311
-0.000434216
-0.000434213
-0.000434256
-0.000434264
-0.000434354
-0.000434222
-0.00043422
-0.000434264
-0.000434272
-0.000434362
-0.000434312
-0.000434311
-0.000434353
-0.000434362
-0.00043445
-0.00049423
-0.000494233
-0.000494299
-0.00049432
-0.000494448
-0.000494233
-0.000494235
-0.000494301
-0.000494321
-0.000494449
-0.000494299
-0.000494301
-0.000494366
-0.000494386
-0.000494512
-0.00049432
-0.000494321
-0.000494386
-0.000494404
-0.00049453
-0.000494447
-0.000494448
-0.000494512
-0.00049453
-0.000494653
-0.00055355
-0.000553582
-0.00055372
-0.000553788
-0.000554
-0.000553582
-0.000553609
-0.000553743
-0.000553806
-0.000554013
-0.00055372
-0.000553742
-0.000553868
-0.000553924
-0.000554124
-0.000553788
-0.000553806
-0.000553924
-0.000553972
-0.000554167
-0.000553999
-0.000554013
-0.000554123
-0.000554167
-0.000554355
-0.000611521
-0.000611639
-0.000611917
-0.000612059
-0.000612342
-0.000611639
-0.000611734
-0.000611979
-0.000612099
-0.000612376
-0.000611917
-0.000611979
-0.000612183
-0.000612281
-0.000612548
-0.000612059
-0.000612098
-0.000612281
-0.000612359
-0.00061262
-0.000612341
-0.000612375
-0.000612548
-0.000612619
-0.000612873
-0.000670229
-0.000670405
-0.000670992
-0.000671338
-0.000671789
-0.000670405
-0.000670592
-0.000671137
-0.000671419
-0.000671855
-0.000670992
-0.000671136
-0.000671541
-0.000671721
-0.000672132
-0.000671338
-0.000671419
-0.000671721
-0.000671834
-0.000672221
-0.000671789
-0.000671855
-0.000672132
-0.000672221
-0.000672586
-0.000728048
-0.000727655
-0.000727397
-0.000727422
-0.000728117
-0.000727655
-0.000727438
-0.000727396
-0.000727504
-0.000728129
-0.000727397
-0.000727396
-0.000727719
-0.000727904
-0.000728376
-0.000727422
-0.000727503
-0.000727904
-0.00072802
-0.000728424
-0.000728116
-0.000728128
-0.000728375
-0.000728423
-0.000728817
-0.000788058
-0.000787114
-0.000785516
-0.000784294
-0.000784789
-0.000787115
-0.000786231
-0.000784939
-0.000784065
-0.000784633
-0.000785517
-0.000784939
-0.000784503
-0.000784159
-0.000784695
-0.000784294
-0.000784065
-0.000784159
-0.000783998
-0.000784453
-0.000784788
-0.000784632
-0.000784695
-0.000784453
-0.000784844
-0.000838476
-0.000837787
-0.000837007
-0.000835342
-0.000834493
-0.000837788
-0.000837054
-0.000836167
-0.000834588
-0.000834173
-0.000837007
-0.000836167
-0.00083484
-0.000833537
-0.000833969
-0.000835342
-0.000834588
-0.000833537
-0.000832698
-0.000833333
-0.000834493
-0.000834173
-0.000833969
-0.000833333
-0.000833735
-0.000880437
-0.000880289
-0.000880592
-0.000879681
-0.000879648
-0.000880289
-0.000880066
-0.000880235
-0.000879279
-0.000879282
-0.000880591
-0.000880235
-0.000880124
-0.000879095
-0.000879335
-0.000879681
-0.000879279
-0.000879095
-0.000878086
-0.000878724
-0.000879649
-0.000879282
-0.000879334
-0.000878724
-0.000879804
-0.000909269
-0.000909861
-0.00091152
-0.000912356
-0.000914646
-0.00090986
-0.000910332
-0.000911794
-0.000912325
-0.000914133
-0.000911518
-0.000911793
-0.000912977
-0.000913067
-0.000914044
-0.000912354
-0.000912324
-0.000913067
-0.000912915
-0.000913866
-0.000914644
-0.000914132
-0.000914043
-0.000913865
-0.000915544
-0.000930002
-0.000931594
-0.000935043
-0.000937648
-0.000941793
-0.000931592
-0.000932947
-0.000936029
-0.000938161
-0.000941796
-0.00093504
-0.000936028
-0.000938561
-0.000939974
-0.000942669
-0.000937645
-0.000938159
-0.000939973
-0.000940889
-0.000943361
-0.000941788
-0.000941794
-0.000942668
-0.000943361
-0.00094631
-0.000944514
-0.000946661
-0.000951403
-0.000955547
-0.000961347
-0.000946659
-0.000948643
-0.000953057
-0.000956703
-0.000961915
-0.0009514
-0.000953056
-0.000956981
-0.00095977
-0.000964038
-0.000955543
-0.000956701
-0.000959768
-0.000961925
-0.000965827
-0.000961342
-0.000961912
-0.000964036
-0.000965826
-0.000969561
-0.000950305
-0.000953491
-0.000959565
-0.000966019
-0.000974976
-0.000953489
-0.000956435
-0.000962331
-0.000968229
-0.000976455
-0.000959562
-0.00096233
-0.000968109
-0.000973209
-0.000980457
-0.000966014
-0.000968227
-0.000973208
-0.000977203
-0.000983764
-0.000974971
-0.000976452
-0.000980455
-0.000983763
-0.000989701
-0.000964397
-0.000968349
-0.000975089
-0.000981845
-0.000991777
-0.000968347
-0.00097181
-0.000977927
-0.000984144
-0.00099326
-0.000975086
-0.000977926
-0.000983846
-0.000989236
-0.000997598
-0.00098184
-0.000984142
-0.000989234
-0.000993752
-0.0010013
-0.000991772
-0.000993257
-0.000997596
-0.0010013
-0.00100817
-0.000955595
-0.000961963
-0.000970421
-0.000980612
-0.000994119
-0.000961961
-0.000967282
-0.000975011
-0.000984122
-0.000997332
-0.000970418
-0.000975011
-0.000982363
-0.000990944
-0.00100465
-0.000980607
-0.00098412
-0.000990942
-0.000997896
-0.00100943
-0.000994114
-0.000997329
-0.00100465
-0.00100942
-0.0010194
-0.000960185
-0.000974355
-0.000985899
-0.00100007
-0.00101707
-0.000974353
-0.000984587
-0.000993071
-0.00100485
-0.0010192
-0.000985896
-0.000993071
-0.0010017
-0.00101104
-0.00102492
-0.00100007
-0.00100484
-0.00101103
-0.00101774
-0.00102869
-0.00101707
-0.00101919
-0.00102492
-0.00102869
-0.00103876
-0.000935197
-0.000950959
-0.00096617
-0.000984757
-0.00100653
-0.000950957
-0.000963603
-0.000975417
-0.000991134
-0.00101071
-0.000966167
-0.000975416
-0.000985873
-0.000999509
-0.00101734
-0.000984751
-0.000991132
-0.000999506
-0.00100873
-0.00102249
-0.00100652
-0.0010107
-0.00101734
-0.00102249
-0.00103641
-0.000860676
-0.000931988
-0.000957279
-0.000999481
-0.00102751
-0.000931985
-0.000974297
-0.000984078
-0.00101339
-0.00103333
-0.000957275
-0.000984077
-0.00099804
-0.00101914
-0.00104117
-0.000999475
-0.00101338
-0.00101913
-0.00103179
-0.00104704
-0.00102751
-0.00103332
-0.00104117
-0.00104704
-0.00106337
-0.000880047
-0.000927513
-0.000956818
-0.000976767
-0.00101556
-0.000927506
-0.000955295
-0.000968719
-0.000988147
-0.00101663
-0.000956807
-0.000968716
-0.000981555
-0.000997059
-0.00102207
-0.000976757
-0.000988141
-0.000997055
-0.00100778
-0.00102822
-0.00101555
-0.00101662
-0.00102206
-0.00102822
-0.00104885
-0.000417308
-0.000756578
-0.000833721
-0.000959555
-0.00100532
-0.000756542
-0.000931765
-0.000925629
-0.000998464
-0.00102378
-0.000833701
-0.000925625
-0.00094943
-0.00100193
-0.00103739
-0.000959545
-0.000998457
-0.00100193
-0.00103355
-0.00105209
-0.0010053
-0.00102377
-0.00103738
-0.00105209
-0.00107769
-0.000614868
-0.000899936
-0.000937175
-0.000945411
-0.00102408
-0.00089996
-0.00094232
-0.000956344
-0.000966877
-0.00101553
-0.000937117
-0.00095633
-0.000975895
-0.000981035
-0.00102466
-0.000945393
-0.000966869
-0.00098103
-0.000996776
-0.00102454
-0.00102406
-0.00101552
-0.00102465
-0.00102454
-0.00105252
0.00156091
-0.000221471
-0.000652756
-0.000924376
-0.00100195
-0.000220722
-0.000739959
-0.000827019
-0.000982434
-0.00102887
-0.000652504
-0.000827026
-0.000900864
-0.000995949
-0.00103796
-0.000924385
-0.000982429
-0.000995946
-0.00103531
-0.00105297
-0.00100192
-0.00102886
-0.00103795
-0.00105297
-0.00107495
0.00705909
-4.34098e-05
-0.000943697
-0.000960914
-0.00102173
-4.1783e-05
-0.000687258
-0.000893897
-0.000948752
-0.000995419
-0.000943534
-0.000893861
-0.000949689
-0.000959956
-0.00100946
-0.000960898
-0.000948756
-0.000959954
-0.000975779
-0.000998678
-0.0010217
-0.000995409
-0.00100945
-0.000998679
-0.00103247
-0.00217146
-0.00181166
-0.00128709
-0.00106425
-0.00109864
-0.00181162
-0.00139308
-0.00117436
-0.00108077
-0.00109792
-0.00128706
-0.00117439
-0.00104614
-0.00105767
-0.00106014
-0.00106425
-0.00108078
-0.00105766
-0.00103925
-0.00105131
-0.00109862
-0.00109792
-0.00106013
-0.00105131
-0.00105324
-0.000806936
-0.000864985
-0.000803671
-0.000880655
-0.000966327
-0.000864955
-0.000792236
-0.000828731
-0.000898546
-0.00095247
-0.000803681
-0.000828738
-0.000898592
-0.00092012
-0.000969758
-0.000880643
-0.000898554
-0.000920113
-0.000938277
-0.00095815
-0.000966337
-0.000952479
-0.000969766
-0.000958156
-0.000982469
0.00245966
0.000328052
-0.000684324
-0.000980551
-0.000933156
0.000328063
-0.000832724
-0.000894794
-0.000941811
-0.000970468
-0.000684343
-0.000894809
-0.000882092
-0.000959674
-0.000966057
-0.000980532
-0.000941825
-0.000959667
-0.000962951
-0.000972784
-0.000933141
-0.000970464
-0.000966054
-0.000972789
-0.000973814
-0.000979844
-0.00174178
-0.00125367
-0.0010571
-0.00100151
-0.00174173
-0.00127657
-0.00110462
-0.000996519
-0.000965999
-0.00125368
-0.00110462
-0.00104947
-0.00097908
-0.000960484
-0.00105709
-0.000996516
-0.000979075
-0.000943523
-0.000935937
-0.00100152
-0.000965997
-0.000960485
-0.00093594
-0.000936688
-0.00227987
-0.00140146
-0.000958385
-0.000929038
-0.000912776
-0.00140145
-0.00101324
-0.000931552
-0.000920835
-0.000909918
-0.000958379
-0.000931552
-0.000911651
-0.000909902
-0.00091453
-0.000929025
-0.000920827
-0.000909894
-0.000906376
-0.000907978
-0.000912763
-0.000909914
-0.000914525
-0.000907982
-0.000908614
-0.000925726
-0.00112562
-0.000971002
-0.000937245
-0.000974029
-0.00112562
-0.00107977
-0.000964021
-0.00093699
-0.00092723
-0.000971006
-0.00096402
-0.000976216
-0.000915261
-0.000931644
-0.000937235
-0.000936979
-0.000915257
-0.000898822
-0.000894467
-0.000974011
-0.000927213
-0.000931641
-0.000894466
-0.000892076
-0.000937379
-0.000905536
-0.000813765
-0.000835191
-0.000845357
-0.000905535
-0.000886448
-0.000829835
-0.000835463
-0.000828456
-0.000813764
-0.000829836
-0.000824161
-0.000817558
-0.000822275
-0.000835183
-0.000835458
-0.000817554
-0.000803417
-0.000800675
-0.000845345
-0.000828451
-0.000822271
-0.000800677
-0.000797047
-0.000773928
-0.000790259
-0.000778008
-0.000728911
-0.000753176
-0.000790261
-0.000782386
-0.000751791
-0.000731325
-0.000739515
-0.000778006
-0.000751787
-0.000758768
-0.000733588
-0.000742354
-0.000728912
-0.000731323
-0.000733589
-0.000728675
-0.000727149
-0.000753178
-0.00073951
-0.000742352
-0.000727147
-0.000722492
-0.00035961
-0.000394564
-0.000389775
-0.000391212
-0.000406062
-0.000394563
-0.000403477
-0.000398913
-0.000394284
-0.000406039
-0.000389775
-0.000398916
-0.000405347
-0.000396343
-0.000415712
-0.000391212
-0.000394286
-0.000396342
-0.000401209
-0.000417304
-0.000406064
-0.000406045
-0.000415715
-0.000417307
-0.000425514
-0.000375849
-0.000339273
-0.000299105
-0.000240846
-0.000222369
-0.000339276
-0.00030944
-0.000267735
-0.000229442
-0.000213482
-0.000299104
-0.00026773
-0.000242593
-0.000216793
-0.000204949
-0.000240848
-0.00022944
-0.000216796
-0.000210926
-0.000199894
-0.000222367
-0.000213476
-0.000204947
-0.000199888
-0.000189638
-0.00329907
-0.00329924
-0.00150028
-0.00225343
-0.000804488
-0.000804448
-0.000364938
-0.0011603
-0.00159288
-0.00104522
-0.00175783
-0.000809003
-0.00156381
-0.000715935
-0.00159285
-0.00116042
-0.0010452
-0.00175775
-0.00156372
-0.000809012
-0.000715922
-0.00100266
-0.0010028
-0.00114389
0.000685859
0.000101129
0.000101127
-0.000216253
-5.14873e-06
-5.05102e-06
-0.00078855
0.000534445
0.00131463
0.00131466
-0.000529448
-0.00189562
-0.00189553
-0.00107897
-0.00303313
-0.00235578
-0.00235575
-0.00137416
-0.00137394
-0.00127777
-0.0012522
-0.00196862
-0.0012096
-0.00141784
-0.00116638
-0.00127778
-0.00137395
-0.00125216
-0.0019686
-0.00141783
-0.00120957
-0.00116637
-0.00187169
-0.00187167
-0.00107858
-0.00125943
-0.0010373
-0.00103729
-0.000896502
-0.00103451
-0.00121014
-0.000992465
-0.00126533
-0.000981007
-0.00119837
-0.000885449
-0.00121013
-0.00103451
-0.00099245
-0.00126532
-0.00119837
-0.000980999
-0.000885448
-0.00152668
-0.00207442
-0.00207442
-0.00195796
-0.0019583
-0.0017665
-0.00176649
-0.00187193
-0.00231051
-0.00130557
-0.00130559
-0.000809105
-0.00195665
-0.00195667
-0.00208397
-0.00186604
-0.00189826
-0.000536812
-0.00166672
-0.00154541
-0.00222646
-0.00208385
-0.00186597
-0.00189827
-0.000536766
-0.00166658
-0.00154543
-0.0022264
-0.00213766
-0.00106761
-0.00117341
-0.00117338
-0.0016892
-0.00168905
-0.00187805
-0.00271318
-0.00255862
-0.00288901
-0.002889
-0.00254173
-0.00260662
-0.00260661
-0.00255476
-0.00309003
-0.0027188
-0.00205259
-0.00283651
-0.00250205
-0.00251985
-0.00255474
-0.00309
-0.00271878
-0.00205257
-0.00283649
-0.00250203
-0.00251982
-0.00164847
-0.00211738
-0.00164729
-0.0012277
-0.00198808
-0.00103921
-0.0017772
-0.00164847
-0.00211736
-0.00164728
-0.00122769
-0.00198807
-0.0010392
-0.00177719
-0.00173666
-0.00161019
-0.00161018
-0.000663887
-0.00189484
-0.00133937
-0.00133937
3.10478e-06
2.37947e-06
-0.000347505
-0.0014985
-0.0032819
-0.00328233
-0.00150648
-0.00245363
-0.00236412
-0.00236421
-0.00246108
-0.00254068
-0.0025013
-0.00250133
-0.0025023
-0.00264025
-0.00312497
-0.00254745
-0.00265204
-0.00227688
-0.00271763
-0.00250185
-0.00264042
-0.00312526
-0.00254732
-0.00265214
-0.00227662
-0.00271756
-0.00318272
-0.0015472
-0.00200499
-0.00200498
-0.00204529
-0.00204528
-0.00267582
-0.00290799
-0.00214302
-0.00214292
-0.00154285
-0.00332363
-0.00215255
-0.00215242
-0.00234369
-0.00125107
-0.00125106
-0.00195024
-0.00161802
-0.00212987
-0.00212986
-0.00262248
-0.00179304
-0.00159087
-0.00374365
-0.00237043
-0.00345546
-0.00248482
-0.00262246
-0.00179304
-0.00159092
-0.0037436
-0.00237045
-0.00345541
-0.00248479
-0.00145894
-0.00170375
-0.00137071
-0.00189255
-0.0016786
-0.00119224
-0.00157079
-0.00145893
-0.00170373
-0.00189251
-0.00137069
-0.0016786
-0.00119222
-0.00157076
-0.00187064
-0.00187074
-0.00222775
-0.0013459
-9.27689e-05
-0.000726041
-0.00072605
-0.000575994
-0.000545638
-0.00071383
-0.00176225
-0.00134655
-0.00123671
-0.00116361
-0.000545177
-0.000575924
-0.000714079
-0.00176232
-0.00123665
-0.00134675
-0.00116371
-0.00121802
-0.00158363
-0.00173051
-0.00213751
-0.0014591
-0.00216126
-0.00130959
-0.00121801
-0.00173035
-0.0015837
-0.00213749
-0.00145912
-0.00216134
-0.00130959
-0.00254245
-0.00260461
-0.00278931
-0.0027605
-0.000489843
-0.000588463
-0.0019326
-0.00254277
-0.00260529
-0.00278974
-0.00275997
-0.000490561
-0.000589283
-0.00193255
-0.0032853
-0.00190512
-0.00190505
-0.00166495
-0.00259695
-0.00214954
-0.00214951
-0.00215919
-0.00215949
-0.00350623
-0.00202402
-0.000814342
-0.00175549
-0.00175631
-0.00115411
-0.00115411
-0.00106025
-0.00117247
-0.00112663
-0.00112662
-0.00107551
0.00173048
0.00258712
0.000266114
0.000266124
-5.01189e-05
0.00252384
0.00252394
-0.00100903
-0.000290516
-0.00111747
-0.00123348
-0.000738035
-0.000469081
-0.000865254
-0.000290478
-0.00100903
-0.00111741
-0.0012335
-0.000469103
-0.000737954
-0.00086522
-0.00140656
-0.00100804
-0.00178422
-0.00177489
-0.000986509
-0.00161369
-0.00154362
-0.00140652
-0.00178427
-0.00100797
-0.00177486
-0.0009865
-0.00161364
-0.00154359
0.00127722
0.000987716
-0.000460752
0.000494528
-8.58938e-05
-0.000553188
0.00220554
0.00127753
0.000987769
-0.00046079
0.000494509
-8.55589e-05
-0.000553252
0.00220564
0.000697807
0.000699681
8.25684e-05
0.00484526
0.00113355
0.0011343
-2.51289e-05
0.0011568
0.00522167
0.00522033
0.0025582
0.00265915
0.00160249
0.00160263
-8.34703e-05
0.00227107
-0.000246809
0.000912786
0.00169853
-8.46945e-05
-0.000464786
-8.16691e-05
0.00227146
-0.000245129
0.000911647
0.00171656
-8.95384e-05
-0.00046241
-0.0013339
-0.00164874
-0.00117765
-0.00206556
-0.00185597
-0.000740376
-0.00066698
-0.00164875
-0.00133396
-0.00117764
-0.00206552
-0.00185534
-0.000740323
-0.00066704
0.000999424
-0.000511215
-0.000884422
-0.000884205
-0.000248322
-0.00024834
0.000534152
0.000271526
-0.000147707
-0.000150382
-0.000602973
0.00112567
-0.000883261
-0.000884661
-0.00129673
-0.00142458
-0.00104373
-0.00130375
-0.00122629
-0.00151347
-0.00119602
-0.00129672
-0.00142455
-0.00104374
-0.00130373
-0.00122627
-0.00151345
-0.00119602
0.00193991
0.00197628
0.0019764
0.00409801
0.00112972
0.00264099
0.00264118
-0.000836939
-0.000837141
-0.00087975
-0.000774701
-0.000995962
-0.00099604
-0.000967077
-0.00153797
-0.000941402
-0.00108392
-0.00120875
-0.00134932
-0.00106411
-0.000892965
-0.0015381
-0.000941338
-0.00108389
-0.00120848
-0.00134938
-0.00106425
-0.000892903
4.56893e-05
-0.00026874
-0.000869206
-3.35697e-05
-0.00047919
-0.000578604
-0.000333093
4.57552e-05
-0.000869246
-0.000268721
-3.34312e-05
-0.000479181
-0.000578497
-0.000333024
0.0021567
0.00112587
-0.000377222
0.000837694
0.000724962
0.00047493
0.0023788
0.00215711
0.0011259
-0.000377195
0.000837735
0.000724997
0.000474968
0.00237897
0.00408024
0.00407964
0.00406692
0.00154115
0.0031363
0.00224902
0.00225249
-0.00022042
-0.000390921
-0.000333715
0.000107248
-0.000639971
-0.000188481
-0.000756383
-0.000390898
-0.000220384
-0.000333755
0.000108987
-0.00018826
-0.000641623
-0.00075639
1.61583e-05
-0.000919876
-0.000672664
-0.000638993
-0.00035736
-0.00043418
-0.000407474
2.16604e-05
-0.000919313
-0.000672079
-0.000639455
-0.00035707
-0.000433593
-0.00040757
0.00114916
-0.000338833
-0.000338792
-0.000261308
0.000383614
0.00025287
0.00025281
0.00348548
0.000863744
0.00266517
0.000859074
0.000373051
0.000354417
0.00109911
0.00349587
0.00084843
0.00266739
0.000846575
0.000377429
0.000359238
0.00110119
0.000229503
0.000232482
0.00173783
8.09198e-05
0.000429808
7.02361e-05
7.68892e-05
)
;

boundaryField
{
    inlet
    {
        type            fixedValue;
        value           uniform 0;
    }
    wall
    {
        type            zeroGradient;
    }
    outlet
    {
        type            fixedValue;
        value           uniform 0;
    }
    procBoundary3to1
    {
        type            processor;
        value           nonuniform List<scalar> 
317
(
-3.01462e-05
-3.01439e-05
-3.0153e-05
-3.0149e-05
-3.01672e-05
-6.78331e-05
-6.78333e-05
-6.78362e-05
-6.78375e-05
-6.78439e-05
-0.000139666
-0.000139665
-0.000139676
-0.000139676
-0.000139698
-0.000191219
-0.000191218
-0.000191229
-0.000191231
-0.000191252
-0.000257269
-0.000257268
-0.000257284
-0.000257286
-0.000257321
-0.000313273
-0.000313271
-0.000313292
-0.000313295
-0.000313339
-0.000375801
-0.000375798
-0.000375826
-0.000375829
-0.000375892
-0.000434182
-0.000434178
-0.000434218
-0.000434224
-0.000434315
-0.000494232
-0.000494235
-0.000494302
-0.000494322
-0.00049445
-0.000553552
-0.000553584
-0.000553722
-0.00055379
-0.000554002
-0.000611524
-0.000611642
-0.00061192
-0.00061206
-0.000612343
-0.000670228
-0.000670406
-0.000670994
-0.000671339
-0.00067179
-0.000728027
-0.000727639
-0.00072739
-0.000727419
-0.000728113
-0.000788037
-0.000787091
-0.000785492
-0.000784279
-0.000784778
-0.000838465
-0.000837775
-0.000836995
-0.000835328
-0.000834485
-0.000880441
-0.000880293
-0.000880596
-0.000879685
-0.000879652
-0.00090929
-0.000909883
-0.000911543
-0.000912379
-0.000914668
-0.000930036
-0.00093163
-0.000935081
-0.000937685
-0.000941829
-0.000944553
-0.000946708
-0.000951456
-0.000955599
-0.000961394
-0.000950327
-0.000953523
-0.00095961
-0.000966071
-0.000975028
-0.000964413
-0.000968378
-0.000975124
-0.00098189
-0.000991828
-0.000955596
-0.000961968
-0.000970431
-0.000980634
-0.000994177
-0.000960129
-0.000974348
-0.000985896
-0.0010001
-0.00101711
-0.000935181
-0.000950962
-0.000966151
-0.000984789
-0.00100658
-0.000860159
-0.000931708
-0.000957126
-0.000999564
-0.00102774
-0.000880072
-0.000927337
-0.000956625
-0.000976933
-0.00101576
-0.000414614
-0.000754044
-0.000833091
-0.000959871
-0.00100586
-0.000614299
-0.000898275
-0.000938102
-0.000946184
-0.00102447
0.00155222
-0.000226085
-0.000651988
-0.000921836
-0.00100096
0.00710417
-4.38719e-05
-0.000937488
-0.0009532
-0.00102078
-0.00217038
-0.00181757
-0.00128602
-0.00106201
-0.00109905
-0.00067696
-0.000865366
-0.000801444
-0.0008801
-0.000966718
0.00249732
0.000355527
-0.000683713
-0.000979117
-0.000932892
-0.00098057
-0.00174347
-0.00125386
-0.00105712
-0.00100123
-0.00228446
-0.00140362
-0.000958259
-0.000929679
-0.000912429
-0.00092871
-0.00112433
-0.000972519
-0.000936875
-0.000974324
-0.000939016
-0.000906698
-0.000814966
-0.000835818
-0.000845565
-0.000775684
-0.000789478
-0.000778759
-0.00072898
-0.000753597
-0.000360255
-0.000394857
-0.00039003
-0.000391375
-0.000406001
-0.000376693
-0.000339355
-0.000299673
-0.000241261
-0.000223018
-0.00216341
-0.000799057
-0.00330085
-0.00178113
-0.000805515
-0.00114083
0.000455911
0.000125883
-0.00112158
0.000533578
0.00132456
6.89627e-06
-0.00303833
-0.00235614
-0.00189693
-0.0019699
-0.00120782
-0.00137599
-0.00126863
-0.00104267
-0.00187207
-0.00126856
-0.000979127
-0.00103773
-0.00196299
-0.00176521
-0.00207772
-0.0013866
-0.0022159
-0.00219174
-0.00195048
-0.00220557
-0.00190483
-0.0028913
-0.00260832
-0.00256095
-0.00309236
-0.00252163
-0.00272249
-0.00211963
-0.00178232
-0.00122577
-0.00149263
-0.00327233
4.14296e-06
-0.00244958
-0.00258742
-0.00237391
-0.00262892
-0.00270025
-0.00255393
-0.00195162
-0.00213103
-0.00125175
-0.00179347
-0.00248548
-0.00374474
-0.00137075
-0.00157083
-0.00170376
-0.00186497
-0.000715613
-8.20789e-05
-0.00175931
-0.00134967
-0.000570339
-0.00215293
-0.00129816
-0.00156662
-0.000480535
-0.00191959
-0.00253167
0.000266162
0.0025257
0.00257978
-0.00122715
-0.000737541
-0.00100133
-0.00177345
-0.00154283
-0.00101073
0.000991739
0.00222183
-0.000459721
0.00487275
0.00114465
0.000708836
0.00257721
0.00161539
0.00523677
0.00227888
-0.000452176
0.000925446
-0.00133799
-0.000665341
-0.00206008
0.00403897
0.00260649
0.00201827
-0.00026659
-0.000327902
5.9088e-05
0.00113808
0.00237865
0.000844504
0.00408805
0.00226011
0.00315759
0.000110158
-0.000644917
-0.000220404
-0.00091674
-0.000409119
-0.000359924
0.00037791
0.00111163
0.00350483
)
;
    }
    procBoundary3to2
    {
        type            processor;
        value           nonuniform List<scalar> 
317
(
-3.01461e-05
-3.01439e-05
-3.0153e-05
-3.01489e-05
-3.01671e-05
-6.78331e-05
-6.78332e-05
-6.78361e-05
-6.78375e-05
-6.78438e-05
-0.000139666
-0.000139665
-0.000139676
-0.000139676
-0.000139698
-0.000191219
-0.000191218
-0.000191229
-0.000191231
-0.000191252
-0.000257269
-0.000257267
-0.000257284
-0.000257286
-0.000257321
-0.000313272
-0.000313271
-0.000313292
-0.000313295
-0.000313339
-0.000375801
-0.000375797
-0.000375826
-0.000375829
-0.000375892
-0.000434182
-0.000434178
-0.000434218
-0.000434224
-0.000434314
-0.000494232
-0.000494235
-0.000494301
-0.000494322
-0.00049445
-0.000553552
-0.000553584
-0.000553721
-0.00055379
-0.000554001
-0.000611524
-0.000611642
-0.000611919
-0.00061206
-0.000612343
-0.000670228
-0.000670405
-0.000670993
-0.000671338
-0.000671789
-0.000728028
-0.000727639
-0.00072739
-0.000727419
-0.000728112
-0.000788037
-0.000787091
-0.000785493
-0.000784279
-0.000784778
-0.000838465
-0.000837775
-0.000836996
-0.000835329
-0.000834486
-0.00088044
-0.000880292
-0.000880595
-0.000879685
-0.000879652
-0.000909288
-0.000909881
-0.00091154
-0.000912375
-0.000914665
-0.000930034
-0.000931626
-0.000935076
-0.00093768
-0.000941823
-0.00094455
-0.000946703
-0.000951449
-0.000955592
-0.000961387
-0.000950324
-0.000953518
-0.000959603
-0.000966063
-0.000975019
-0.000964409
-0.000968372
-0.000975118
-0.000981882
-0.000991819
-0.000955591
-0.000961961
-0.000970424
-0.000980625
-0.000994167
-0.000960124
-0.00097434
-0.000985888
-0.00100009
-0.0010171
-0.000935172
-0.000950951
-0.00096614
-0.000984777
-0.00100657
-0.000860151
-0.000931696
-0.000957113
-0.000999549
-0.00102772
-0.000880064
-0.00092732
-0.000956604
-0.000976912
-0.00101575
-0.000414592
-0.000754012
-0.000833065
-0.000959846
-0.00100583
-0.00061471
-0.000898341
-0.000938074
-0.000946151
-0.00102444
0.00155235
-0.000225771
-0.00065183
-0.000921802
-0.00100091
0.00710392
-4.26086e-05
-0.000937401
-0.000953159
-0.00102074
-0.00217049
-0.00181761
-0.00128598
-0.00106198
-0.001099
-0.000676912
-0.000865309
-0.000801427
-0.000880044
-0.000966681
0.0024973
0.000355478
-0.000683717
-0.000979084
-0.000932857
-0.000980568
-0.00174342
-0.00125385
-0.0010571
-0.00100121
-0.00228444
-0.0014036
-0.000958246
-0.000929661
-0.000912417
-0.000928695
-0.00112431
-0.000972494
-0.000936854
-0.000974316
-0.000939006
-0.000906685
-0.000814955
-0.000835806
-0.000845558
-0.000775671
-0.000789467
-0.000778746
-0.00072897
-0.00075359
-0.000360253
-0.000394854
-0.00039003
-0.000391373
-0.000406002
-0.000376687
-0.000339352
-0.000299666
-0.000241258
-0.000223011
-0.00330108
-0.000799048
-0.00216342
-0.00114084
-0.000805504
-0.0017811
-0.00112162
0.000125872
0.000455866
6.88837e-06
0.00132455
0.000533575
-0.00189685
-0.00235611
-0.00303832
-0.00137596
-0.00120779
-0.00196987
-0.00187205
-0.00104265
-0.00126862
-0.0010377
-0.000979107
-0.00126854
-0.00207769
-0.00176519
-0.00196297
-0.00190485
-0.00220561
-0.00195049
-0.00219184
-0.00221597
-0.00138663
-0.00272247
-0.00252159
-0.00309234
-0.00256094
-0.00260831
-0.00289128
-0.00122575
-0.0017823
-0.00211961
3.73186e-06
-0.00327273
-0.00149272
-0.00237411
-0.00258761
-0.00244969
-0.00255395
-0.00270042
-0.00262921
-0.00125174
-0.00213101
-0.00195161
-0.00374471
-0.00248545
-0.00179346
-0.00170375
-0.00157081
-0.00137072
-8.2147e-05
-0.00071575
-0.00186517
-0.000570363
-0.00134977
-0.0017594
-0.0015666
-0.00129813
-0.00215294
-0.00253203
-0.00191987
-0.00048106
0.00257979
0.00252571
0.000266151
-0.00100129
-0.000737498
-0.00122714
-0.00101067
-0.00154279
-0.00177341
-0.000459795
0.00222172
0.000991719
0.00070943
0.00114121
0.00487282
0.00523631
0.00161531
0.00257714
0.000924066
-0.000451816
0.00228032
-0.00206007
-0.000665396
-0.00133804
0.00201827
0.00260648
0.004039
5.90106e-05
-0.000327934
-0.00026656
0.000844493
0.00237864
0.001138
0.00315615
0.00225995
0.00408739
-0.000220349
-0.000645378
0.000110777
-0.000359766
-0.000409236
-0.000916521
0.00350431
0.00110881
0.000378087
)
;
    }
}


// ************************************************************************* //
