/*--------------------------------*- C++ -*----------------------------------*\
| =========                 |                                                 |
| \\      /  F ield         | OpenFOAM: The Open Source CFD Toolbox           |
|  \\    /   O peration     | Version:  5.x                                   |
|   \\  /    A nd           | Web:      www.OpenFOAM.org                      |
|    \\/     M anipulation  |                                                 |
\*---------------------------------------------------------------------------*/
FoamFile
{
    version     2.0;
    format      ascii;
    class       volScalarField;
    location    "0.14";
    object      p;
}
// * * * * * * * * * * * * * * * * * * * * * * * * * * * * * * * * * * * * * //

dimensions      [0 2 -2 0 0 0 0];

internalField   nonuniform List<scalar> 
160
(
-3.41888e-06
-3.58245e-06
-3.54275e-06
-3.34908e-06
-3.47276e-06
-3.55116e-06
-3.52561e-06
-3.4525e-06
-3.58823e-06
-3.63844e-06
-3.63526e-06
-3.56853e-06
-3.59308e-06
-3.61847e-06
-3.61485e-06
-3.60173e-06
-3.63883e-06
-3.65912e-06
-3.66094e-06
-3.64365e-06
-3.64246e-06
-3.65522e-06
-3.65569e-06
-3.65525e-06
-3.66036e-06
-3.67031e-06
-3.67116e-06
-3.67195e-06
-3.66362e-06
-3.67142e-06
-3.67212e-06
-3.6755e-06
-3.66986e-06
-3.67638e-06
-3.67725e-06
-3.68101e-06
-3.6721e-06
-3.67738e-06
-3.67818e-06
-3.68197e-06
-3.58245e-06
-4.21321e-06
-3.91993e-06
-3.95454e-06
-3.55116e-06
-4.00076e-06
-3.82912e-06
-3.88648e-06
-3.63844e-06
-3.90451e-06
-3.82243e-06
-3.85268e-06
-3.61847e-06
-3.78529e-06
-3.74268e-06
-3.78551e-06
-3.65912e-06
-3.76482e-06
-3.7362e-06
-3.76748e-06
-3.65522e-06
-3.71726e-06
-3.70665e-06
-3.73274e-06
-3.67031e-06
-3.70981e-06
-3.70366e-06
-3.72273e-06
-3.67142e-06
-3.69577e-06
-3.69396e-06
-3.70803e-06
-3.67638e-06
-3.69302e-06
-3.69296e-06
-3.7038e-06
-3.67738e-06
-3.68815e-06
-3.68903e-06
-3.6967e-06
-3.54275e-06
-3.91993e-06
-3.82464e-06
-3.83026e-06
-3.52561e-06
-3.82912e-06
-3.72577e-06
-3.77822e-06
-3.63526e-06
-3.82243e-06
-3.78137e-06
-3.78395e-06
-3.61485e-06
-3.74268e-06
-3.70996e-06
-3.74936e-06
-3.66094e-06
-3.7362e-06
-3.71988e-06
-3.7399e-06
-3.65569e-06
-3.70665e-06
-3.69701e-06
-3.72114e-06
-3.67116e-06
-3.70366e-06
-3.69854e-06
-3.71539e-06
-3.67212e-06
-3.69396e-06
-3.69174e-06
-3.70604e-06
-3.67725e-06
-3.69296e-06
-3.69258e-06
-3.70359e-06
-3.67818e-06
-3.68903e-06
-3.68974e-06
-3.69794e-06
-3.34908e-06
-3.95454e-06
-3.83026e-06
-3.92086e-06
-3.4525e-06
-3.88648e-06
-3.77822e-06
-3.90572e-06
-3.56853e-06
-3.85268e-06
-3.78395e-06
-3.87575e-06
-3.60173e-06
-3.78551e-06
-3.74936e-06
-3.82755e-06
-3.64365e-06
-3.76748e-06
-3.7399e-06
-3.80293e-06
-3.65525e-06
-3.73274e-06
-3.72114e-06
-3.76608e-06
-3.67195e-06
-3.72273e-06
-3.71539e-06
-3.74905e-06
-3.6755e-06
-3.70803e-06
-3.70604e-06
-3.72869e-06
-3.68101e-06
-3.7038e-06
-3.70359e-06
-3.72105e-06
-3.68197e-06
-3.6967e-06
-3.69794e-06
-3.70942e-06
)
;

boundaryField
{
    inlet
    {
        type            zeroGradient;
    }
    outlet
    {
        type            totalPressure;
        rho             rho;
        psi             none;
        gamma           1;
        p0              nonuniform 0();
        value           nonuniform 0();
    }
    walls
    {
        type            zeroGradient;
    }
    procBoundary1to0
    {
        type            processor;
        value           nonuniform List<scalar> 
16
(
-3.16621e-06
-3.34303e-06
-3.24289e-06
-3.03818e-06
-3.34303e-06
-4.29926e-06
-3.81598e-06
-3.85535e-06
-3.24289e-06
-3.81598e-06
-3.56792e-06
-3.62928e-06
-3.03818e-06
-3.85535e-06
-3.62928e-06
-3.80283e-06
)
;
    }
}


// ************************************************************************* //
