/*--------------------------------*- C++ -*----------------------------------*\
| =========                 |                                                 |
| \\      /  F ield         | OpenFOAM: The Open Source CFD Toolbox           |
|  \\    /   O peration     | Version:  5.x                                   |
|   \\  /    A nd           | Web:      www.OpenFOAM.org                      |
|    \\/     M anipulation  |                                                 |
\*---------------------------------------------------------------------------*/
FoamFile
{
    version     2.0;
    format      ascii;
    class       surfaceScalarField;
    location    "0.14";
    object      phi;
}
// * * * * * * * * * * * * * * * * * * * * * * * * * * * * * * * * * * * * * //

dimensions      [0 3 -1 0 0 0 0];

internalField   nonuniform List<scalar> 
384
(
5.39588e-11
2.13247e-11
5.39588e-11
2.32997e-12
-3.7298e-11
3.43502e-10
-5.01429e-11
-2.23632e-11
2.87061e-10
2.06602e-11
1.22035e-10
2.25305e-11
1.68943e-11
2.25305e-11
3.58023e-12
-1.23102e-11
1.53498e-10
-1.60946e-11
-1.01757e-11
1.23688e-10
1.51929e-11
7.45192e-11
1.56576e-11
1.06483e-11
1.56576e-11
3.0493e-12
-8.31358e-13
8.75358e-11
-1.35259e-11
-1.6256e-12
7.47356e-11
1.07465e-11
5.091e-11
6.84206e-12
7.67687e-12
6.84206e-12
2.51848e-12
1.46159e-12
4.04016e-11
-3.19152e-12
-1.05419e-13
3.56898e-11
7.49206e-12
3.02362e-11
5.17585e-12
5.05568e-12
5.17585e-12
2.10492e-12
2.53348e-12
2.27991e-11
-2.64472e-12
1.64872e-12
2.07094e-11
4.90226e-12
1.96657e-11
2.74471e-12
3.51718e-12
2.74471e-12
1.66715e-12
2.02106e-12
1.17831e-11
-4.05244e-14
1.33433e-12
1.14536e-11
3.09158e-12
1.19102e-11
2.10054e-12
2.33575e-12
2.10054e-12
1.37019e-12
1.59458e-12
6.76404e-12
1.23711e-13
1.21116e-12
6.80173e-12
1.84378e-12
7.48371e-12
1.38404e-12
1.48449e-12
1.38404e-12
1.11934e-12
1.01266e-12
3.93325e-12
5.92617e-13
7.58075e-13
4.15735e-12
1.01482e-12
4.64474e-12
1.09196e-12
8.06145e-13
1.09196e-12
9.33901e-13
5.55881e-13
2.4784e-12
5.74432e-13
4.15738e-13
2.68789e-12
4.61252e-13
3.03672e-12
7.16785e-13
7.16785e-13
6.93702e-13
1.41099e-12
5.38282e-13
1.56842e-12
1.74033e-12
3.43502e-10
-3.7298e-11
2.32997e-12
-1.50305e-11
-5.54555e-10
-1.50305e-11
-2.49091e-10
-3.77757e-10
2.68483e-11
-7.86471e-11
2.35009e-11
1.53498e-10
-1.23102e-11
3.58023e-12
8.25738e-12
-2.64074e-10
8.25738e-12
-7.55558e-11
-1.90155e-10
1.98991e-11
-5.10754e-11
2.36164e-11
8.75358e-11
-8.31358e-13
3.0493e-12
1.14549e-11
-1.11912e-10
1.14549e-11
-3.92264e-11
-8.12425e-11
1.65045e-11
-3.10004e-11
1.98924e-11
4.04016e-11
1.46159e-12
2.51848e-12
1.08452e-11
-5.27992e-11
1.08452e-11
-7.3763e-12
-3.99969e-11
1.26658e-11
-1.85537e-11
1.57818e-11
2.27991e-11
2.53348e-12
2.10492e-12
7.5956e-12
-2.23922e-11
7.5956e-12
-2.47966e-12
-1.79869e-11
8.77475e-12
-1.05602e-11
1.14034e-11
1.17831e-11
2.02106e-12
1.66715e-12
5.72703e-12
-1.028e-11
5.72703e-12
1.48815e-12
-8.80483e-12
6.51041e-12
-6.25526e-12
8.09895e-12
6.76404e-12
1.59458e-12
1.37019e-12
3.8288e-12
-4.40951e-12
3.8288e-12
1.58934e-12
-4.1445e-12
4.38086e-12
-3.61382e-12
5.49532e-12
3.93325e-12
1.01266e-12
1.11934e-12
2.72637e-12
-1.99574e-12
2.72637e-12
1.67945e-12
-2.08023e-12
3.14e-12
-2.11185e-12
3.75247e-12
2.4784e-12
5.55881e-13
9.33901e-13
1.92148e-12
-8.81903e-13
1.92148e-12
1.32582e-12
-1.01576e-12
2.21908e-12
-1.18524e-12
2.62108e-12
1.41099e-12
6.93702e-13
1.23524e-12
1.23524e-12
9.74113e-13
1.41961e-12
1.60112e-12
2.87061e-10
-2.23632e-11
-5.01429e-11
2.68483e-11
-3.77757e-10
-2.49091e-10
-2.17042e-10
-3.48051e-10
-2.17042e-10
-5.48071e-11
-3.6129e-11
1.23688e-10
-1.01757e-11
-1.60946e-11
1.98991e-11
-1.90155e-10
-7.55558e-11
-6.23617e-11
-1.83529e-10
-6.23617e-11
-3.5322e-11
-2.61681e-12
7.47356e-11
-1.6256e-12
-1.35259e-11
1.65045e-11
-8.12425e-11
-3.92264e-11
-3.70792e-11
-7.6362e-11
-3.70792e-11
-2.15306e-11
3.22633e-12
3.56898e-11
-1.05419e-13
-3.19152e-12
1.26658e-11
-3.99969e-11
-7.3763e-12
-5.86733e-12
-3.92958e-11
-5.86733e-12
-1.37961e-11
8.67648e-12
2.07094e-11
1.64872e-12
-2.64472e-12
8.77475e-12
-1.79869e-11
-2.47966e-12
-1.95118e-12
-1.7844e-11
-1.95118e-12
-8.86069e-12
7.22823e-12
1.14536e-11
1.33433e-12
-4.05244e-14
6.51041e-12
-8.80483e-12
1.48815e-12
2.19515e-12
-9.21343e-12
2.19515e-12
-5.80815e-12
6.0393e-12
6.80173e-12
1.21116e-12
1.23711e-13
4.38086e-12
-4.1445e-12
1.58934e-12
2.07429e-12
-4.60028e-12
2.07429e-12
-3.78727e-12
4.33923e-12
4.15735e-12
7.58075e-13
5.92617e-13
3.14e-12
-2.08023e-12
1.67945e-12
2.07356e-12
-2.4674e-12
2.07356e-12
-2.39947e-12
3.08491e-12
2.68789e-12
4.15738e-13
5.74432e-13
2.21908e-12
-1.01576e-12
1.32582e-12
1.61573e-12
-1.26069e-12
1.61573e-12
-1.42909e-12
2.22612e-12
1.56842e-12
5.38282e-13
1.41961e-12
9.74113e-13
1.15023e-12
1.15023e-12
1.38589e-12
1.22035e-10
2.06602e-11
2.35009e-11
-7.86471e-11
-3.6129e-11
-5.48071e-11
-2.14185e-12
7.45192e-11
1.51929e-11
2.36164e-11
-5.10754e-11
-2.61681e-12
-3.5322e-11
-1.20752e-11
5.091e-11
1.07465e-11
1.98924e-11
-3.10004e-11
3.22633e-12
-2.15306e-11
-1.5464e-11
3.02362e-11
7.49206e-12
1.57818e-11
-1.85537e-11
8.67648e-12
-1.37961e-11
-1.35386e-11
1.96657e-11
4.90226e-12
1.14034e-11
-1.05602e-11
7.22823e-12
-8.86069e-12
-1.07259e-11
1.19102e-11
3.09158e-12
8.09895e-12
-6.25526e-12
6.0393e-12
-5.80815e-12
-7.81462e-12
7.48371e-12
1.84378e-12
5.49532e-12
-3.61382e-12
4.33923e-12
-3.78727e-12
-5.41063e-12
4.64474e-12
1.01482e-12
3.75247e-12
-2.11185e-12
3.08491e-12
-2.39947e-12
-3.56116e-12
3.03672e-12
4.61252e-13
2.62108e-12
-1.18524e-12
2.22612e-12
-1.42909e-12
-2.11304e-12
1.74033e-12
1.60112e-12
1.38589e-12
)
;

boundaryField
{
    inlet
    {
        type            calculated;
        value           nonuniform List<scalar> 
16
(
3.33145e-13
1.72033e-13
1.06056e-13
1.43505e-13
1.72033e-13
-5.30404e-13
-6.05821e-13
-6.8908e-13
1.06056e-13
-6.05821e-13
-7.2195e-13
-8.17701e-13
1.43505e-13
-6.8908e-13
-8.17701e-13
-1.17811e-12
)
;
    }
    outlet
    {
        type            calculated;
        value           nonuniform 0();
    }
    walls
    {
        type            calculated;
        value           nonuniform List<scalar> 
160
(
-4.83865e-11
-2.03153e-11
-1.25346e-11
-5.35636e-12
-3.86525e-12
-1.97546e-12
-1.50983e-12
-9.58412e-13
-7.52782e-13
-4.80287e-13
-3.58457e-10
-1.59536e-10
-8.64064e-11
-3.8371e-11
-2.08001e-11
-1.01931e-11
-5.60719e-12
-3.08662e-12
-1.86357e-12
-1.00406e-12
-2.60794e-10
-1.16201e-10
-6.67106e-11
-3.15e-11
-1.77139e-11
-9.43158e-12
-5.43207e-12
-3.17755e-12
-1.98609e-12
-1.10332e-12
-1.16805e-10
-7.05017e-11
-4.67469e-11
-2.6645e-11
-1.67583e-11
-9.71839e-12
-5.91439e-12
-3.51892e-12
-2.22222e-12
-1.22011e-12
-4.40955e-11
-1.46449e-11
-1.32426e-11
-3.52833e-12
-2.96235e-12
-4.21625e-13
-1.97809e-13
2.95762e-13
3.13497e-13
3.35813e-13
-1.74972e-10
-5.22249e-11
-2.82838e-11
-5.36866e-12
-2.21082e-12
9.94482e-13
9.36294e-13
1.06975e-12
8.14841e-13
6.17166e-13
-1.93154e-10
-5.56135e-11
-3.42045e-11
-6.49652e-12
-2.71139e-12
1.20226e-12
1.20951e-12
1.35331e-12
1.04031e-12
7.54069e-13
-2.59934e-11
2.34987e-12
4.92072e-12
7.71379e-12
5.82186e-12
4.58368e-12
3.13723e-12
2.16017e-12
1.50206e-12
9.18431e-13
-4.83865e-11
-2.03153e-11
-1.25346e-11
-5.35636e-12
-3.86525e-12
-1.97546e-12
-1.50983e-12
-9.58412e-13
-7.52782e-13
-4.80287e-13
-3.58457e-10
-1.59536e-10
-8.64064e-11
-3.8371e-11
-2.08001e-11
-1.01931e-11
-5.60719e-12
-3.08662e-12
-1.86357e-12
-1.00406e-12
-2.60794e-10
-1.16201e-10
-6.67106e-11
-3.15e-11
-1.77139e-11
-9.43158e-12
-5.43207e-12
-3.17755e-12
-1.98609e-12
-1.10332e-12
-1.16805e-10
-7.05017e-11
-4.67469e-11
-2.6645e-11
-1.67583e-11
-9.71839e-12
-5.91439e-12
-3.51892e-12
-2.22222e-12
-1.22011e-12
-4.40955e-11
-1.46449e-11
-1.32426e-11
-3.52833e-12
-2.96235e-12
-4.21625e-13
-1.97809e-13
2.95762e-13
3.13497e-13
3.35813e-13
-1.74972e-10
-5.22249e-11
-2.82838e-11
-5.36866e-12
-2.21082e-12
9.94482e-13
9.36294e-13
1.06975e-12
8.14841e-13
6.17166e-13
-1.93154e-10
-5.56135e-11
-3.42045e-11
-6.49652e-12
-2.71139e-12
1.20226e-12
1.20951e-12
1.35331e-12
1.04031e-12
7.54069e-13
-2.59934e-11
2.34987e-12
4.92072e-12
7.71379e-12
5.82186e-12
4.58368e-12
3.13723e-12
2.16017e-12
1.50206e-12
9.18431e-13
)
;
    }
    procBoundary1to0
    {
        type            processor;
        value           nonuniform List<scalar> 
16
(
-3.24693e-11
1.03882e-10
4.85689e-11
-3.19376e-11
1.03882e-10
1.27162e-09
8.7203e-10
1.03063e-10
4.85689e-11
8.7203e-10
8.35832e-10
9.05488e-11
-3.19376e-11
1.03063e-10
9.05488e-11
-1.81293e-11
)
;
    }
}


// ************************************************************************* //
