/*--------------------------------*- C++ -*----------------------------------*\
| =========                 |                                                 |
| \\      /  F ield         | OpenFOAM: The Open Source CFD Toolbox           |
|  \\    /   O peration     | Version:  5.x                                   |
|   \\  /    A nd           | Web:      www.OpenFOAM.org                      |
|    \\/     M anipulation  |                                                 |
\*---------------------------------------------------------------------------*/
FoamFile
{
    version     2.0;
    format      ascii;
    class       volVectorField;
    location    "0.14";
    object      Us;
}
// * * * * * * * * * * * * * * * * * * * * * * * * * * * * * * * * * * * * * //

dimensions      [0 1 -1 0 0 0 0];

internalField   uniform (0 0 0);

boundaryField
{
    inlet
    {
        type            zeroGradient;
    }
    outlet
    {
        type            zeroGradient;
    }
    walls
    {
        type            zeroGradient;
    }
    procBoundary1to0
    {
        type            processor;
        value           nonuniform List<vector> 
16
(
(-2.63256e-19 -5.5072e-16 -2.63256e-19)
(-9.66555e-18 -2.02199e-14 -9.66555e-18)
(-1.02983e-17 -2.15436e-14 -1.02983e-17)
(-9.82816e-19 -2.05601e-15 -9.82816e-19)
(-9.66555e-18 -2.02199e-14 -9.66555e-18)
(-3.45925e-16 -7.2366e-13 -3.45925e-16)
(-3.68186e-16 -7.7023e-13 -3.68186e-16)
(-3.4691e-17 -7.2572e-14 -3.4691e-17)
(-1.02983e-17 -2.15436e-14 -1.02983e-17)
(-3.68186e-16 -7.7023e-13 -3.68186e-16)
(-3.92281e-16 -8.20635e-13 -3.92281e-16)
(-3.74096e-17 -7.82593e-14 -3.74096e-17)
(-9.82816e-19 -2.05601e-15 -9.82816e-19)
(-3.4691e-17 -7.2572e-14 -3.4691e-17)
(-3.74096e-17 -7.82593e-14 -3.74096e-17)
(-4.08158e-18 -8.53848e-15 -4.08158e-18)
)
;
    }
}


// ************************************************************************* //
