/*--------------------------------*- C++ -*----------------------------------*\
| =========                 |                                                 |
| \\      /  F ield         | OpenFOAM: The Open Source CFD Toolbox           |
|  \\    /   O peration     | Version:  5.x                                   |
|   \\  /    A nd           | Web:      www.OpenFOAM.org                      |
|    \\/     M anipulation  |                                                 |
\*---------------------------------------------------------------------------*/
FoamFile
{
    version     2.0;
    format      ascii;
    class       volScalarField;
    location    "0.02";
    object      p;
}
// * * * * * * * * * * * * * * * * * * * * * * * * * * * * * * * * * * * * * //

dimensions      [0 2 -2 0 0 0 0];

internalField   nonuniform List<scalar> 
320
(
-4.36819e-09
-1.83472e-09
-5.70204e-10
-1.02504e-09
-1.53434e-08
-6.20099e-09
-1.5793e-09
-3.6914e-09
-3.14752e-08
-1.07592e-08
-1.34674e-09
-8.19773e-09
-5.82185e-08
-2.17151e-08
-3.18346e-09
-1.76157e-08
-9.69077e-08
-2.29151e-09
2.69638e-08
-2.97481e-08
-1.93672e-07
-1.21507e-07
-4.63554e-08
-8.55003e-08
-2.2706e-07
1.19792e-07
2.66211e-07
-8.98025e-08
-5.12338e-07
-4.76173e-07
-2.26485e-07
-3.43066e-07
-5.59003e-07
1.09759e-07
9.54015e-07
-3.26113e-07
-8.605e-07
-8.6104e-07
-8.60977e-07
-8.60482e-07
-1.16184e-06
-1.83167e-06
-2.67567e-06
-1.39442e-06
-1.20771e-06
-1.24361e-06
-1.49333e-06
-1.37684e-06
-1.49265e-06
-1.83956e-06
-1.98587e-06
-1.62975e-06
-1.52521e-06
-1.59746e-06
-1.67258e-06
-1.63344e-06
-1.62117e-06
-1.71566e-06
-1.74519e-06
-1.68867e-06
-1.65918e-06
-1.69609e-06
-1.71475e-06
-1.7003e-06
-1.6847e-06
-1.70597e-06
-1.71588e-06
-1.70914e-06
-1.69891e-06
-1.70939e-06
-1.71495e-06
-1.71299e-06
-1.70659e-06
-1.71198e-06
-1.71512e-06
-1.71473e-06
-1.71038e-06
-1.71324e-06
-1.71519e-06
-1.71546e-06
-1.83472e-09
1.33377e-09
2.51486e-09
1.64638e-09
-6.20099e-09
6.65786e-09
1.08492e-08
6.48394e-09
-1.07592e-08
2.07294e-08
2.88118e-08
1.50972e-08
-2.17151e-08
5.40491e-08
6.71607e-08
2.69482e-08
-2.29151e-09
1.67962e-07
1.79587e-07
7.64147e-08
-1.21507e-07
2.70742e-07
2.91792e-07
6.13503e-08
1.19792e-07
1.29832e-06
1.26925e-06
3.48257e-07
-4.76173e-07
5.64222e-07
9.45341e-07
-8.45258e-08
1.09759e-07
9.02503e-06
9.56739e-06
1.20585e-06
-8.6104e-07
-8.62377e-07
-8.61677e-07
-8.61046e-07
-1.83167e-06
-1.07479e-05
-1.12897e-05
-2.92758e-06
-1.24361e-06
-2.28164e-06
-2.66378e-06
-1.63537e-06
-1.83956e-06
-3.01786e-06
-2.9887e-06
-2.06774e-06
-1.59746e-06
-1.98958e-06
-2.01065e-06
-1.78042e-06
-1.71566e-06
-1.88617e-06
-1.89805e-06
-1.79494e-06
-1.69609e-06
-1.772e-06
-1.78533e-06
-1.7452e-06
-1.70597e-06
-1.73815e-06
-1.7467e-06
-1.73304e-06
-1.70939e-06
-1.72367e-06
-1.72879e-06
-1.72451e-06
-1.71198e-06
-1.71855e-06
-1.72155e-06
-1.7204e-06
-1.71324e-06
-1.71635e-06
-1.71828e-06
-1.71838e-06
-5.70204e-10
2.51486e-09
3.78583e-09
2.83504e-09
-1.5793e-09
1.08492e-08
1.54809e-08
1.06616e-08
-1.34674e-09
2.88118e-08
3.8719e-08
2.35055e-08
-3.18346e-09
6.71607e-08
8.71673e-08
4.10891e-08
2.69638e-08
1.79587e-07
2.2848e-07
9.95685e-08
-4.63554e-08
2.91792e-07
4.15887e-07
9.55011e-08
2.66211e-07
1.26925e-06
1.64439e-06
3.81217e-07
-2.26485e-07
9.45341e-07
1.90172e-06
6.97364e-09
9.54015e-07
9.56739e-06
1.5519e-05
1.49903e-06
-8.60977e-07
-8.61677e-07
-8.6247e-07
-8.61136e-07
-2.67567e-06
-1.12897e-05
-1.72423e-05
-3.22094e-06
-1.49333e-06
-2.66378e-06
-3.61875e-06
-1.72701e-06
-1.98587e-06
-2.9887e-06
-3.3637e-06
-2.10067e-06
-1.67258e-06
-2.01065e-06
-2.13478e-06
-1.81468e-06
-1.74519e-06
-1.89805e-06
-1.94708e-06
-1.81825e-06
-1.71475e-06
-1.78533e-06
-1.80556e-06
-1.75959e-06
-1.71588e-06
-1.7467e-06
-1.75709e-06
-1.74196e-06
-1.71495e-06
-1.72879e-06
-1.73438e-06
-1.72963e-06
-1.71512e-06
-1.72155e-06
-1.72468e-06
-1.72339e-06
-1.71519e-06
-1.71828e-06
-1.72023e-06
-1.72031e-06
-1.02504e-09
1.64638e-09
2.83504e-09
2.39052e-09
-3.6914e-09
6.48394e-09
1.06616e-08
8.61013e-09
-8.19773e-09
1.50972e-08
2.35055e-08
1.71541e-08
-1.76157e-08
2.69482e-08
4.10891e-08
2.8452e-08
-2.97481e-08
7.64147e-08
9.95685e-08
4.91724e-08
-8.55003e-08
6.13503e-08
9.55011e-08
3.85439e-08
-8.98025e-08
3.48257e-07
3.81217e-07
7.86092e-08
-3.43066e-07
-8.45258e-08
6.97364e-09
-1.25448e-07
-3.26113e-07
1.20585e-06
1.49903e-06
2.49305e-08
-8.60482e-07
-8.61046e-07
-8.61136e-07
-8.60666e-07
-1.39442e-06
-2.92758e-06
-3.22094e-06
-1.74599e-06
-1.37684e-06
-1.63537e-06
-1.72701e-06
-1.59466e-06
-1.62975e-06
-2.06774e-06
-2.10067e-06
-1.79827e-06
-1.63344e-06
-1.78042e-06
-1.81468e-06
-1.75771e-06
-1.68867e-06
-1.79494e-06
-1.81825e-06
-1.76799e-06
-1.7003e-06
-1.7452e-06
-1.75959e-06
-1.74702e-06
-1.70914e-06
-1.73304e-06
-1.74196e-06
-1.73571e-06
-1.71299e-06
-1.72451e-06
-1.72963e-06
-1.72773e-06
-1.71473e-06
-1.7204e-06
-1.72339e-06
-1.72299e-06
-1.71546e-06
-1.71838e-06
-1.72031e-06
-1.72056e-06
)
;

boundaryField
{
    inlet
    {
        type            zeroGradient;
    }
    outlet
    {
        type            totalPressure;
        rho             rho;
        psi             none;
        gamma           1;
        p0              uniform 0;
        value           nonuniform List<scalar> 
16
(
-1.72064e-16
-2.00077e-17
0
-3.73364e-17
-2.00077e-17
0
0
0
0
0
0
0
-3.73364e-17
0
0
-4.45211e-18
)
;
    }
    walls
    {
        type            zeroGradient;
    }
}


// ************************************************************************* //
