/*--------------------------------*- C++ -*----------------------------------*\
| =========                 |                                                 |
| \\      /  F ield         | OpenFOAM: The Open Source CFD Toolbox           |
|  \\    /   O peration     | Version:  5.x                                   |
|   \\  /    A nd           | Web:      www.OpenFOAM.org                      |
|    \\/     M anipulation  |                                                 |
\*---------------------------------------------------------------------------*/
FoamFile
{
    version     2.0;
    format      ascii;
    class       volVectorField;
    location    "0.02";
    object      Us;
}
// * * * * * * * * * * * * * * * * * * * * * * * * * * * * * * * * * * * * * //

dimensions      [0 1 -1 0 0 0 0];

internalField   nonuniform List<vector> 
320
(
(-3.9186e-29 -3.54705e-20 -3.9186e-29)
(-2.62895e-28 -2.37968e-19 -2.62895e-28)
(-2.62539e-28 -2.37645e-19 -2.62539e-28)
(-3.73272e-29 -3.37879e-20 -3.73271e-29)
(-2.31302e-27 -2.09371e-18 -2.31302e-27)
(-1.70718e-26 -1.54531e-17 -1.70718e-26)
(-1.70552e-26 -1.5438e-17 -1.70552e-26)
(-2.21989e-27 -2.00941e-18 -2.21989e-27)
(-1.35696e-25 -1.2283e-16 -1.35696e-25)
(-1.11161e-24 -1.00621e-15 -1.11161e-24)
(-1.11087e-24 -1.00554e-15 -1.11087e-24)
(-1.31172e-25 -1.18735e-16 -1.31172e-25)
(-7.74058e-24 -7.00665e-15 -7.74058e-24)
(-7.12668e-23 -6.45095e-14 -7.12668e-23)
(-7.12361e-23 -6.44817e-14 -7.12361e-23)
(-7.53459e-24 -6.82018e-15 -7.53459e-24)
(-4.25834e-22 -3.85458e-13 -4.25834e-22)
(-4.47684e-21 -4.05236e-12 -4.47684e-21)
(-4.47569e-21 -4.05132e-12 -4.47569e-21)
(-4.17256e-22 -3.77693e-13 -4.17256e-22)
(-2.23137e-20 -2.0198e-11 -2.23137e-20)
(-2.7348e-19 -2.47549e-10 -2.7348e-19)
(-2.73443e-19 -2.47516e-10 -2.73443e-19)
(-2.20011e-20 -1.9915e-11 -2.20011e-20)
(-1.09144e-18 -9.87949e-10 -1.09144e-18)
(-1.60419e-17 -1.45209e-08 -1.60419e-17)
(-1.6041e-17 -1.452e-08 -1.6041e-17)
(-1.08231e-18 -9.79684e-10 -1.0823e-18)
(-4.80538e-17 -4.34975e-08 -4.80538e-17)
(-8.82403e-16 -7.98736e-07 -8.82403e-16)
(-8.82387e-16 -7.98722e-07 -8.82387e-16)
(-4.78861e-17 -4.33456e-08 -4.7886e-17)
(-1.76339e-15 -1.59619e-06 -1.76339e-15)
(-4.31557e-14 -3.90638e-05 -4.31557e-14)
(-4.31556e-14 -3.90637e-05 -4.31556e-14)
(-1.76329e-15 -1.5961e-06 -1.76329e-15)
(-4.31517e-14 -3.90602e-05 -4.31517e-14)
(-1.58345e-12 -0.00143331 -1.58345e-12)
(-1.58345e-12 -0.00143331 -1.58345e-12)
(-4.31475e-14 -3.90564e-05 -4.31475e-14)
(-1.76266e-15 -1.59553e-06 -1.76266e-15)
(-4.31483e-14 -3.90571e-05 -4.31482e-14)
(-4.3156e-14 -3.90641e-05 -4.3156e-14)
(-1.76298e-15 -1.59582e-06 -1.76298e-15)
(-3.99198e-17 -3.61348e-08 -3.99198e-17)
(-8.78124e-16 -7.94863e-07 -8.78123e-16)
(-8.81821e-16 -7.98209e-07 -8.81821e-16)
(-4.38702e-17 -3.97105e-08 -4.38701e-17)
(-7.53438e-19 -6.81999e-10 -7.53437e-19)
(-1.57626e-17 -1.42681e-08 -1.57626e-17)
(-1.59627e-17 -1.44492e-08 -1.59627e-17)
(-9.73476e-19 -8.81174e-10 -9.73475e-19)
(-1.30257e-20 -1.17906e-11 -1.30257e-20)
(-2.64452e-19 -2.39378e-10 -2.64452e-19)
(-2.70511e-19 -2.44862e-10 -2.70511e-19)
(-1.97873e-20 -1.79112e-11 -1.97873e-20)
(-2.13827e-22 -1.93553e-13 -2.13827e-22)
(-4.25287e-21 -3.84963e-12 -4.25287e-21)
(-4.39737e-21 -3.98042e-12 -4.39737e-21)
(-3.77205e-22 -3.4144e-13 -3.77205e-22)
(-3.39211e-24 -3.07048e-15 -3.39211e-24)
(-6.64375e-23 -6.01381e-14 -6.64375e-23)
(-6.94618e-23 -6.28756e-14 -6.94618e-23)
(-6.85489e-24 -6.20493e-15 -6.85488e-24)
(-5.25203e-26 -4.75405e-17 -5.25203e-26)
(-1.01616e-24 -9.1981e-16 -1.01616e-24)
(-1.07445e-24 -9.72571e-16 -1.07445e-24)
(-1.20092e-25 -1.08705e-16 -1.20092e-25)
(-7.98559e-28 -7.22842e-19 -7.98559e-28)
(-1.5294e-26 -1.38439e-17 -1.5294e-26)
(-1.63553e-26 -1.48046e-17 -1.63553e-26)
(-2.04418e-27 -1.85036e-18 -2.04418e-27)
(-1.19725e-29 -1.08373e-20 -1.19725e-29)
(-2.27292e-28 -2.05741e-19 -2.27292e-28)
(-2.45831e-28 -2.22522e-19 -2.45831e-28)
(-3.39984e-29 -3.07748e-20 -3.39984e-29)
(-1.81301e-31 -1.64111e-22 -1.81301e-31)
(-3.39398e-30 -3.07217e-21 -3.39398e-30)
(-3.71197e-30 -3.36001e-21 -3.71197e-30)
(-5.6387e-31 -5.10406e-22 -5.6387e-31)
(-2.62895e-28 -2.37968e-19 -2.62895e-28)
(-1.93513e-27 -1.75164e-18 -1.93513e-27)
(-1.93151e-27 -1.74837e-18 -1.93151e-27)
(-2.503e-28 -2.26567e-19 -2.503e-28)
(-1.70718e-26 -1.54531e-17 -1.70718e-26)
(-1.3968e-25 -1.26436e-16 -1.3968e-25)
(-1.39498e-25 -1.26271e-16 -1.39498e-25)
(-1.64013e-26 -1.48462e-17 -1.64013e-26)
(-1.11161e-24 -1.00621e-15 -1.11161e-24)
(-1.02235e-23 -9.25411e-15 -1.02235e-23)
(-1.02147e-23 -9.24618e-15 -1.02147e-23)
(-1.07703e-24 -9.74909e-16 -1.07703e-24)
(-7.12668e-23 -6.45095e-14 -7.12668e-23)
(-7.48535e-22 -6.77561e-13 -7.48535e-22)
(-7.48143e-22 -6.77207e-13 -7.48143e-22)
(-6.9601e-23 -6.30016e-14 -6.9601e-23)
(-4.47684e-21 -4.05236e-12 -4.47684e-21)
(-5.48249e-20 -4.96266e-11 -5.48249e-20)
(-5.48092e-20 -4.96124e-11 -5.48092e-20)
(-4.40444e-21 -3.98683e-12 -4.40444e-21)
(-2.7348e-19 -2.47549e-10 -2.7348e-19)
(-4.01696e-18 -3.63609e-09 -4.01696e-18)
(-4.01643e-18 -3.63561e-09 -4.01643e-18)
(-2.7084e-19 -2.4516e-10 -2.7084e-19)
(-1.60419e-17 -1.45209e-08 -1.60419e-17)
(-2.94425e-16 -2.66508e-07 -2.94425e-16)
(-2.94412e-16 -2.66497e-07 -2.94412e-16)
(-1.59759e-17 -1.44611e-08 -1.59759e-17)
(-8.82403e-16 -7.98736e-07 -8.82403e-16)
(-2.15879e-14 -1.9541e-05 -2.15879e-14)
(-2.15877e-14 -1.95408e-05 -2.15877e-14)
(-8.82196e-16 -7.98549e-07 -8.82196e-16)
(-4.31557e-14 -3.90638e-05 -4.31557e-14)
(-1.58345e-12 -0.00143331 -1.58345e-12)
(-1.58345e-12 -0.00143331 -1.58345e-12)
(-4.31557e-14 -3.90638e-05 -4.31557e-14)
(-1.58345e-12 -0.00143331 -1.58345e-12)
(-1.16177e-10 -0.105161 -1.16177e-10)
(-1.16177e-10 -0.105161 -1.16177e-10)
(-1.58345e-12 -0.00143331 -1.58345e-12)
(-4.31483e-14 -3.90571e-05 -4.31482e-14)
(-1.58344e-12 -0.00143331 -1.58344e-12)
(-1.58345e-12 -0.00143331 -1.58345e-12)
(-4.316e-14 -3.90677e-05 -4.316e-14)
(-8.78124e-16 -7.94863e-07 -8.78123e-16)
(-2.15873e-14 -1.95404e-05 -2.15873e-14)
(-2.15838e-14 -1.95373e-05 -2.15838e-14)
(-8.78442e-16 -7.95151e-07 -8.78442e-16)
(-1.57626e-17 -1.42681e-08 -1.57626e-17)
(-2.94296e-16 -2.66392e-07 -2.94296e-16)
(-2.94307e-16 -2.66402e-07 -2.94307e-16)
(-1.5932e-17 -1.44214e-08 -1.5932e-17)
(-2.64452e-19 -2.39378e-10 -2.64452e-19)
(-4.01196e-18 -3.63156e-09 -4.01196e-18)
(-4.01433e-18 -3.6337e-09 -4.01432e-18)
(-2.71197e-19 -2.45483e-10 -2.71197e-19)
(-4.25287e-21 -3.84963e-12 -4.25287e-21)
(-5.46903e-20 -4.95047e-11 -5.46903e-20)
(-5.47715e-20 -4.95782e-11 -5.47715e-20)
(-4.43462e-21 -4.01415e-12 -4.43462e-21)
(-6.64375e-23 -6.01381e-14 -6.64375e-23)
(-7.45487e-22 -6.74802e-13 -7.45487e-22)
(-7.47512e-22 -6.76635e-13 -7.47511e-22)
(-7.05326e-23 -6.38449e-14 -7.05326e-23)
(-1.01616e-24 -9.1981e-16 -1.01616e-24)
(-1.01611e-23 -9.19768e-15 -1.01611e-23)
(-1.02045e-23 -9.23697e-15 -1.02045e-23)
(-1.0993e-24 -9.95069e-16 -1.0993e-24)
(-1.5294e-26 -1.38439e-17 -1.5294e-26)
(-1.38488e-25 -1.25357e-16 -1.38488e-25)
(-1.39339e-25 -1.26127e-16 -1.39339e-25)
(-1.68704e-26 -1.52708e-17 -1.68704e-26)
(-2.27292e-28 -2.05741e-19 -2.27292e-28)
(-1.88733e-27 -1.70838e-18 -1.88733e-27)
(-1.90303e-27 -1.72259e-18 -1.90303e-27)
(-2.55765e-28 -2.31514e-19 -2.55765e-28)
(-3.39398e-30 -3.07217e-21 -3.39398e-30)
(-2.60699e-29 -2.35981e-20 -2.60699e-29)
(-2.63513e-29 -2.38527e-20 -2.63513e-29)
(-3.89678e-30 -3.5273e-21 -3.89678e-30)
(-2.62539e-28 -2.37645e-19 -2.62539e-28)
(-1.93151e-27 -1.74837e-18 -1.93151e-27)
(-1.9139e-27 -1.73243e-18 -1.9139e-27)
(-2.34317e-28 -2.12099e-19 -2.34317e-28)
(-1.70552e-26 -1.5438e-17 -1.70552e-26)
(-1.39498e-25 -1.26271e-16 -1.39498e-25)
(-1.38537e-25 -1.25401e-16 -1.38537e-25)
(-1.55201e-26 -1.40485e-17 -1.55201e-26)
(-1.11087e-24 -1.00554e-15 -1.11087e-24)
(-1.02147e-23 -9.24618e-15 -1.02147e-23)
(-1.01639e-23 -9.20018e-15 -1.01639e-23)
(-1.03e-24 -9.32339e-16 -1.03e-24)
(-7.12361e-23 -6.44817e-14 -7.12361e-23)
(-7.48143e-22 -6.77207e-13 -7.48143e-22)
(-7.45638e-22 -6.74939e-13 -7.45638e-22)
(-6.72606e-23 -6.08831e-14 -6.72606e-23)
(-4.47569e-21 -4.05132e-12 -4.47569e-21)
(-5.48092e-20 -4.96124e-11 -5.48092e-20)
(-5.46981e-20 -4.95118e-11 -5.46981e-20)
(-4.29981e-21 -3.89211e-12 -4.2998e-21)
(-2.73443e-19 -2.47516e-10 -2.73443e-19)
(-4.01643e-18 -3.63561e-09 -4.01643e-18)
(-4.01234e-18 -3.6319e-09 -4.01234e-18)
(-2.66959e-19 -2.41647e-10 -2.66959e-19)
(-1.6041e-17 -1.452e-08 -1.6041e-17)
(-2.94412e-16 -2.66497e-07 -2.94412e-16)
(-2.94312e-16 -2.66406e-07 -2.94312e-16)
(-1.58817e-17 -1.43758e-08 -1.58817e-17)
(-8.82387e-16 -7.98722e-07 -8.82387e-16)
(-2.15877e-14 -1.95408e-05 -2.15877e-14)
(-2.15878e-14 -1.95409e-05 -2.15878e-14)
(-8.82392e-16 -7.98727e-07 -8.82392e-16)
(-4.31556e-14 -3.90637e-05 -4.31556e-14)
(-1.58345e-12 -0.00143331 -1.58345e-12)
(-1.58345e-12 -0.00143331 -1.58345e-12)
(-4.31557e-14 -3.90638e-05 -4.31557e-14)
(-1.58345e-12 -0.00143331 -1.58345e-12)
(-1.16177e-10 -0.105161 -1.16177e-10)
(-1.16177e-10 -0.105161 -1.16177e-10)
(-1.58345e-12 -0.00143331 -1.58345e-12)
(-4.3156e-14 -3.90641e-05 -4.3156e-14)
(-1.58345e-12 -0.00143331 -1.58345e-12)
(-1.58344e-12 -0.00143331 -1.58344e-12)
(-4.31563e-14 -3.90643e-05 -4.31562e-14)
(-8.81821e-16 -7.98209e-07 -8.81821e-16)
(-2.15838e-14 -1.95373e-05 -2.15838e-14)
(-2.158e-14 -1.95338e-05 -2.158e-14)
(-8.81986e-16 -7.98359e-07 -8.81986e-16)
(-1.59627e-17 -1.44492e-08 -1.59627e-17)
(-2.94307e-16 -2.66402e-07 -2.94307e-16)
(-2.94213e-16 -2.66316e-07 -2.94213e-16)
(-1.60269e-17 -1.45073e-08 -1.60269e-17)
(-2.70511e-19 -2.44862e-10 -2.70511e-19)
(-4.01433e-18 -3.6337e-09 -4.01432e-18)
(-4.01267e-18 -3.6322e-09 -4.01267e-18)
(-2.73102e-19 -2.47207e-10 -2.73102e-19)
(-4.39737e-21 -3.98042e-12 -4.39737e-21)
(-5.47715e-20 -4.95782e-11 -5.47715e-20)
(-5.47475e-20 -4.95565e-11 -5.47475e-20)
(-4.4687e-21 -4.04499e-12 -4.4687e-21)
(-6.94618e-23 -6.28756e-14 -6.94618e-23)
(-7.47512e-22 -6.76635e-13 -7.47511e-22)
(-7.47228e-22 -6.76378e-13 -7.47228e-22)
(-7.11068e-23 -6.43646e-14 -7.11067e-23)
(-1.07445e-24 -9.72571e-16 -1.07445e-24)
(-1.02045e-23 -9.23697e-15 -1.02045e-23)
(-1.02023e-23 -9.23491e-15 -1.02023e-23)
(-1.10864e-24 -1.00353e-15 -1.10864e-24)
(-1.63553e-26 -1.48046e-17 -1.63553e-26)
(-1.39339e-25 -1.26127e-16 -1.39339e-25)
(-1.39345e-25 -1.26133e-16 -1.39345e-25)
(-1.70192e-26 -1.54055e-17 -1.70192e-26)
(-2.45831e-28 -2.22522e-19 -2.45831e-28)
(-1.90303e-27 -1.72259e-18 -1.90303e-27)
(-1.90386e-27 -1.72335e-18 -1.90386e-27)
(-2.58103e-28 -2.33631e-19 -2.58103e-28)
(-3.71197e-30 -3.36001e-21 -3.71197e-30)
(-2.63513e-29 -2.38527e-20 -2.63513e-29)
(-2.63769e-29 -2.38759e-20 -2.63769e-29)
(-3.93375e-30 -3.56077e-21 -3.93375e-30)
(-3.73272e-29 -3.37879e-20 -3.73271e-29)
(-2.503e-28 -2.26567e-19 -2.503e-28)
(-2.34317e-28 -2.12099e-19 -2.34317e-28)
(-1.80762e-29 -1.63622e-20 -1.80762e-29)
(-2.21989e-27 -2.00941e-18 -2.21989e-27)
(-1.64013e-26 -1.48462e-17 -1.64013e-26)
(-1.55201e-26 -1.40485e-17 -1.55201e-26)
(-1.17094e-27 -1.05991e-18 -1.17094e-27)
(-1.31172e-25 -1.18735e-16 -1.31172e-25)
(-1.07703e-24 -9.74909e-16 -1.07703e-24)
(-1.03e-24 -9.32339e-16 -1.03e-24)
(-7.58212e-26 -6.86321e-17 -7.58212e-26)
(-7.53459e-24 -6.82018e-15 -7.53459e-24)
(-6.9601e-23 -6.30016e-14 -6.9601e-23)
(-6.72606e-23 -6.08831e-14 -6.72606e-23)
(-4.80926e-24 -4.35326e-15 -4.80926e-24)
(-4.17256e-22 -3.77693e-13 -4.17256e-22)
(-4.40444e-21 -3.98683e-12 -4.40444e-21)
(-4.29981e-21 -3.89211e-12 -4.2998e-21)
(-2.96548e-22 -2.68431e-13 -2.96548e-22)
(-2.20011e-20 -1.9915e-11 -2.20011e-20)
(-2.7084e-19 -2.4516e-10 -2.7084e-19)
(-2.66959e-19 -2.41647e-10 -2.66959e-19)
(-1.75513e-20 -1.58871e-11 -1.75513e-20)
(-1.08231e-18 -9.79684e-10 -1.0823e-18)
(-1.59759e-17 -1.44611e-08 -1.59759e-17)
(-1.58817e-17 -1.43758e-08 -1.58817e-17)
(-9.73473e-19 -8.81171e-10 -9.73473e-19)
(-4.78861e-17 -4.33456e-08 -4.7886e-17)
(-8.82196e-16 -7.98549e-07 -8.82196e-16)
(-8.82392e-16 -7.98727e-07 -8.82392e-16)
(-4.79448e-17 -4.33988e-08 -4.79448e-17)
(-1.76329e-15 -1.5961e-06 -1.76329e-15)
(-4.31557e-14 -3.90638e-05 -4.31557e-14)
(-4.31557e-14 -3.90638e-05 -4.31557e-14)
(-1.76351e-15 -1.5963e-06 -1.76351e-15)
(-4.31475e-14 -3.90564e-05 -4.31475e-14)
(-1.58345e-12 -0.00143331 -1.58345e-12)
(-1.58345e-12 -0.00143331 -1.58345e-12)
(-4.31517e-14 -3.90602e-05 -4.31517e-14)
(-1.76298e-15 -1.59582e-06 -1.76298e-15)
(-4.316e-14 -3.90677e-05 -4.316e-14)
(-4.31563e-14 -3.90643e-05 -4.31562e-14)
(-1.7632e-15 -1.59602e-06 -1.7632e-15)
(-4.38702e-17 -3.97105e-08 -4.38701e-17)
(-8.78442e-16 -7.95151e-07 -8.78442e-16)
(-8.81986e-16 -7.98359e-07 -8.81986e-16)
(-4.80385e-17 -4.34836e-08 -4.80384e-17)
(-9.73476e-19 -8.81174e-10 -9.73475e-19)
(-1.5932e-17 -1.44214e-08 -1.5932e-17)
(-1.60269e-17 -1.45073e-08 -1.60269e-17)
(-1.0908e-18 -9.87373e-10 -1.0908e-18)
(-1.97873e-20 -1.79112e-11 -1.97873e-20)
(-2.71197e-19 -2.45483e-10 -2.71197e-19)
(-2.73102e-19 -2.47207e-10 -2.73102e-19)
(-2.22945e-20 -2.01806e-11 -2.22945e-20)
(-3.77205e-22 -3.4144e-13 -3.77205e-22)
(-4.43462e-21 -4.01415e-12 -4.43462e-21)
(-4.4687e-21 -4.04499e-12 -4.4687e-21)
(-4.25347e-22 -3.85017e-13 -4.25347e-22)
(-6.85489e-24 -6.20493e-15 -6.85488e-24)
(-7.05326e-23 -6.38449e-14 -7.05326e-23)
(-7.11068e-23 -6.43646e-14 -7.11067e-23)
(-7.72954e-24 -6.99665e-15 -7.72954e-24)
(-1.20092e-25 -1.08705e-16 -1.20092e-25)
(-1.0993e-24 -9.95069e-16 -1.0993e-24)
(-1.10864e-24 -1.00353e-15 -1.10864e-24)
(-1.35464e-25 -1.2262e-16 -1.35464e-25)
(-2.04418e-27 -1.85036e-18 -2.04418e-27)
(-1.68704e-26 -1.52708e-17 -1.68704e-26)
(-1.70192e-26 -1.54055e-17 -1.70192e-26)
(-2.30841e-27 -2.08953e-18 -2.30841e-27)
(-3.39984e-29 -3.07748e-20 -3.39984e-29)
(-2.55765e-28 -2.31514e-19 -2.55765e-28)
(-2.58103e-28 -2.33631e-19 -2.58103e-28)
(-3.84678e-29 -3.48204e-20 -3.84678e-29)
(-5.6387e-31 -5.10406e-22 -5.6387e-31)
(-3.89678e-30 -3.5273e-21 -3.89678e-30)
(-3.93375e-30 -3.56077e-21 -3.93375e-30)
(-6.39598e-31 -5.78953e-22 -6.39597e-31)
)
;

boundaryField
{
    inlet
    {
        type            zeroGradient;
    }
    outlet
    {
        type            zeroGradient;
    }
    walls
    {
        type            zeroGradient;
    }
}


// ************************************************************************* //
