FoamFile
{version 2.0; format ascii;class scalarField; location 0;object  r;}
2
(
0.0835 
0.0835 
)
