/*--------------------------------*- C++ -*----------------------------------*\
| =========                 |                                                 |
| \\      /  F ield         | OpenFOAM: The Open Source CFD Toolbox           |
|  \\    /   O peration     | Version:  5.x                                   |
|   \\  /    A nd           | Web:      www.OpenFOAM.org                      |
|    \\/     M anipulation  |                                                 |
\*---------------------------------------------------------------------------*/
FoamFile
{
    version     2.0;
    format      ascii;
    class       volScalarField;
    location    "0.08";
    object      Ksl;
}
// * * * * * * * * * * * * * * * * * * * * * * * * * * * * * * * * * * * * * //

dimensions      [1 -3 -1 0 0 0 0];

internalField   nonuniform List<scalar> 
160
(
0
0
0
0
0
0
0
0
3.86178e-05
0.000243514
0.000175278
1.62281e-05
0.00125765
0.00591429
0.00448188
0.000415208
0.0321721
0.129638
0.102549
0.00971064
0.688864
1.93102
1.2442
0.206372
2.88161
3.15329
1.5253
1.24902
1.4568
2.34173
1.50216
0.224638
0.0656659
0.0471767
0.0655983
0.00964825
0.000359911
0.000542433
0.000509031
0.000101351
0
0
0
0
0
4.89497e-05
3.54632e-05
0
0.000243514
0.00156322
0.00121262
0.000141352
0.00591429
0.0456732
0.0359129
0.00446978
0.129638
2.10835
1.73503
0.128726
1.93102
3.31718
1.56413
1.46334
3.15329
3.19552
1.50973
1.49647
2.34173
4.66692
1.82577
1.10035
0.0471767
0.163773
0.160721
0.110887
0.000542433
0.00283384
0.00202646
0.000663897
0
0
0
0
0
3.54632e-05
3.07887e-05
0
0.000175278
0.00121262
0.00119233
0.000173213
0.00448188
0.0359129
0.035741
0.0056533
0.102549
1.73503
1.59454
0.135259
1.2442
1.56413
1.04076
0.963603
1.5253
1.50973
1.00894
1.01044
1.50216
1.82577
1.16119
0.810998
0.0655983
0.160721
0.160067
0.0569231
0.000509031
0.00202646
0.00129579
0.000528213
0
0
0
0
0
0
0
0
1.62281e-05
0.000141352
0.000173213
0
0.000415208
0.00446978
0.0056533
0.000998103
0.00971064
0.128726
0.135259
0.0326926
0.206372
1.46334
0.963603
0.361383
1.24902
1.49647
1.01044
0.860504
0.224638
1.10035
0.810998
0.130368
0.00964825
0.110887
0.0569231
0.00398018
0.000101351
0.000663897
0.000528213
0.000137597
)
;

boundaryField
{
    inlet
    {
        type            zeroGradient;
    }
    outlet
    {
        type            zeroGradient;
    }
    walls
    {
        type            zeroGradient;
    }
    procBoundary0to1
    {
        type            processor;
        value           nonuniform List<scalar> 
16
(
2.53601e-06
7.96876e-06
6.01649e-06
0
7.96876e-06
9.67709e-05
6.4535e-05
1.05983e-05
6.01649e-06
6.4535e-05
5.52982e-05
6.52186e-06
0
1.05983e-05
6.52186e-06
0
)
;
    }
}


// ************************************************************************* //
