/*--------------------------------*- C++ -*----------------------------------*\
| =========                 |                                                 |
| \\      /  F ield         | OpenFOAM: The Open Source CFD Toolbox           |
|  \\    /   O peration     | Version:  5.x                                   |
|   \\  /    A nd           | Web:      www.OpenFOAM.org                      |
|    \\/     M anipulation  |                                                 |
\*---------------------------------------------------------------------------*/
FoamFile
{
    version     2.0;
    format      ascii;
    class       surfaceScalarField;
    location    "0.08";
    object      phi;
}
// * * * * * * * * * * * * * * * * * * * * * * * * * * * * * * * * * * * * * //

dimensions      [0 3 -1 0 0 0 0];

internalField   nonuniform List<scalar> 
384
(
-1.17855e-12
6.19267e-12
-1.17855e-12
-5.11716e-13
1.63866e-12
-2.91016e-12
-2.12862e-14
1.30629e-12
-2.56841e-12
2.42419e-12
-2.45032e-12
-3.73696e-12
8.1696e-12
-3.73696e-12
-1.34429e-12
1.55123e-12
-1.10923e-11
2.66596e-13
1.92059e-12
-9.34771e-12
4.3659e-12
-8.09525e-12
-7.55426e-12
1.18014e-11
-7.55426e-12
-1.98301e-12
7.22023e-13
-2.74412e-11
1.82995e-12
2.46155e-12
-2.13581e-11
8.34148e-12
-1.68425e-11
-1.26671e-11
1.65086e-11
-1.26671e-11
-2.57218e-12
-2.0707e-13
-6.56846e-11
3.85488e-12
4.12656e-12
-4.70192e-11
1.47756e-11
-3.13787e-11
-2.00122e-11
1.95115e-11
-2.00122e-11
-3.05467e-12
1.39802e-13
-1.61728e-10
1.21653e-11
3.70665e-12
-1.06438e-10
2.50177e-11
-5.53764e-11
-3.44738e-11
2.70836e-11
-3.44738e-11
7.34168e-13
1.76102e-11
-4.25633e-10
2.42738e-11
2.15486e-11
-2.56418e-10
4.26272e-11
-8.95548e-11
-2.43621e-11
1.0662e-11
-2.43621e-11
-2.784e-13
-5.79627e-11
-6.04725e-10
3.64544e-11
-1.71932e-11
-3.51146e-10
4.5899e-11
-1.07772e-10
2.09041e-11
2.30393e-12
2.09041e-11
-3.97593e-12
-2.14351e-10
-1.87756e-10
1.66209e-12
-9.6901e-11
-1.29987e-10
1.94015e-11
-5.11312e-11
2.99218e-12
1.94415e-11
2.99218e-12
4.0102e-12
-1.69452e-10
2.72576e-10
3.04245e-11
-6.45413e-11
4.70438e-11
1.56885e-11
3.56589e-11
3.16635e-11
3.16635e-11
6.01421e-12
5.31603e-10
-1.8049e-11
3.20759e-10
1.08046e-10
-2.91016e-12
1.63866e-12
-5.11716e-13
-7.2527e-13
-1.46507e-11
-7.2527e-13
1.98191e-13
-1.13093e-11
-8.94035e-13
-7.99359e-12
-1.08064e-12
-1.10923e-11
1.55123e-12
-1.34429e-12
-1.79707e-12
-3.32412e-11
-1.79707e-12
2.10837e-12
-2.21415e-11
-2.42101e-12
-1.24268e-11
-2.86784e-12
-2.74412e-11
7.22023e-13
-1.98301e-12
-2.08014e-12
-8.39633e-11
-2.08014e-12
8.84395e-12
-5.08666e-11
-3.55709e-12
-2.09344e-11
-4.62888e-12
-6.56846e-11
-2.0707e-13
-2.57218e-12
3.86761e-13
-2.16106e-10
3.86761e-13
2.81516e-11
-1.21747e-10
-3.90383e-12
-3.4125e-11
-5.82473e-12
-1.61728e-10
1.39802e-13
-3.05467e-12
2.10735e-11
-5.81709e-10
2.10735e-11
9.22645e-11
-3.00524e-10
1.14852e-12
-4.43336e-11
-5.44285e-12
-4.25633e-10
1.76102e-11
7.34168e-13
1.0798e-10
-1.64894e-09
1.0798e-10
2.81356e-10
-7.60308e-10
2.99897e-11
6.44919e-13
-2.35454e-12
-6.04725e-10
-5.79627e-11
-2.784e-13
1.58619e-10
-3.17562e-09
1.58619e-10
4.59318e-10
-1.45465e-09
4.24983e-11
7.87209e-11
3.192e-12
-1.87756e-10
-2.14351e-10
-3.97593e-12
1.04858e-11
-3.57211e-09
1.04858e-11
1.91345e-10
-1.76323e-09
-2.26848e-12
8.65009e-11
-1.85901e-12
2.72576e-10
-1.69452e-10
4.0102e-12
-1.28271e-10
-2.77041e-09
-1.28271e-10
-1.69934e-10
-1.60212e-09
-7.23989e-11
-3.67853e-12
-1.25558e-11
5.31603e-10
6.01421e-12
-1.16834e-10
-1.16834e-10
-4.05866e-10
-3.46719e-11
-6.05666e-12
-2.56841e-12
1.30629e-12
-2.12862e-14
-8.94035e-13
-1.13093e-11
1.98191e-13
-2.19033e-14
-1.03644e-11
-2.19033e-14
-7.63315e-12
-4.92728e-13
-9.34771e-12
1.92059e-12
2.66596e-13
-2.42101e-12
-2.21415e-11
2.10837e-12
1.19888e-12
-1.76041e-11
1.19888e-12
-9.61382e-12
-6.15534e-13
-2.13581e-11
2.46155e-12
1.82995e-12
-3.55709e-12
-5.08666e-11
8.84395e-12
5.92766e-12
-3.65737e-11
5.92766e-12
-1.27019e-11
3.56884e-13
-4.70192e-11
4.12656e-12
3.85488e-12
-3.90383e-12
-1.21747e-10
2.81516e-11
1.93025e-11
-8.29863e-11
1.93025e-11
-1.55763e-11
3.84674e-12
-1.06438e-10
3.70665e-12
1.21653e-11
1.14852e-12
-3.00524e-10
9.22645e-11
6.3219e-11
-2.07127e-10
6.3219e-11
-1.24253e-11
1.35334e-11
-2.56418e-10
2.15486e-11
2.42738e-11
2.99897e-11
-7.60308e-10
2.81356e-10
1.83808e-10
-5.14764e-10
1.83808e-10
2.53603e-11
3.12734e-11
-3.51146e-10
-1.71932e-11
3.64544e-11
4.24983e-11
-1.45465e-09
4.59318e-10
2.95538e-10
-1.02084e-09
2.95538e-10
6.33927e-11
4.52671e-11
-1.29987e-10
-9.6901e-11
1.66209e-12
-2.26848e-12
-1.76323e-09
1.91345e-10
1.24236e-10
-1.27385e-09
1.24236e-10
4.41894e-11
1.74603e-11
4.70438e-11
-6.45413e-11
3.04245e-11
-7.23989e-11
-1.60212e-09
-1.69934e-10
1.30598e-11
-1.44477e-09
1.30598e-11
-3.65522e-11
-1.83544e-11
3.20759e-10
-1.8049e-11
-3.46719e-11
-4.05866e-10
-2.48555e-10
-2.48555e-10
-5.12863e-11
-2.45032e-12
2.42419e-12
-1.08064e-12
-7.99359e-12
-4.92728e-13
-7.63315e-12
-7.53146e-12
-8.09525e-12
4.3659e-12
-2.86784e-12
-1.24268e-11
-6.15534e-13
-9.61382e-12
-7.9817e-12
-1.68425e-11
8.34148e-12
-4.62888e-12
-2.09344e-11
3.56884e-13
-1.27019e-11
-7.44133e-12
-3.13787e-11
1.47756e-11
-5.82473e-12
-3.4125e-11
3.84674e-12
-1.55763e-11
-3.69238e-12
-5.53764e-11
2.50177e-11
-5.44285e-12
-4.43336e-11
1.35334e-11
-1.24253e-11
8.53891e-12
-8.95548e-11
4.26272e-11
-2.35454e-12
6.44919e-13
3.12734e-11
2.53603e-11
3.90569e-11
-1.07772e-10
4.5899e-11
3.192e-12
7.87209e-11
4.52671e-11
6.33927e-11
7.5821e-11
-5.11312e-11
1.94015e-11
-1.85901e-12
8.65009e-11
1.74603e-11
4.41894e-11
9.15719e-11
3.56589e-11
1.56885e-11
-1.25558e-11
-3.67853e-12
-1.83544e-11
-3.65522e-11
6.70343e-11
1.08046e-10
-6.05666e-12
-5.12863e-11
)
;

boundaryField
{
    inlet
    {
        type            calculated;
        value           nonuniform 0();
    }
    outlet
    {
        type            calculated;
        value           nonuniform List<scalar> 
16
(
-5.52167e-12
-1.66047e-12
-1.15925e-12
-1.84351e-12
-1.66047e-12
1.02809e-11
8.71149e-12
6.66249e-12
-1.15925e-12
8.71149e-12
8.6201e-12
6.98632e-12
-1.84351e-12
6.66249e-12
6.98632e-12
7.14143e-12
)
;
    }
    walls
    {
        type            calculated;
        value           nonuniform List<scalar> 
160
(
8.43044e-13
2.74851e-12
5.73835e-12
1.03135e-11
1.85108e-11
3.06878e-11
3.25729e-11
-1.67251e-11
-1.1561e-11
-3.66064e-11
2.26514e-12
8.78708e-12
2.26991e-11
5.65187e-11
1.44423e-10
3.72955e-10
6.56214e-10
3.69025e-10
-3.18493e-10
-6.04654e-10
1.93094e-12
7.12253e-12
1.70042e-11
3.89271e-11
9.16376e-11
2.15036e-10
3.53155e-10
2.04057e-10
-1.05818e-10
-3.38385e-10
1.78356e-12
6.0288e-12
1.30899e-11
2.55864e-11
4.74271e-11
7.94421e-11
1.09214e-10
7.08739e-11
-3.63902e-11
-1.11763e-10
6.47999e-14
3.91339e-13
1.60694e-12
3.21315e-12
9.87245e-12
1.6777e-11
3.17407e-11
8.41695e-12
3.48686e-11
-1.40076e-11
1.59611e-13
1.31414e-12
5.13794e-12
1.57883e-11
5.25396e-11
1.49178e-10
2.70278e-10
1.34293e-10
-3.15397e-11
-2.31147e-10
3.70169e-14
9.27246e-13
4.02999e-12
1.25054e-11
4.10917e-11
1.12395e-10
2.15431e-10
1.2412e-10
9.96e-11
-1.71317e-10
-2.97711e-13
-3.90418e-13
8.66984e-14
1.97226e-12
7.41779e-12
1.60144e-11
2.6885e-11
9.58488e-12
-6.08559e-12
-3.02601e-11
8.43044e-13
2.74851e-12
5.73835e-12
1.03135e-11
1.85108e-11
3.06878e-11
3.25729e-11
-1.67251e-11
-1.1561e-11
-3.66064e-11
2.26514e-12
8.78708e-12
2.26991e-11
5.65187e-11
1.44423e-10
3.72955e-10
6.56214e-10
3.69025e-10
-3.18493e-10
-6.04654e-10
1.93094e-12
7.12253e-12
1.70042e-11
3.89271e-11
9.16376e-11
2.15036e-10
3.53155e-10
2.04057e-10
-1.05818e-10
-3.38385e-10
1.78356e-12
6.0288e-12
1.30899e-11
2.55864e-11
4.74271e-11
7.94421e-11
1.09214e-10
7.08739e-11
-3.63902e-11
-1.11763e-10
6.47999e-14
3.91339e-13
1.60694e-12
3.21315e-12
9.87245e-12
1.6777e-11
3.17407e-11
8.41695e-12
3.48686e-11
-1.40076e-11
1.59611e-13
1.31414e-12
5.13794e-12
1.57883e-11
5.25396e-11
1.49178e-10
2.70278e-10
1.34293e-10
-3.15397e-11
-2.31147e-10
3.70169e-14
9.27246e-13
4.02999e-12
1.25054e-11
4.10917e-11
1.12395e-10
2.15431e-10
1.2412e-10
9.96e-11
-1.71317e-10
-2.97711e-13
-3.90418e-13
8.66984e-14
1.97226e-12
7.41779e-12
1.60144e-11
2.6885e-11
9.58488e-12
-6.08559e-12
-3.02601e-11
)
;
    }
    procBoundary0to1
    {
        type            processor;
        value           nonuniform List<scalar> 
16
(
2.93273e-11
-7.07519e-11
-2.28526e-11
1.53633e-11
-7.07519e-11
-1.47354e-09
-9.5766e-10
-6.42947e-11
-2.28526e-11
-9.5766e-10
-1.017e-09
-6.85604e-11
1.53633e-11
-6.42947e-11
-6.85604e-11
2.4982e-11
)
;
    }
}


// ************************************************************************* //
