/*--------------------------------*- C++ -*----------------------------------*\
| =========                 |                                                 |
| \\      /  F ield         | OpenFOAM: The Open Source CFD Toolbox           |
|  \\    /   O peration     | Version:  5.x                                   |
|   \\  /    A nd           | Web:      www.OpenFOAM.org                      |
|    \\/     M anipulation  |                                                 |
\*---------------------------------------------------------------------------*/
FoamFile
{
    version     2.0;
    format      ascii;
    class       volVectorField;
    location    "0.08";
    object      U;
}
// * * * * * * * * * * * * * * * * * * * * * * * * * * * * * * * * * * * * * //

dimensions      [0 1 -1 0 0 0 0];

internalField   nonuniform List<vector> 
160
(
(-1.41845e-07 8.84905e-07 -1.41845e-07)
(-1.7336e-07 2.67123e-07 -3.84209e-07)
(-1.59844e-08 1.87851e-07 -3.26229e-07)
(9.81575e-09 2.96647e-07 -3.01941e-07)
(-4.60595e-07 1.06446e-06 -4.60595e-07)
(-5.26603e-07 2.1951e-07 -1.49504e-06)
(1.63516e-08 2.09398e-07 -1.2058e-06)
(6.02777e-08 4.9973e-07 -1.02105e-06)
(-9.61001e-07 1.59769e-06 -9.61001e-07)
(-1.0197e-06 3.39374e-07 -3.85607e-06)
(2.41613e-07 4.69495e-07 -2.87158e-06)
(2.58746e-07 9.59595e-07 -2.21172e-06)
(-1.70515e-06 1.9579e-06 -1.70515e-06)
(-1.67718e-06 -6.38323e-08 -9.57729e-06)
(6.35885e-07 2.27339e-07 -6.55264e-06)
(5.11404e-07 1.58988e-06 -4.30819e-06)
(-2.95801e-06 2.97412e-06 -2.95801e-06)
(-2.77888e-06 -3.62841e-07 -2.43806e-05)
(1.91191e-06 7.16196e-07 -1.53646e-05)
(1.56478e-06 3.00798e-06 -7.95409e-06)
(-5.05264e-06 3.55148e-06 -5.05264e-06)
(-4.03263e-06 1.2085e-06 -6.41001e-05)
(4.10364e-06 1.1725e-06 -3.66713e-05)
(2.78068e-06 4.9639e-06 -1.33571e-05)
(-4.9604e-06 3.97409e-06 -4.9604e-06)
(-5.08145e-06 2.16942e-06 -0.000106321)
(5.50045e-06 4.09034e-06 -5.69725e-05)
(5.12576e-06 7.45675e-06 -1.77874e-05)
(3.25611e-06 2.51494e-07 3.25611e-06)
(6.83712e-07 -2.50321e-05 -5.45787e-05)
(-7.96361e-07 -1.11034e-05 -3.0661e-05)
(1.33343e-06 5.30205e-06 -1.10339e-05)
(1.91372e-06 1.66091e-07 1.91372e-06)
(-1.19658e-06 -3.97992e-05 5.28715e-05)
(2.75558e-06 -1.6704e-05 1.79458e-05)
(5.63837e-06 2.12759e-06 6.16874e-06)
(5.90386e-06 4.86603e-06 5.90386e-06)
(5.07575e-06 -2.22907e-05 9.72988e-05)
(-3.53479e-06 -7.92693e-06 5.44459e-05)
(-2.28703e-06 2.00077e-06 1.81695e-05)
(-3.84209e-07 2.67123e-07 -1.7336e-07)
(-3.60798e-07 -1.66742e-06 -3.60798e-07)
(5.11199e-08 -1.40595e-06 -3.46303e-07)
(2.56665e-08 -1.07114e-06 -3.37355e-07)
(-1.49504e-06 2.1951e-07 -5.26603e-07)
(-1.28071e-06 -3.38415e-06 -1.28071e-06)
(4.47869e-07 -2.45651e-06 -1.19356e-06)
(2.17588e-07 -1.49102e-06 -1.05845e-06)
(-3.85607e-06 3.39374e-07 -1.0197e-06)
(-2.94283e-06 -7.97515e-06 -2.94283e-06)
(1.80956e-06 -5.05941e-06 -2.58367e-06)
(8.57087e-07 -2.40954e-06 -2.09235e-06)
(-9.57729e-06 -6.38323e-08 -1.67718e-06)
(-6.549e-06 -2.1147e-05 -6.549e-06)
(5.81161e-06 -1.26525e-05 -5.36861e-06)
(2.63301e-06 -4.27062e-06 -3.65374e-06)
(-2.43806e-05 -3.62841e-07 -2.77888e-06)
(-1.51697e-05 -5.62802e-05 -1.51697e-05)
(1.82671e-05 -3.02515e-05 -1.15009e-05)
(8.72775e-06 -6.16772e-06 -6.03142e-06)
(-6.41001e-05 1.2085e-06 -4.03263e-06)
(-3.5617e-05 -9.36513e-05 -3.5617e-05)
(5.51291e-05 -4.70647e-05 -2.59443e-05)
(2.5583e-05 -5.20975e-06 -9.07535e-06)
(-0.000106321 2.16942e-06 -5.08145e-06)
(-5.70045e-05 -0.000419411 -5.70045e-05)
(9.53475e-05 -0.000198361 -4.1464e-05)
(4.34458e-05 5.00182e-06 -1.11749e-05)
(-5.45787e-05 -2.50321e-05 6.83712e-07)
(-3.28444e-05 -0.000569347 -3.28444e-05)
(4.42112e-05 -0.00029024 -2.4917e-05)
(1.97918e-05 1.43265e-05 -6.53556e-06)
(5.28715e-05 -3.97992e-05 -1.19658e-06)
(1.4218e-05 -0.000477696 1.4218e-05)
(-4.39226e-05 -0.000249487 -8.20355e-06)
(-5.65494e-06 1.06423e-05 2.24841e-06)
(9.72988e-05 -2.22907e-05 5.07575e-06)
(5.34541e-05 -0.000343954 5.34541e-05)
(-8.42898e-05 -0.000232165 3.76414e-05)
(-3.70458e-05 -1.18792e-05 1.13014e-05)
(-3.26229e-07 1.87851e-07 -1.59844e-08)
(-3.46303e-07 -1.40595e-06 5.11199e-08)
(-8.77709e-09 -1.38652e-06 -8.77709e-09)
(5.1818e-09 -1.11882e-06 -8.11093e-08)
(-1.2058e-06 2.09398e-07 1.63516e-08)
(-1.19356e-06 -2.45651e-06 4.47869e-07)
(1.92033e-07 -2.11552e-06 1.92033e-07)
(1.52424e-07 -1.30809e-06 -8.67871e-08)
(-2.87158e-06 4.69495e-07 2.41613e-07)
(-2.58367e-06 -5.05941e-06 1.80956e-06)
(1.01299e-06 -3.80484e-06 1.01299e-06)
(6.69438e-07 -1.66307e-06 1.62863e-07)
(-6.55264e-06 2.27339e-07 6.35885e-07)
(-5.36861e-06 -1.26525e-05 5.81161e-06)
(3.42214e-06 -8.9344e-06 3.42214e-06)
(2.07764e-06 -2.37673e-06 1.05558e-06)
(-1.53646e-05 7.16196e-07 1.91191e-06)
(-1.15009e-05 -3.02515e-05 1.82671e-05)
(1.09877e-05 -2.03276e-05 1.09877e-05)
(6.81308e-06 -2.40295e-06 3.28117e-06)
(-3.66713e-05 1.1725e-06 4.10364e-06)
(-2.59443e-05 -4.70647e-05 5.51291e-05)
(3.07618e-05 -3.30358e-05 3.07618e-05)
(1.9205e-05 -2.59982e-07 7.25176e-06)
(-5.69725e-05 4.09034e-06 5.50045e-06)
(-4.1464e-05 -0.000198361 9.53475e-05)
(5.19989e-05 -0.000134469 5.19989e-05)
(3.466e-05 6.94654e-06 1.13696e-05)
(-3.0661e-05 -1.11034e-05 -7.96361e-07)
(-2.4917e-05 -0.00029024 4.42112e-05)
(2.65482e-05 -0.000210315 2.65482e-05)
(1.87886e-05 8.8763e-06 6.18419e-06)
(1.79458e-05 -1.6704e-05 2.75558e-06)
(-8.20355e-06 -0.000249487 -4.39226e-05)
(-9.54388e-06 -0.000179092 -9.54388e-06)
(1.54745e-05 4.54289e-06 -4.72222e-06)
(5.44459e-05 -7.92693e-06 -3.53479e-06)
(3.76414e-05 -0.000232165 -8.42898e-05)
(-4.65164e-05 -0.000255226 -4.65164e-05)
(-2.74985e-05 -1.83205e-05 -1.22123e-05)
(-3.01941e-07 2.96647e-07 9.81575e-09)
(-3.37355e-07 -1.07114e-06 2.56665e-08)
(-8.11093e-08 -1.11882e-06 5.1818e-09)
(-5.04088e-08 -1.14012e-06 -5.04088e-08)
(-1.02105e-06 4.9973e-07 6.02777e-08)
(-1.05845e-06 -1.49102e-06 2.17588e-07)
(-8.67871e-08 -1.30809e-06 1.52424e-07)
(-6.72747e-08 -1.15017e-06 -6.72747e-08)
(-2.21172e-06 9.59595e-07 2.58746e-07)
(-2.09235e-06 -2.40954e-06 8.57087e-07)
(1.62863e-07 -1.66307e-06 6.69438e-07)
(7.76374e-09 -1.16342e-06 7.76374e-09)
(-4.30819e-06 1.58988e-06 5.11404e-07)
(-3.65374e-06 -4.27062e-06 2.63301e-06)
(1.05558e-06 -2.37673e-06 2.07764e-06)
(3.18045e-07 -1.03535e-06 3.18045e-07)
(-7.95409e-06 3.00798e-06 1.56478e-06)
(-6.03142e-06 -6.16772e-06 8.72775e-06)
(3.28117e-06 -2.40295e-06 6.81308e-06)
(1.20119e-06 1.02564e-07 1.20119e-06)
(-1.33571e-05 4.9639e-06 2.78068e-06)
(-9.07535e-06 -5.20975e-06 2.5583e-05)
(7.25176e-06 -2.59982e-07 1.9205e-05)
(2.68816e-06 3.03415e-06 2.68816e-06)
(-1.77874e-05 7.45675e-06 5.12576e-06)
(-1.11749e-05 5.00182e-06 4.34458e-05)
(1.13696e-05 6.94654e-06 3.466e-05)
(4.27303e-06 8.58855e-06 4.27303e-06)
(-1.10339e-05 5.30205e-06 1.33343e-06)
(-6.53556e-06 1.43265e-05 1.97918e-05)
(6.18419e-06 8.8763e-06 1.87886e-05)
(1.22393e-06 1.34912e-05 1.22393e-06)
(6.16874e-06 2.12759e-06 5.63837e-06)
(2.24841e-06 1.06423e-05 -5.65494e-06)
(-4.72222e-06 4.54289e-06 1.54745e-05)
(-1.02973e-06 1.3764e-05 -1.02973e-06)
(1.81695e-05 2.00077e-06 -2.28703e-06)
(1.13014e-05 -1.18792e-05 -3.70458e-05)
(-1.22123e-05 -1.83205e-05 -2.74985e-05)
(-4.84841e-06 6.00256e-06 -4.84841e-06)
)
;

boundaryField
{
    inlet
    {
        type            fixedValue;
        value           nonuniform 0();
    }
    outlet
    {
        type            zeroGradient;
    }
    walls
    {
        type            fixedValue;
        value           uniform (0 0 0);
    }
    procBoundary0to1
    {
        type            processor;
        value           nonuniform List<vector> 
16
(
(6.5599e-06 3.79294e-06 6.5599e-06)
(8.59235e-06 -3.16837e-06 6.84392e-05)
(-6.19828e-06 -6.19576e-07 4.71096e-05)
(-7.60507e-06 2.23896e-06 1.52242e-05)
(6.84392e-05 -3.16837e-06 8.59235e-06)
(5.00085e-05 -0.000115211 5.00085e-05)
(-6.07841e-05 -6.83132e-05 5.30851e-05)
(-3.88804e-05 -1.08778e-05 1.17345e-05)
(4.71096e-05 -6.19576e-07 -6.19828e-06)
(5.30851e-05 -6.83132e-05 -6.07841e-05)
(-4.451e-05 -5.7507e-05 -4.451e-05)
(-4.72141e-05 -6.2188e-06 -9.38353e-06)
(1.52242e-05 2.23896e-06 -7.60507e-06)
(1.17345e-05 -1.08778e-05 -3.88804e-05)
(-9.38353e-06 -6.2188e-06 -4.72141e-05)
(-5.21733e-06 1.28602e-06 -5.21733e-06)
)
;
    }
}


// ************************************************************************* //
