/*--------------------------------*- C++ -*----------------------------------*\
| =========                 |                                                 |
| \\      /  F ield         | OpenFOAM: The Open Source CFD Toolbox           |
|  \\    /   O peration     | Version:  5.x                                   |
|   \\  /    A nd           | Web:      www.OpenFOAM.org                      |
|    \\/     M anipulation  |                                                 |
\*---------------------------------------------------------------------------*/
FoamFile
{
    version     2.0;
    format      ascii;
    class       volScalarField;
    location    "0.08";
    object      p;
}
// * * * * * * * * * * * * * * * * * * * * * * * * * * * * * * * * * * * * * //

dimensions      [0 2 -2 0 0 0 0];

internalField   nonuniform List<scalar> 
320
(
-1.49404e-07
-1.14223e-07
-1.09232e-07
-1.0644e-07
-4.5548e-07
-3.49977e-07
-3.39668e-07
-3.27836e-07
-7.79029e-07
-5.61961e-07
-5.61129e-07
-5.69413e-07
-1.10264e-06
-8.24203e-07
-8.55593e-07
-8.41922e-07
-1.39501e-06
-1.41387e-06
-1.2074e-06
-1.13242e-06
-1.23087e-06
-5.08727e-07
-8.01571e-07
-1.28951e-06
-9.07023e-07
-2.17983e-06
-1.6511e-06
-1.8904e-06
-3.41777e-07
-3.27981e-06
-2.58131e-06
-2.51406e-06
-1.40191e-06
-1.72584e-06
-1.89357e-06
-2.19433e-06
-2.4688e-06
-2.70599e-06
-2.77355e-06
-2.54151e-06
-2.80377e-06
-2.97615e-06
-3.03333e-06
-2.81074e-06
-2.82268e-06
-2.84069e-06
-2.89766e-06
-2.87101e-06
-2.98839e-06
-2.99323e-06
-3.05409e-06
-2.96409e-06
-3.00286e-06
-3.00701e-06
-3.0268e-06
-3.02178e-06
-3.05955e-06
-3.07396e-06
-3.09482e-06
-3.07197e-06
-3.07275e-06
-3.08086e-06
-3.08416e-06
-3.09149e-06
-3.09693e-06
-3.10798e-06
-3.11744e-06
-3.11557e-06
-3.10554e-06
-3.11347e-06
-3.11827e-06
-3.12312e-06
-3.11514e-06
-3.12237e-06
-3.12678e-06
-3.13074e-06
-3.11911e-06
-3.12491e-06
-3.12831e-06
-3.13304e-06
-1.14223e-07
-4.24635e-09
-2.20043e-08
-2.2654e-08
-3.49977e-07
1.00566e-07
-4.97508e-09
-4.20159e-08
-5.61961e-07
5.71669e-07
2.01846e-07
2.48056e-08
-8.24203e-07
1.87719e-06
7.84113e-07
2.43678e-07
-1.41387e-06
5.0218e-06
2.34492e-06
7.19796e-07
-5.08727e-07
2.18804e-05
1.06542e-05
1.98369e-06
-2.17983e-06
4.52795e-06
7.13912e-07
-3.0426e-07
-3.27981e-06
-2.58612e-05
-1.26348e-05
-4.06316e-06
-1.72584e-06
-1.13961e-05
-7.02509e-06
-3.94803e-06
-2.70599e-06
-5.50815e-06
-4.31228e-06
-3.99733e-06
-2.97615e-06
-4.9395e-06
-4.06209e-06
-3.90886e-06
-2.84069e-06
-4.16864e-06
-3.62831e-06
-3.63159e-06
-2.99323e-06
-3.68106e-06
-3.45503e-06
-3.45864e-06
-3.00701e-06
-3.34117e-06
-3.26031e-06
-3.3192e-06
-3.07396e-06
-3.26374e-06
-3.23373e-06
-3.25748e-06
-3.08086e-06
-3.17259e-06
-3.16672e-06
-3.20173e-06
-3.10798e-06
-3.16063e-06
-3.16438e-06
-3.1814e-06
-3.11347e-06
-3.14105e-06
-3.14659e-06
-3.16161e-06
-3.12237e-06
-3.13965e-06
-3.14546e-06
-3.15475e-06
-3.12491e-06
-3.13503e-06
-3.13978e-06
-3.1473e-06
-1.09232e-07
-2.20043e-08
-2.48624e-08
-2.11223e-08
-3.39668e-07
-4.97508e-09
-3.77499e-08
-5.83e-08
-5.61129e-07
2.01846e-07
6.89681e-08
-5.56095e-08
-8.55593e-07
7.84113e-07
3.76689e-07
-1.15229e-08
-1.2074e-06
2.34492e-06
1.29526e-06
8.98977e-08
-8.01571e-07
1.06542e-05
6.77442e-06
5.95877e-07
-1.6511e-06
7.13912e-07
-7.20286e-08
-1.03806e-06
-2.58131e-06
-1.26348e-05
-9.00408e-06
-3.59044e-06
-1.89357e-06
-7.02509e-06
-5.46178e-06
-3.12859e-06
-2.77355e-06
-4.31228e-06
-3.81054e-06
-3.36724e-06
-3.03333e-06
-4.06209e-06
-3.9393e-06
-3.59896e-06
-2.89766e-06
-3.62831e-06
-3.48984e-06
-3.43484e-06
-3.05409e-06
-3.45503e-06
-3.45089e-06
-3.34401e-06
-3.0268e-06
-3.26031e-06
-3.24705e-06
-3.27948e-06
-3.09482e-06
-3.23373e-06
-3.24327e-06
-3.2475e-06
-3.08416e-06
-3.16672e-06
-3.1774e-06
-3.20702e-06
-3.11744e-06
-3.16438e-06
-3.1751e-06
-3.19072e-06
-3.11827e-06
-3.14659e-06
-3.15556e-06
-3.17162e-06
-3.12678e-06
-3.14546e-06
-3.15297e-06
-3.16362e-06
-3.12831e-06
-3.13978e-06
-3.14556e-06
-3.15415e-06
-1.0644e-07
-2.2654e-08
-2.11223e-08
-7.09182e-09
-3.27836e-07
-4.20159e-08
-5.83e-08
-3.39529e-08
-5.69413e-07
2.48056e-08
-5.56095e-08
-2.46785e-08
-8.41922e-07
2.43678e-07
-1.15229e-08
-2.40948e-08
-1.13242e-06
7.19796e-07
8.98977e-08
1.72616e-08
-1.28951e-06
1.98369e-06
5.95877e-07
-4.15271e-08
-1.8904e-06
-3.0426e-07
-1.03806e-06
-8.93366e-07
-2.51406e-06
-4.06316e-06
-3.59044e-06
-2.02236e-06
-2.19433e-06
-3.94803e-06
-3.12859e-06
-2.84482e-06
-2.54151e-06
-3.99733e-06
-3.36724e-06
-3.33282e-06
-2.81074e-06
-3.90886e-06
-3.59896e-06
-3.55902e-06
-2.87101e-06
-3.63159e-06
-3.43484e-06
-3.57641e-06
-2.96409e-06
-3.45864e-06
-3.34401e-06
-3.51218e-06
-3.02178e-06
-3.3192e-06
-3.27948e-06
-3.41439e-06
-3.07197e-06
-3.25748e-06
-3.2475e-06
-3.33896e-06
-3.09149e-06
-3.20173e-06
-3.20702e-06
-3.27118e-06
-3.11557e-06
-3.1814e-06
-3.19072e-06
-3.23171e-06
-3.12312e-06
-3.16161e-06
-3.17162e-06
-3.19911e-06
-3.13074e-06
-3.15475e-06
-3.16362e-06
-3.18162e-06
-3.13304e-06
-3.1473e-06
-3.15415e-06
-3.1662e-06
)
;

boundaryField
{
    inlet
    {
        type            zeroGradient;
    }
    outlet
    {
        type            totalPressure;
        rho             rho;
        psi             none;
        gamma           1;
        p0              uniform 0;
        value           nonuniform List<scalar> 
16
(
-4.11477e-13
-1.24462e-13
-7.09491e-14
-8.95763e-14
-1.24462e-13
0
0
0
-7.09491e-14
0
0
0
-8.95763e-14
0
0
0
)
;
    }
    walls
    {
        type            zeroGradient;
    }
}


// ************************************************************************* //
