/*--------------------------------*- C++ -*----------------------------------*\
| =========                 |                                                 |
| \\      /  F ield         | OpenFOAM: The Open Source CFD Toolbox           |
|  \\    /   O peration     | Version:  5.x                                   |
|   \\  /    A nd           | Web:      www.OpenFOAM.org                      |
|    \\/     M anipulation  |                                                 |
\*---------------------------------------------------------------------------*/
FoamFile
{
    version     2.0;
    format      ascii;
    class       surfaceScalarField;
    location    "0.08";
    object      phi;
}
// * * * * * * * * * * * * * * * * * * * * * * * * * * * * * * * * * * * * * //

dimensions      [0 3 -1 0 0 0 0];

internalField   nonuniform List<scalar> 
784
(
-1.17855e-12
6.19267e-12
-1.17855e-12
-5.11716e-13
1.63866e-12
-2.91016e-12
-2.12862e-14
1.30629e-12
-2.56841e-12
2.42419e-12
-2.45032e-12
-3.73696e-12
8.1696e-12
-3.73696e-12
-1.34429e-12
1.55123e-12
-1.10923e-11
2.66596e-13
1.92059e-12
-9.34771e-12
4.3659e-12
-8.09525e-12
-7.55426e-12
1.18014e-11
-7.55426e-12
-1.98301e-12
7.22023e-13
-2.74412e-11
1.82995e-12
2.46155e-12
-2.13581e-11
8.34148e-12
-1.68425e-11
-1.26671e-11
1.65086e-11
-1.26671e-11
-2.57218e-12
-2.0707e-13
-6.56846e-11
3.85488e-12
4.12656e-12
-4.70192e-11
1.47756e-11
-3.13787e-11
-2.00122e-11
1.95115e-11
-2.00122e-11
-3.05467e-12
1.39802e-13
-1.61728e-10
1.21653e-11
3.70665e-12
-1.06438e-10
2.50177e-11
-5.53764e-11
-3.44738e-11
2.70836e-11
-3.44738e-11
7.34168e-13
1.76102e-11
-4.25633e-10
2.42738e-11
2.15486e-11
-2.56418e-10
4.26272e-11
-8.95548e-11
-2.43621e-11
1.0662e-11
-2.43621e-11
-2.784e-13
-5.79627e-11
-6.04725e-10
3.64544e-11
-1.71932e-11
-3.51146e-10
4.5899e-11
-1.07772e-10
2.09041e-11
2.30393e-12
2.09041e-11
-3.97593e-12
-2.14351e-10
-1.87756e-10
1.66209e-12
-9.6901e-11
-1.29987e-10
1.94015e-11
-5.11312e-11
2.99218e-12
1.94415e-11
2.99218e-12
4.0102e-12
-1.69452e-10
2.72576e-10
3.04245e-11
-6.45413e-11
4.70438e-11
1.56885e-11
3.56589e-11
3.16635e-11
2.93273e-11
3.16635e-11
6.01421e-12
-7.07519e-11
5.31603e-10
-1.8049e-11
-2.28526e-11
3.20759e-10
1.53633e-11
1.08046e-10
4.71713e-11
1.65579e-11
4.71713e-11
8.78622e-12
-2.06262e-11
4.13578e-10
-4.72286e-11
-1.69031e-11
3.43229e-10
1.23135e-11
9.68741e-11
1.49561e-11
1.35745e-11
1.49561e-11
4.98401e-12
-7.83377e-12
1.39179e-10
-1.1009e-11
-1.10396e-11
1.04018e-10
1.00257e-11
5.06477e-11
1.35011e-11
7.7547e-12
1.35011e-11
3.94755e-12
-4.82518e-13
8.61011e-11
-1.39646e-11
-3.75751e-12
7.00275e-11
7.2065e-12
3.77392e-11
4.64693e-12
5.57129e-12
4.64693e-12
2.15048e-12
9.06972e-14
3.13596e-11
-3.46198e-12
-2.13865e-12
2.58118e-11
5.2045e-12
1.90939e-11
4.30035e-12
3.30999e-12
4.30035e-12
1.45031e-12
1.1281e-12
1.73171e-11
-3.50536e-12
-4.17344e-15
1.53171e-11
3.18023e-12
1.27398e-11
1.7317e-12
2.20571e-12
1.7317e-12
9.47787e-13
7.34321e-13
7.70028e-12
-5.56957e-13
-8.43649e-14
7.31795e-12
2.0146e-12
6.77984e-12
1.47358e-12
1.35166e-12
1.47358e-12
7.50142e-13
6.84832e-13
3.92056e-12
-5.88878e-13
3.05837e-13
3.92251e-12
1.10311e-12
4.1412e-12
7.34781e-13
8.33401e-13
7.34781e-13
5.43485e-13
3.70334e-13
2.09447e-12
1.08246e-13
1.24388e-13
2.24594e-12
5.91052e-13
2.32652e-12
5.92644e-13
4.36572e-13
5.92644e-13
4.34781e-13
2.05351e-13
1.12631e-12
7.95055e-14
9.37527e-14
1.25054e-12
2.57908e-13
1.41895e-12
3.38136e-13
3.38136e-13
3.23607e-13
6.46513e-13
2.20482e-13
7.45574e-13
7.94437e-13
-2.91016e-12
1.63866e-12
-5.11716e-13
-7.2527e-13
-1.46507e-11
-7.2527e-13
1.98191e-13
-1.13093e-11
-8.94035e-13
-7.99359e-12
-1.08064e-12
-1.10923e-11
1.55123e-12
-1.34429e-12
-1.79707e-12
-3.32412e-11
-1.79707e-12
2.10837e-12
-2.21415e-11
-2.42101e-12
-1.24268e-11
-2.86784e-12
-2.74412e-11
7.22023e-13
-1.98301e-12
-2.08014e-12
-8.39633e-11
-2.08014e-12
8.84395e-12
-5.08666e-11
-3.55709e-12
-2.09344e-11
-4.62888e-12
-6.56846e-11
-2.0707e-13
-2.57218e-12
3.86761e-13
-2.16106e-10
3.86761e-13
2.81516e-11
-1.21747e-10
-3.90383e-12
-3.4125e-11
-5.82473e-12
-1.61728e-10
1.39802e-13
-3.05467e-12
2.10735e-11
-5.81709e-10
2.10735e-11
9.22645e-11
-3.00524e-10
1.14852e-12
-4.43336e-11
-5.44285e-12
-4.25633e-10
1.76102e-11
7.34168e-13
1.0798e-10
-1.64894e-09
1.0798e-10
2.81356e-10
-7.60308e-10
2.99897e-11
6.44919e-13
-2.35454e-12
-6.04725e-10
-5.79627e-11
-2.784e-13
1.58619e-10
-3.17562e-09
1.58619e-10
4.59318e-10
-1.45465e-09
4.24983e-11
7.87209e-11
3.192e-12
-1.87756e-10
-2.14351e-10
-3.97593e-12
1.04858e-11
-3.57211e-09
1.04858e-11
1.91345e-10
-1.76323e-09
-2.26848e-12
8.65009e-11
-1.85901e-12
2.72576e-10
-1.69452e-10
4.0102e-12
-1.28271e-10
-2.77041e-09
-1.28271e-10
-1.69934e-10
-1.60212e-09
-7.23989e-11
-3.67853e-12
-1.25558e-11
5.31603e-10
-7.07519e-11
6.01421e-12
-1.16834e-10
-1.47354e-09
-1.16834e-10
-4.05866e-10
-9.5766e-10
-3.46719e-11
-6.42947e-11
-6.05666e-12
4.13578e-10
-2.06262e-11
8.78622e-12
-4.38862e-11
-5.58611e-10
-4.38862e-11
-3.30758e-10
-3.51686e-10
2.41266e-11
-6.0485e-11
5.1191e-12
1.39179e-10
-7.83377e-12
4.98401e-12
-5.32868e-12
-2.69596e-10
-5.32868e-12
-7.74365e-11
-1.8452e-10
8.95868e-12
-3.93091e-11
9.09145e-12
8.61011e-11
-4.82518e-13
3.94755e-12
2.2715e-12
-1.01937e-10
2.2715e-12
-5.12961e-11
-7.01085e-11
9.18405e-12
-2.29064e-11
8.63166e-12
3.13596e-11
9.06972e-14
2.15048e-12
3.98763e-12
-4.71931e-11
3.98763e-12
-1.08646e-11
-3.51642e-11
5.71982e-12
-1.31335e-11
7.44705e-12
1.73171e-11
1.1281e-12
1.45031e-12
3.07499e-12
-1.87089e-11
3.07499e-12
-6.29011e-12
-1.47036e-11
4.22161e-12
-6.88393e-12
5.6636e-12
7.70028e-12
7.34321e-13
9.47787e-13
2.41546e-12
-8.13932e-12
2.41546e-12
-9.62567e-13
-6.99964e-12
2.99198e-12
-3.75798e-12
3.89742e-12
3.92056e-12
6.84832e-13
7.50142e-13
1.53185e-12
-3.36191e-12
1.53185e-12
-2.77431e-13
-3.20142e-12
1.93357e-12
-1.96402e-12
2.64015e-12
2.09447e-12
3.70334e-13
5.43485e-13
1.11696e-12
-1.40688e-12
1.11696e-12
2.81993e-13
-1.49787e-12
1.37736e-12
-1.07191e-12
1.70875e-12
1.12631e-12
2.05351e-13
4.34781e-13
7.24055e-13
-6.02372e-13
7.24055e-13
2.99034e-13
-7.19036e-13
8.96724e-13
-5.73403e-13
1.14046e-12
6.46513e-13
3.23607e-13
5.12802e-13
5.12802e-13
3.19256e-13
6.17609e-13
7.16717e-13
-2.56841e-12
1.30629e-12
-2.12862e-14
-8.94035e-13
-1.13093e-11
1.98191e-13
-2.19033e-14
-1.03644e-11
-2.19033e-14
-7.63315e-12
-4.92728e-13
-9.34771e-12
1.92059e-12
2.66596e-13
-2.42101e-12
-2.21415e-11
2.10837e-12
1.19888e-12
-1.76041e-11
1.19888e-12
-9.61382e-12
-6.15534e-13
-2.13581e-11
2.46155e-12
1.82995e-12
-3.55709e-12
-5.08666e-11
8.84395e-12
5.92766e-12
-3.65737e-11
5.92766e-12
-1.27019e-11
3.56884e-13
-4.70192e-11
4.12656e-12
3.85488e-12
-3.90383e-12
-1.21747e-10
2.81516e-11
1.93025e-11
-8.29863e-11
1.93025e-11
-1.55763e-11
3.84674e-12
-1.06438e-10
3.70665e-12
1.21653e-11
1.14852e-12
-3.00524e-10
9.22645e-11
6.3219e-11
-2.07127e-10
6.3219e-11
-1.24253e-11
1.35334e-11
-2.56418e-10
2.15486e-11
2.42738e-11
2.99897e-11
-7.60308e-10
2.81356e-10
1.83808e-10
-5.14764e-10
1.83808e-10
2.53603e-11
3.12734e-11
-3.51146e-10
-1.71932e-11
3.64544e-11
4.24983e-11
-1.45465e-09
4.59318e-10
2.95538e-10
-1.02084e-09
2.95538e-10
6.33927e-11
4.52671e-11
-1.29987e-10
-9.6901e-11
1.66209e-12
-2.26848e-12
-1.76323e-09
1.91345e-10
1.24236e-10
-1.27385e-09
1.24236e-10
4.41894e-11
1.74603e-11
4.70438e-11
-6.45413e-11
3.04245e-11
-7.23989e-11
-1.60212e-09
-1.69934e-10
1.30598e-11
-1.44477e-09
1.30598e-11
-3.65522e-11
-1.83544e-11
3.20759e-10
-2.28526e-11
-1.8049e-11
-3.46719e-11
-9.5766e-10
-4.05866e-10
-2.48555e-10
-1.017e-09
-2.48555e-10
-6.85604e-11
-5.12863e-11
3.43229e-10
-1.69031e-11
-4.72286e-11
2.41266e-11
-3.51686e-10
-3.30758e-10
-3.10937e-10
-3.46877e-10
-3.10937e-10
-3.62109e-11
-4.35003e-11
1.04018e-10
-1.10396e-11
-1.1009e-11
8.95868e-12
-1.8452e-10
-7.74365e-11
-6.82536e-11
-1.92452e-10
-6.82536e-11
-2.38947e-11
-7.7987e-12
7.00275e-11
-3.75751e-12
-1.39646e-11
9.18405e-12
-7.01085e-11
-5.12961e-11
-5.18607e-11
-7.03626e-11
-5.18607e-11
-1.35338e-11
-4.48975e-12
2.58118e-11
-2.13865e-12
-3.46198e-12
5.71982e-12
-3.51642e-11
-1.08646e-11
-1.10942e-11
-3.67345e-11
-1.10942e-11
-9.03818e-12
3.23807e-12
1.53171e-11
-4.17346e-15
-3.50536e-12
4.22161e-12
-1.47036e-11
-6.29011e-12
-6.47785e-12
-1.53356e-11
-6.47785e-12
-5.42188e-12
2.30659e-12
7.31795e-12
-8.43649e-14
-5.56957e-13
2.99198e-12
-6.99964e-12
-9.62567e-13
-8.25692e-13
-7.70024e-12
-8.25692e-13
-3.52959e-12
2.67213e-12
3.92251e-12
3.05837e-13
-5.88878e-13
1.93357e-12
-3.20142e-12
-2.77431e-13
-6.69171e-14
-3.69925e-12
-6.69171e-14
-2.17473e-12
1.74588e-12
2.24594e-12
1.24388e-13
1.08246e-13
1.37736e-12
-1.49787e-12
2.81993e-13
4.52354e-13
-1.84923e-12
4.52354e-13
-1.36419e-12
1.27986e-12
1.25054e-12
9.37527e-14
7.95056e-14
8.96724e-13
-7.19036e-13
2.99034e-13
4.42952e-13
-9.41691e-13
4.42952e-13
-7.99532e-13
8.54338e-13
7.45574e-13
2.20482e-13
6.17609e-13
3.19256e-13
3.9846e-13
3.9846e-13
5.71532e-13
-2.45032e-12
2.42419e-12
-1.08064e-12
-7.99359e-12
-4.92728e-13
-7.63315e-12
-7.53146e-12
-8.09525e-12
4.3659e-12
-2.86784e-12
-1.24268e-11
-6.15534e-13
-9.61382e-12
-7.9817e-12
-1.68425e-11
8.34148e-12
-4.62888e-12
-2.09344e-11
3.56884e-13
-1.27019e-11
-7.44133e-12
-3.13787e-11
1.47756e-11
-5.82473e-12
-3.4125e-11
3.84674e-12
-1.55763e-11
-3.69238e-12
-5.53764e-11
2.50177e-11
-5.44285e-12
-4.43336e-11
1.35334e-11
-1.24253e-11
8.53891e-12
-8.95548e-11
4.26272e-11
-2.35454e-12
6.44919e-13
3.12734e-11
2.53603e-11
3.90569e-11
-1.07772e-10
4.5899e-11
3.192e-12
7.87209e-11
4.52671e-11
6.33927e-11
7.5821e-11
-5.11312e-11
1.94015e-11
-1.85901e-12
8.65009e-11
1.74603e-11
4.41894e-11
9.15719e-11
3.56589e-11
1.56885e-11
-1.25558e-11
-3.67853e-12
-1.83544e-11
-3.65522e-11
6.70343e-11
1.08046e-10
1.53633e-11
-6.05666e-12
-6.42947e-11
-5.12863e-11
-6.85604e-11
2.4982e-11
9.68741e-11
1.23135e-11
5.1191e-12
-6.0485e-11
-4.35003e-11
-3.62109e-11
3.09943e-12
5.06477e-11
1.00257e-11
9.09145e-12
-3.93091e-11
-7.7987e-12
-2.38947e-11
-4.78105e-12
3.77392e-11
7.2065e-12
8.63166e-12
-2.29064e-11
-4.48975e-12
-1.35338e-11
-8.16173e-12
1.90939e-11
5.2045e-12
7.44705e-12
-1.31335e-11
3.23807e-12
-9.03818e-12
-7.62554e-12
1.27398e-11
3.18023e-12
5.6636e-12
-6.88393e-12
2.30659e-12
-5.42188e-12
-6.14752e-12
6.77984e-12
2.0146e-12
3.89742e-12
-3.75798e-12
2.67213e-12
-3.52959e-12
-4.36739e-12
4.1412e-12
1.10311e-12
2.64015e-12
-1.96402e-12
1.74588e-12
-2.17473e-12
-2.90613e-12
2.32652e-12
5.91052e-13
1.70875e-12
-1.07191e-12
1.27986e-12
-1.36419e-12
-1.8449e-12
1.41895e-12
2.57908e-13
1.14046e-12
-5.73403e-13
8.54338e-13
-7.99532e-13
-1.08058e-12
7.94437e-13
7.16717e-13
5.71532e-13
)
;

boundaryField
{
    inlet
    {
        type            calculated;
        value           nonuniform List<scalar> 
16
(
1.69291e-13
5.48434e-15
-5.7593e-14
8.71483e-14
5.48435e-15
-3.34953e-13
-3.97529e-13
-3.24237e-13
-5.7593e-14
-3.97529e-13
-5.03399e-13
-4.51551e-13
8.71484e-14
-3.24237e-13
-4.51551e-13
-5.75973e-13
)
;
    }
    outlet
    {
        type            calculated;
        value           nonuniform List<scalar> 
16
(
-5.52167e-12
-1.66047e-12
-1.15925e-12
-1.84351e-12
-1.66047e-12
1.02809e-11
8.71149e-12
6.66249e-12
-1.15925e-12
8.71149e-12
8.6201e-12
6.98632e-12
-1.84351e-12
6.66249e-12
6.98632e-12
7.14143e-12
)
;
    }
    walls
    {
        type            calculated;
        value           nonuniform List<scalar> 
320
(
8.43044e-13
2.74851e-12
5.73835e-12
1.03135e-11
1.85108e-11
3.06878e-11
3.25729e-11
-1.67251e-11
-1.1561e-11
-3.66064e-11
-4.07866e-11
-1.34644e-11
-1.05912e-11
-3.55523e-12
-3.16971e-12
-1.17956e-12
-1.04655e-12
-4.75654e-13
-3.94231e-13
-2.04496e-13
2.26514e-12
8.78708e-12
2.26991e-11
5.65187e-11
1.44423e-10
3.72955e-10
6.56214e-10
3.69025e-10
-3.18493e-10
-6.04654e-10
-4.25318e-10
-1.41999e-10
-8.38988e-11
-2.94363e-11
-1.55044e-11
-6.52259e-12
-3.14764e-12
-1.58868e-12
-8.03465e-13
-4.32119e-13
1.93094e-12
7.12253e-12
1.70042e-11
3.89271e-11
9.16376e-11
2.15036e-10
3.53155e-10
2.04057e-10
-1.05818e-10
-3.38385e-10
-2.93164e-10
-9.38881e-11
-5.93975e-11
-2.18182e-11
-1.24959e-11
-5.73302e-12
-2.97369e-12
-1.62925e-12
-8.64626e-13
-4.91106e-13
1.78356e-12
6.0288e-12
1.30899e-11
2.55864e-11
4.74271e-11
7.94421e-11
1.09214e-10
7.08739e-11
-3.63902e-11
-1.11763e-10
-9.37958e-11
-4.73164e-11
-3.42969e-11
-1.64126e-11
-1.04854e-11
-5.25509e-12
-3.06668e-12
-1.63837e-12
-9.57928e-13
-5.08516e-13
6.47999e-14
3.91339e-13
1.60694e-12
3.21315e-12
9.87245e-12
1.6777e-11
3.17407e-11
8.41695e-12
3.48686e-11
-1.40076e-11
-4.7257e-11
-1.20526e-11
-1.45876e-11
-4.14126e-12
-3.73548e-12
-9.16072e-13
-7.51907e-13
-6.78494e-14
-4.83776e-14
1.05319e-13
1.59611e-13
1.31414e-12
5.13794e-12
1.57883e-11
5.25396e-11
1.49178e-10
2.70278e-10
1.34293e-10
-3.15397e-11
-2.31147e-10
-2.42813e-10
-5.70562e-11
-3.85912e-11
-8.99071e-12
-5.46348e-12
-1.2061e-12
-5.70328e-13
7.65369e-15
7.90197e-14
1.47807e-13
3.70169e-14
9.27246e-13
4.02999e-12
1.25054e-11
4.10917e-11
1.12395e-10
2.15431e-10
1.2412e-10
9.96e-11
-1.71317e-10
-2.94667e-10
-6.36796e-11
-4.91002e-11
-1.13808e-11
-6.73713e-12
-1.49269e-12
-5.27506e-13
7.07055e-14
1.64417e-13
1.95662e-13
-2.97711e-13
-3.90418e-13
8.66984e-14
1.97226e-12
7.41779e-12
1.60144e-11
2.6885e-11
9.58488e-12
-6.08559e-12
-3.02601e-11
-3.2559e-11
-3.85846e-12
-2.79941e-12
2.96998e-12
1.56758e-12
1.78206e-12
1.01525e-12
7.49238e-13
4.72175e-13
3.1923e-13
8.43044e-13
2.74851e-12
5.73835e-12
1.03135e-11
1.85108e-11
3.06878e-11
3.25729e-11
-1.67251e-11
-1.1561e-11
-3.66064e-11
-4.07866e-11
-1.34644e-11
-1.05912e-11
-3.55523e-12
-3.16971e-12
-1.17956e-12
-1.04655e-12
-4.75654e-13
-3.94231e-13
-2.04496e-13
2.26514e-12
8.78708e-12
2.26991e-11
5.65187e-11
1.44423e-10
3.72955e-10
6.56214e-10
3.69025e-10
-3.18493e-10
-6.04654e-10
-4.25318e-10
-1.41999e-10
-8.38988e-11
-2.94363e-11
-1.55044e-11
-6.52259e-12
-3.14764e-12
-1.58868e-12
-8.03465e-13
-4.32119e-13
1.93094e-12
7.12253e-12
1.70042e-11
3.89271e-11
9.16376e-11
2.15036e-10
3.53155e-10
2.04057e-10
-1.05818e-10
-3.38385e-10
-2.93164e-10
-9.38881e-11
-5.93975e-11
-2.18182e-11
-1.24959e-11
-5.73302e-12
-2.97369e-12
-1.62925e-12
-8.64626e-13
-4.91106e-13
1.78356e-12
6.0288e-12
1.30899e-11
2.55864e-11
4.74271e-11
7.94421e-11
1.09214e-10
7.08739e-11
-3.63902e-11
-1.11763e-10
-9.37958e-11
-4.73164e-11
-3.42969e-11
-1.64126e-11
-1.04854e-11
-5.25509e-12
-3.06668e-12
-1.63837e-12
-9.57928e-13
-5.08516e-13
6.47999e-14
3.91339e-13
1.60694e-12
3.21315e-12
9.87245e-12
1.6777e-11
3.17407e-11
8.41695e-12
3.48686e-11
-1.40076e-11
-4.7257e-11
-1.20526e-11
-1.45876e-11
-4.14126e-12
-3.73548e-12
-9.16072e-13
-7.51907e-13
-6.78494e-14
-4.83776e-14
1.05319e-13
1.59611e-13
1.31414e-12
5.13794e-12
1.57883e-11
5.25396e-11
1.49178e-10
2.70278e-10
1.34293e-10
-3.15397e-11
-2.31147e-10
-2.42813e-10
-5.70562e-11
-3.85912e-11
-8.99071e-12
-5.46348e-12
-1.2061e-12
-5.70328e-13
7.6537e-15
7.90197e-14
1.47807e-13
3.70169e-14
9.27246e-13
4.02999e-12
1.25054e-11
4.10917e-11
1.12395e-10
2.15431e-10
1.2412e-10
9.96e-11
-1.71317e-10
-2.94667e-10
-6.36796e-11
-4.91002e-11
-1.13808e-11
-6.73713e-12
-1.49269e-12
-5.27506e-13
7.07055e-14
1.64417e-13
1.95662e-13
-2.97711e-13
-3.90418e-13
8.66984e-14
1.97226e-12
7.41779e-12
1.60144e-11
2.6885e-11
9.58488e-12
-6.08559e-12
-3.02601e-11
-3.2559e-11
-3.85846e-12
-2.79941e-12
2.96998e-12
1.56758e-12
1.78206e-12
1.01525e-12
7.49238e-13
4.72175e-13
3.1923e-13
)
;
    }
}


// ************************************************************************* //
