/*--------------------------------*- C++ -*----------------------------------*\
| =========                 |                                                 |
| \\      /  F ield         | OpenFOAM: The Open Source CFD Toolbox           |
|  \\    /   O peration     | Version:  5.x                                   |
|   \\  /    A nd           | Web:      www.OpenFOAM.org                      |
|    \\/     M anipulation  |                                                 |
\*---------------------------------------------------------------------------*/
FoamFile
{
    version     2.0;
    format      ascii;
    class       volVectorField;
    location    "0.08";
    object      U;
}
// * * * * * * * * * * * * * * * * * * * * * * * * * * * * * * * * * * * * * //

dimensions      [0 1 -1 0 0 0 0];

internalField   nonuniform List<vector> 
320
(
(-1.41845e-07 8.84905e-07 -1.41845e-07)
(-1.7336e-07 2.67123e-07 -3.84209e-07)
(-1.59844e-08 1.87851e-07 -3.26229e-07)
(9.81575e-09 2.96647e-07 -3.01941e-07)
(-4.60595e-07 1.06446e-06 -4.60595e-07)
(-5.26603e-07 2.1951e-07 -1.49504e-06)
(1.63516e-08 2.09398e-07 -1.2058e-06)
(6.02777e-08 4.9973e-07 -1.02105e-06)
(-9.61001e-07 1.59769e-06 -9.61001e-07)
(-1.0197e-06 3.39374e-07 -3.85607e-06)
(2.41613e-07 4.69495e-07 -2.87158e-06)
(2.58746e-07 9.59595e-07 -2.21172e-06)
(-1.70515e-06 1.9579e-06 -1.70515e-06)
(-1.67718e-06 -6.38323e-08 -9.57729e-06)
(6.35885e-07 2.27339e-07 -6.55264e-06)
(5.11404e-07 1.58988e-06 -4.30819e-06)
(-2.95801e-06 2.97412e-06 -2.95801e-06)
(-2.77888e-06 -3.62841e-07 -2.43806e-05)
(1.91191e-06 7.16196e-07 -1.53646e-05)
(1.56478e-06 3.00798e-06 -7.95409e-06)
(-5.05264e-06 3.55148e-06 -5.05264e-06)
(-4.03263e-06 1.2085e-06 -6.41001e-05)
(4.10364e-06 1.1725e-06 -3.66713e-05)
(2.78068e-06 4.9639e-06 -1.33571e-05)
(-4.9604e-06 3.97409e-06 -4.9604e-06)
(-5.08145e-06 2.16942e-06 -0.000106321)
(5.50045e-06 4.09034e-06 -5.69725e-05)
(5.12576e-06 7.45675e-06 -1.77874e-05)
(3.25611e-06 2.51494e-07 3.25611e-06)
(6.83712e-07 -2.50321e-05 -5.45787e-05)
(-7.96361e-07 -1.11034e-05 -3.0661e-05)
(1.33343e-06 5.30205e-06 -1.10339e-05)
(1.91372e-06 1.66091e-07 1.91372e-06)
(-1.19658e-06 -3.97992e-05 5.28715e-05)
(2.75558e-06 -1.6704e-05 1.79458e-05)
(5.63837e-06 2.12759e-06 6.16874e-06)
(5.90386e-06 4.86603e-06 5.90386e-06)
(5.07575e-06 -2.22907e-05 9.72988e-05)
(-3.53479e-06 -7.92693e-06 5.44459e-05)
(-2.28703e-06 2.00077e-06 1.81695e-05)
(6.5599e-06 3.79294e-06 6.5599e-06)
(8.59235e-06 -3.16837e-06 6.84392e-05)
(-6.19828e-06 -6.19576e-07 4.71096e-05)
(-7.60507e-06 2.23896e-06 1.52242e-05)
(2.15787e-06 1.90744e-06 2.15787e-06)
(2.8628e-06 -3.34889e-06 2.29825e-05)
(-1.47552e-06 -4.22717e-06 1.51666e-05)
(-1.93367e-06 1.54084e-06 7.72082e-06)
(1.69554e-06 1.83909e-06 1.69554e-06)
(2.62768e-06 3.08332e-07 1.35599e-05)
(-1.60025e-06 7.44953e-08 9.5829e-06)
(-2.35179e-06 1.33072e-06 5.58516e-06)
(5.69656e-07 7.92933e-07 5.69656e-07)
(9.64778e-07 -4.32513e-07 4.7759e-06)
(-3.55291e-07 -1.04962e-06 3.5371e-06)
(-6.63592e-07 7.94782e-07 2.68474e-06)
(5.09999e-07 7.8705e-07 5.09999e-07)
(7.76363e-07 4.39145e-07 2.51824e-06)
(-3.78085e-07 2.0818e-07 2.02682e-06)
(-6.02188e-07 7.12156e-07 1.7143e-06)
(1.90331e-07 3.22574e-07 1.90331e-07)
(3.30391e-07 -2.05745e-08 1.06176e-06)
(-3.30447e-08 -1.85267e-07 9.33612e-07)
(-1.45125e-07 3.09781e-07 8.62584e-07)
(1.6963e-07 3.12694e-07 1.6963e-07)
(2.59717e-07 2.10928e-07 5.14036e-07)
(-4.05318e-08 1.36398e-07 4.85077e-07)
(-1.20674e-07 2.67358e-07 5.03668e-07)
(7.767e-08 1.35793e-07 7.767e-08)
(1.3508e-07 3.34371e-08 2.59643e-07)
(3.96316e-08 -1.37505e-08 2.66283e-07)
(-9.89692e-09 1.00157e-07 2.6974e-07)
(6.45064e-08 1.0758e-07 6.45064e-08)
(1.04678e-07 6.95528e-08 1.31971e-07)
(3.0318e-08 4.38426e-08 1.42034e-07)
(-6.95762e-09 7.02843e-08 1.58009e-07)
(3.38634e-08 2.78705e-08 3.38634e-08)
(6.1009e-08 1.37911e-09 7.1136e-08)
(4.3394e-08 -8.91333e-09 8.08421e-08)
(1.77836e-08 1.43957e-08 8.41757e-08)
(-3.84209e-07 2.67123e-07 -1.7336e-07)
(-3.60798e-07 -1.66742e-06 -3.60798e-07)
(5.11199e-08 -1.40595e-06 -3.46303e-07)
(2.56665e-08 -1.07114e-06 -3.37355e-07)
(-1.49504e-06 2.1951e-07 -5.26603e-07)
(-1.28071e-06 -3.38415e-06 -1.28071e-06)
(4.47869e-07 -2.45651e-06 -1.19356e-06)
(2.17588e-07 -1.49102e-06 -1.05845e-06)
(-3.85607e-06 3.39374e-07 -1.0197e-06)
(-2.94283e-06 -7.97515e-06 -2.94283e-06)
(1.80956e-06 -5.05941e-06 -2.58367e-06)
(8.57087e-07 -2.40954e-06 -2.09235e-06)
(-9.57729e-06 -6.38323e-08 -1.67718e-06)
(-6.549e-06 -2.1147e-05 -6.549e-06)
(5.81161e-06 -1.26525e-05 -5.36861e-06)
(2.63301e-06 -4.27062e-06 -3.65374e-06)
(-2.43806e-05 -3.62841e-07 -2.77888e-06)
(-1.51697e-05 -5.62802e-05 -1.51697e-05)
(1.82671e-05 -3.02515e-05 -1.15009e-05)
(8.72775e-06 -6.16772e-06 -6.03142e-06)
(-6.41001e-05 1.2085e-06 -4.03263e-06)
(-3.5617e-05 -9.36513e-05 -3.5617e-05)
(5.51291e-05 -4.70647e-05 -2.59443e-05)
(2.5583e-05 -5.20975e-06 -9.07535e-06)
(-0.000106321 2.16942e-06 -5.08145e-06)
(-5.70045e-05 -0.000419411 -5.70045e-05)
(9.53475e-05 -0.000198361 -4.1464e-05)
(4.34458e-05 5.00182e-06 -1.11749e-05)
(-5.45787e-05 -2.50321e-05 6.83712e-07)
(-3.28444e-05 -0.000569347 -3.28444e-05)
(4.42112e-05 -0.00029024 -2.4917e-05)
(1.97918e-05 1.43265e-05 -6.53556e-06)
(5.28715e-05 -3.97992e-05 -1.19658e-06)
(1.4218e-05 -0.000477696 1.4218e-05)
(-4.39226e-05 -0.000249487 -8.20355e-06)
(-5.65494e-06 1.06423e-05 2.24841e-06)
(9.72988e-05 -2.22907e-05 5.07575e-06)
(5.34541e-05 -0.000343954 5.34541e-05)
(-8.42898e-05 -0.000232165 3.76414e-05)
(-3.70458e-05 -1.18792e-05 1.13014e-05)
(6.84392e-05 -3.16837e-06 8.59235e-06)
(5.00085e-05 -0.000115211 5.00085e-05)
(-6.07841e-05 -6.83132e-05 5.30851e-05)
(-3.88804e-05 -1.08778e-05 1.17345e-05)
(2.29825e-05 -3.34889e-06 2.8628e-06)
(1.60715e-05 -6.43109e-05 1.60715e-05)
(-1.68553e-05 -4.68663e-05 1.48809e-05)
(-9.12835e-06 -8.70213e-06 6.13991e-06)
(1.35599e-05 3.08332e-07 2.62768e-06)
(1.06798e-05 -1.89254e-05 1.06798e-05)
(-9.5627e-06 -1.23761e-05 1.06417e-05)
(-6.17388e-06 -3.76943e-06 4.80509e-06)
(4.7759e-06 -4.32513e-07 9.64778e-07)
(4.01387e-06 -1.22198e-05 4.01387e-06)
(-2.37589e-06 -9.26011e-06 3.84733e-06)
(-1.42687e-06 -3.21966e-06 2.54937e-06)
(2.51824e-06 4.39145e-07 7.76363e-07)
(2.32474e-06 -3.45824e-06 2.32474e-06)
(-1.11894e-06 -2.56235e-06 2.34498e-06)
(-8.69459e-07 -1.12486e-06 1.79473e-06)
(1.06176e-06 -2.05745e-08 3.30391e-07)
(1.09752e-06 -2.1465e-06 1.09752e-06)
(-1.88868e-07 -1.84018e-06 1.14523e-06)
(-1.86051e-07 -9.32105e-07 1.00531e-06)
(5.14036e-07 2.10928e-07 2.59717e-07)
(5.83777e-07 -6.26675e-07 5.83777e-07)
(-2.29581e-08 -5.67927e-07 6.29113e-07)
(-8.78872e-08 -3.32183e-07 6.42318e-07)
(2.59643e-07 3.34371e-08 1.3508e-07)
(3.30615e-07 -3.67627e-07 3.30615e-07)
(6.80184e-08 -3.76579e-07 3.71944e-07)
(4.19523e-09 -2.51578e-07 3.76588e-07)
(1.31971e-07 6.95528e-08 1.04678e-07)
(1.8549e-07 -1.19933e-07 1.8549e-07)
(6.78615e-08 -1.4352e-07 2.12636e-07)
(1.44815e-08 -1.12168e-07 2.37411e-07)
(7.1136e-08 1.37911e-09 6.1009e-08)
(1.10539e-07 -5.45063e-08 1.10539e-07)
(6.35951e-08 -6.47275e-08 1.2914e-07)
(2.51354e-08 -5.33482e-08 1.36478e-07)
(-3.26229e-07 1.87851e-07 -1.59844e-08)
(-3.46303e-07 -1.40595e-06 5.11199e-08)
(-8.77709e-09 -1.38652e-06 -8.77709e-09)
(5.1818e-09 -1.11882e-06 -8.11093e-08)
(-1.2058e-06 2.09398e-07 1.63516e-08)
(-1.19356e-06 -2.45651e-06 4.47869e-07)
(1.92033e-07 -2.11552e-06 1.92033e-07)
(1.52424e-07 -1.30809e-06 -8.67871e-08)
(-2.87158e-06 4.69495e-07 2.41613e-07)
(-2.58367e-06 -5.05941e-06 1.80956e-06)
(1.01299e-06 -3.80484e-06 1.01299e-06)
(6.69438e-07 -1.66307e-06 1.62863e-07)
(-6.55264e-06 2.27339e-07 6.35885e-07)
(-5.36861e-06 -1.26525e-05 5.81161e-06)
(3.42214e-06 -8.9344e-06 3.42214e-06)
(2.07764e-06 -2.37673e-06 1.05558e-06)
(-1.53646e-05 7.16196e-07 1.91191e-06)
(-1.15009e-05 -3.02515e-05 1.82671e-05)
(1.09877e-05 -2.03276e-05 1.09877e-05)
(6.81308e-06 -2.40295e-06 3.28117e-06)
(-3.66713e-05 1.1725e-06 4.10364e-06)
(-2.59443e-05 -4.70647e-05 5.51291e-05)
(3.07618e-05 -3.30358e-05 3.07618e-05)
(1.9205e-05 -2.59982e-07 7.25176e-06)
(-5.69725e-05 4.09034e-06 5.50045e-06)
(-4.1464e-05 -0.000198361 9.53475e-05)
(5.19989e-05 -0.000134469 5.19989e-05)
(3.466e-05 6.94654e-06 1.13696e-05)
(-3.0661e-05 -1.11034e-05 -7.96361e-07)
(-2.4917e-05 -0.00029024 4.42112e-05)
(2.65482e-05 -0.000210315 2.65482e-05)
(1.87886e-05 8.8763e-06 6.18419e-06)
(1.79458e-05 -1.6704e-05 2.75558e-06)
(-8.20355e-06 -0.000249487 -4.39226e-05)
(-9.54388e-06 -0.000179092 -9.54388e-06)
(1.54745e-05 4.54289e-06 -4.72222e-06)
(5.44459e-05 -7.92693e-06 -3.53479e-06)
(3.76414e-05 -0.000232165 -8.42898e-05)
(-4.65164e-05 -0.000255226 -4.65164e-05)
(-2.74985e-05 -1.83205e-05 -1.22123e-05)
(4.71096e-05 -6.19576e-07 -6.19828e-06)
(5.30851e-05 -6.83132e-05 -6.07841e-05)
(-4.451e-05 -5.7507e-05 -4.451e-05)
(-4.72141e-05 -6.2188e-06 -9.38353e-06)
(1.51666e-05 -4.22717e-06 -1.47552e-06)
(1.48809e-05 -4.68663e-05 -1.68553e-05)
(-1.12975e-05 -5.07394e-05 -1.12975e-05)
(-1.01996e-05 -5.74756e-06 -2.40167e-06)
(9.5829e-06 7.44953e-08 -1.60025e-06)
(1.06417e-05 -1.23761e-05 -9.5627e-06)
(-7.3237e-06 -1.14466e-05 -7.3237e-06)
(-7.87717e-06 -2.21445e-06 -1.37875e-06)
(3.5371e-06 -1.04962e-06 -3.55291e-07)
(3.84733e-06 -9.26011e-06 -2.37589e-06)
(-1.7063e-06 -9.79068e-06 -1.7063e-06)
(-1.81452e-06 -2.25006e-06 2.8769e-07)
(2.02682e-06 2.0818e-07 -3.78085e-07)
(2.34498e-06 -2.56235e-06 -1.11894e-06)
(-8.2782e-07 -2.57524e-06 -8.2782e-07)
(-1.0771e-06 -7.9904e-07 3.1156e-07)
(9.33612e-07 -1.85267e-07 -3.30447e-08)
(1.14523e-06 -1.84018e-06 -1.88868e-07)
(-6.95013e-08 -1.98328e-06 -6.95013e-08)
(-2.32971e-07 -8.44042e-07 4.16898e-07)
(4.85077e-07 1.36398e-07 -4.05318e-08)
(6.29113e-07 -5.67927e-07 -2.29581e-08)
(5.22792e-08 -6.52707e-07 5.22792e-08)
(-8.13113e-08 -3.50161e-07 3.03076e-07)
(2.66283e-07 -1.37505e-08 3.96316e-08)
(3.71944e-07 -3.76579e-07 6.80184e-08)
(1.09326e-07 -4.44152e-07 1.09326e-07)
(1.44891e-08 -3.02812e-07 2.26244e-07)
(1.42034e-07 4.38426e-08 3.0318e-08)
(2.12636e-07 -1.4352e-07 6.78615e-08)
(9.69765e-08 -1.92404e-07 9.69765e-08)
(2.84128e-08 -1.57555e-07 1.5778e-07)
(8.08421e-08 -8.91333e-09 4.3394e-08)
(1.2914e-07 -6.47275e-08 6.35951e-08)
(7.90285e-08 -8.20094e-08 7.90285e-08)
(3.30017e-08 -7.41184e-08 1.04671e-07)
(-3.01941e-07 2.96647e-07 9.81575e-09)
(-3.37355e-07 -1.07114e-06 2.56665e-08)
(-8.11093e-08 -1.11882e-06 5.1818e-09)
(-5.04088e-08 -1.14012e-06 -5.04088e-08)
(-1.02105e-06 4.9973e-07 6.02777e-08)
(-1.05845e-06 -1.49102e-06 2.17588e-07)
(-8.67871e-08 -1.30809e-06 1.52424e-07)
(-6.72747e-08 -1.15017e-06 -6.72747e-08)
(-2.21172e-06 9.59595e-07 2.58746e-07)
(-2.09235e-06 -2.40954e-06 8.57087e-07)
(1.62863e-07 -1.66307e-06 6.69438e-07)
(7.76374e-09 -1.16342e-06 7.76374e-09)
(-4.30819e-06 1.58988e-06 5.11404e-07)
(-3.65374e-06 -4.27062e-06 2.63301e-06)
(1.05558e-06 -2.37673e-06 2.07764e-06)
(3.18045e-07 -1.03535e-06 3.18045e-07)
(-7.95409e-06 3.00798e-06 1.56478e-06)
(-6.03142e-06 -6.16772e-06 8.72775e-06)
(3.28117e-06 -2.40295e-06 6.81308e-06)
(1.20119e-06 1.02564e-07 1.20119e-06)
(-1.33571e-05 4.9639e-06 2.78068e-06)
(-9.07535e-06 -5.20975e-06 2.5583e-05)
(7.25176e-06 -2.59982e-07 1.9205e-05)
(2.68816e-06 3.03415e-06 2.68816e-06)
(-1.77874e-05 7.45675e-06 5.12576e-06)
(-1.11749e-05 5.00182e-06 4.34458e-05)
(1.13696e-05 6.94654e-06 3.466e-05)
(4.27303e-06 8.58855e-06 4.27303e-06)
(-1.10339e-05 5.30205e-06 1.33343e-06)
(-6.53556e-06 1.43265e-05 1.97918e-05)
(6.18419e-06 8.8763e-06 1.87886e-05)
(1.22393e-06 1.34912e-05 1.22393e-06)
(6.16874e-06 2.12759e-06 5.63837e-06)
(2.24841e-06 1.06423e-05 -5.65494e-06)
(-4.72222e-06 4.54289e-06 1.54745e-05)
(-1.02973e-06 1.3764e-05 -1.02973e-06)
(1.81695e-05 2.00077e-06 -2.28703e-06)
(1.13014e-05 -1.18792e-05 -3.70458e-05)
(-1.22123e-05 -1.83205e-05 -2.74985e-05)
(-4.84841e-06 6.00256e-06 -4.84841e-06)
(1.52242e-05 2.23896e-06 -7.60507e-06)
(1.17345e-05 -1.08778e-05 -3.88804e-05)
(-9.38353e-06 -6.2188e-06 -4.72141e-05)
(-5.21733e-06 1.28602e-06 -5.21733e-06)
(7.72082e-06 1.54084e-06 -1.93367e-06)
(6.13991e-06 -8.70213e-06 -9.12835e-06)
(-2.40167e-06 -5.74756e-06 -1.01996e-05)
(-5.89395e-07 -3.69721e-07 -5.89395e-07)
(5.58516e-06 1.33072e-06 -2.35179e-06)
(4.80509e-06 -3.76943e-06 -6.17388e-06)
(-1.37875e-06 -2.21445e-06 -7.87717e-06)
(-4.14699e-07 -1.0427e-06 -4.14699e-07)
(2.68474e-06 7.94782e-07 -6.63592e-07)
(2.54937e-06 -3.21966e-06 -1.42687e-06)
(2.8769e-07 -2.25006e-06 -1.81452e-06)
(5.01838e-07 -1.40432e-06 5.01838e-07)
(1.7143e-06 7.12156e-07 -6.02188e-07)
(1.79473e-06 -1.12486e-06 -8.69459e-07)
(3.1156e-07 -7.9904e-07 -1.0771e-06)
(2.68875e-07 -9.53246e-07 2.68875e-07)
(8.62584e-07 3.09781e-07 -1.45125e-07)
(1.00531e-06 -9.32105e-07 -1.86051e-07)
(4.16898e-07 -8.44042e-07 -2.32971e-07)
(2.97801e-07 -8.81035e-07 2.97801e-07)
(5.03668e-07 2.67358e-07 -1.20674e-07)
(6.42318e-07 -3.32183e-07 -8.78872e-08)
(3.03076e-07 -3.50161e-07 -8.13113e-08)
(1.70535e-07 -4.97501e-07 1.70535e-07)
(2.6974e-07 1.00157e-07 -9.89692e-09)
(3.76588e-07 -2.51578e-07 4.19523e-09)
(2.26244e-07 -3.02812e-07 1.44891e-08)
(1.25306e-07 -3.74454e-07 1.25306e-07)
(1.58009e-07 7.02843e-08 -6.95762e-09)
(2.37411e-07 -1.12168e-07 1.44815e-08)
(1.5778e-07 -1.57555e-07 2.84128e-08)
(7.91024e-08 -2.16848e-07 7.91024e-08)
(8.41757e-08 1.43957e-08 1.77836e-08)
(1.36478e-07 -5.33482e-08 2.51354e-08)
(1.04671e-07 -7.41184e-08 3.30017e-08)
(5.34522e-08 -9.51962e-08 5.34522e-08)
)
;

boundaryField
{
    inlet
    {
        type            fixedValue;
        value           uniform (0 0 0);
    }
    outlet
    {
        type            zeroGradient;
    }
    walls
    {
        type            fixedValue;
        value           uniform (0 0 0);
    }
}


// ************************************************************************* //
