/*--------------------------------*- C++ -*----------------------------------*\
| =========                 |                                                 |
| \\      /  F ield         | OpenFOAM: The Open Source CFD Toolbox           |
|  \\    /   O peration     | Version:  5.x                                   |
|   \\  /    A nd           | Web:      www.OpenFOAM.org                      |
|    \\/     M anipulation  |                                                 |
\*---------------------------------------------------------------------------*/
FoamFile
{
    version     2.0;
    format      ascii;
    class       volVectorField;
    location    "0.08";
    object      Us;
}
// * * * * * * * * * * * * * * * * * * * * * * * * * * * * * * * * * * * * * //

dimensions      [0 1 -1 0 0 0 0];

internalField   nonuniform List<vector> 
320
(
(-3.34092e-18 -8.67668e-15 -3.34092e-18)
(-3.05597e-17 -7.93664e-14 -3.05597e-17)
(-2.83375e-17 -7.35951e-14 -2.83375e-17)
(-8.30939e-19 -2.15803e-15 -8.30939e-19)
(-1.80912e-16 -4.69845e-13 -1.80912e-16)
(-1.89586e-15 -4.92372e-12 -1.89586e-15)
(-1.77981e-15 -4.62233e-12 -1.77981e-15)
(-5.15061e-17 -1.33766e-13 -5.15061e-17)
(-9.49274e-15 -2.46535e-11 -9.49274e-15)
(-1.16105e-13 -3.01535e-10 -1.16105e-13)
(-1.10348e-13 -2.86583e-10 -1.10348e-13)
(-3.15236e-15 -8.18699e-12 -3.15236e-15)
(-4.64851e-13 -1.20726e-09 -4.64851e-13)
(-6.82457e-12 -1.77241e-08 -6.82457e-12)
(-6.5676e-12 -1.70567e-08 -6.5676e-12)
(-1.85231e-13 -4.81062e-10 -1.85231e-13)
(-2.04852e-11 -5.3202e-08 -2.04852e-11)
(-3.75996e-10 -9.76498e-07 -3.75996e-10)
(-3.66445e-10 -9.51692e-07 -3.66445e-10)
(-1.02056e-11 -2.65049e-08 -1.02056e-11)
(-7.52253e-10 -1.95367e-06 -7.52253e-10)
(-1.84101e-08 -4.78127e-05 -1.84101e-08)
(-1.81742e-08 -4.72001e-05 -1.81742e-08)
(-5.00081e-10 -1.29876e-06 -5.00081e-10)
(-1.84185e-08 -4.78345e-05 -1.84185e-08)
(-6.75992e-07 -0.00175562 -6.75992e-07)
(-6.76111e-07 -0.00175593 -6.76111e-07)
(-1.84201e-08 -4.78387e-05 -1.84201e-08)
(-4.98323e-10 -1.29419e-06 -4.98323e-10)
(-1.82928e-08 -4.75081e-05 -1.82928e-08)
(-1.82929e-08 -4.75085e-05 -1.82929e-08)
(-4.98395e-10 -1.29438e-06 -4.98395e-10)
(-6.65578e-12 -1.72857e-08 -6.65578e-12)
(-2.44325e-10 -6.34536e-07 -2.44325e-10)
(-2.47525e-10 -6.42846e-07 -2.47525e-10)
(-1.01149e-11 -2.62695e-08 -1.01149e-11)
(-8.88602e-14 -2.30778e-10 -8.88602e-14)
(-3.26254e-12 -8.47312e-09 -3.26254e-12)
(-3.34798e-12 -8.69501e-09 -3.34798e-12)
(-1.82415e-13 -4.73748e-10 -1.82415e-13)
(0 0 0)
(0 0 0)
(0 0 0)
(0 0 0)
(0 0 0)
(0 0 0)
(0 0 0)
(0 0 0)
(0 0 0)
(0 0 0)
(0 0 0)
(0 0 0)
(0 0 0)
(0 0 0)
(0 0 0)
(0 0 0)
(0 0 0)
(0 0 0)
(0 0 0)
(0 0 0)
(0 0 0)
(0 0 0)
(0 0 0)
(0 0 0)
(0 0 0)
(0 0 0)
(0 0 0)
(0 0 0)
(0 0 0)
(0 0 0)
(0 0 0)
(0 0 0)
(0 0 0)
(0 0 0)
(0 0 0)
(0 0 0)
(0 0 0)
(0 0 0)
(0 0 0)
(0 0 0)
(-3.05597e-17 -7.93664e-14 -3.05597e-17)
(-3.19824e-16 -8.30613e-13 -3.19824e-16)
(-3.00205e-16 -7.7966e-13 -3.00205e-16)
(-8.67943e-18 -2.25413e-14 -8.67943e-18)
(-1.89586e-15 -4.92372e-12 -1.89586e-15)
(-2.32e-14 -6.02526e-11 -2.32e-14)
(-2.20497e-14 -5.72652e-11 -2.20497e-14)
(-6.29072e-16 -1.63376e-12 -6.29072e-16)
(-1.16105e-13 -3.01535e-10 -1.16105e-13)
(-1.70528e-12 -4.42876e-09 -1.70528e-12)
(-1.64104e-12 -4.26193e-09 -1.64104e-12)
(-4.62075e-14 -1.20005e-10 -4.62075e-14)
(-6.82457e-12 -1.77241e-08 -6.82457e-12)
(-1.25303e-10 -3.25424e-07 -1.25303e-10)
(-1.22115e-10 -3.17144e-07 -1.22115e-10)
(-3.39356e-12 -8.8134e-09 -3.39356e-12)
(-3.75996e-10 -9.76498e-07 -3.75996e-10)
(-9.20416e-09 -2.39041e-05 -9.20416e-09)
(-9.08554e-09 -2.3596e-05 -9.08554e-09)
(-2.49188e-10 -6.47164e-07 -2.49188e-10)
(-1.84101e-08 -4.78127e-05 -1.84101e-08)
(-6.75862e-07 -0.00175528 -6.75862e-07)
(-6.75868e-07 -0.00175529 -6.75868e-07)
(-1.82946e-08 -4.75128e-05 -1.82946e-08)
(-6.75992e-07 -0.00175562 -6.75992e-07)
(-4.96026e-05 -0.128823 -4.96026e-05)
(-4.96026e-05 -0.128823 -4.96026e-05)
(-6.76237e-07 -0.00175625 -6.76237e-07)
(-1.82928e-08 -4.75081e-05 -1.82928e-08)
(-6.76103e-07 -0.0017559 -6.76103e-07)
(-6.75992e-07 -0.00175562 -6.75992e-07)
(-1.81792e-08 -4.7213e-05 -1.81792e-08)
(-2.44325e-10 -6.34536e-07 -2.44325e-10)
(-8.97285e-09 -2.33034e-05 -8.97285e-09)
(-9.08722e-09 -2.36004e-05 -9.08722e-09)
(-3.66555e-10 -9.51977e-07 -3.66555e-10)
(-3.26254e-12 -8.47312e-09 -3.26254e-12)
(-1.19061e-10 -3.09213e-07 -1.19061e-10)
(-1.22116e-10 -3.17146e-07 -1.22116e-10)
(-6.56813e-12 -1.70581e-08 -6.56813e-12)
(0 0 0)
(0 0 0)
(0 0 0)
(0 0 0)
(0 0 0)
(0 0 0)
(0 0 0)
(0 0 0)
(0 0 0)
(0 0 0)
(0 0 0)
(0 0 0)
(0 0 0)
(0 0 0)
(0 0 0)
(0 0 0)
(0 0 0)
(0 0 0)
(0 0 0)
(0 0 0)
(0 0 0)
(0 0 0)
(0 0 0)
(0 0 0)
(0 0 0)
(0 0 0)
(0 0 0)
(0 0 0)
(0 0 0)
(0 0 0)
(0 0 0)
(0 0 0)
(0 0 0)
(0 0 0)
(0 0 0)
(0 0 0)
(0 0 0)
(0 0 0)
(0 0 0)
(0 0 0)
(-2.83375e-17 -7.35951e-14 -2.83375e-17)
(-3.00205e-16 -7.7966e-13 -3.00205e-16)
(-2.82078e-16 -7.32584e-13 -2.82078e-16)
(-8.14716e-18 -2.11589e-14 -8.14716e-18)
(-1.77981e-15 -4.62233e-12 -1.77981e-15)
(-2.20497e-14 -5.72652e-11 -2.20497e-14)
(-2.09753e-14 -5.44748e-11 -2.09753e-14)
(-5.97904e-16 -1.55281e-12 -5.97904e-16)
(-1.10348e-13 -2.86583e-10 -1.10348e-13)
(-1.64104e-12 -4.26193e-09 -1.64104e-12)
(-1.58043e-12 -4.10454e-09 -1.58043e-12)
(-4.44693e-14 -1.15491e-10 -4.44693e-14)
(-6.5676e-12 -1.70567e-08 -6.5676e-12)
(-1.22115e-10 -3.17144e-07 -1.22115e-10)
(-1.19083e-10 -3.0927e-07 -1.19083e-10)
(-3.30744e-12 -8.58973e-09 -3.30744e-12)
(-3.66445e-10 -9.51692e-07 -3.66445e-10)
(-9.08554e-09 -2.3596e-05 -9.08554e-09)
(-8.97281e-09 -2.33033e-05 -8.97281e-09)
(-2.45994e-10 -6.38871e-07 -2.45994e-10)
(-1.81742e-08 -4.72001e-05 -1.81742e-08)
(-6.75868e-07 -0.00175529 -6.75868e-07)
(-6.761e-07 -0.0017559 -6.761e-07)
(-1.82962e-08 -4.7517e-05 -1.82962e-08)
(-6.76111e-07 -0.00175593 -6.76111e-07)
(-4.96026e-05 -0.128823 -4.96026e-05)
(-4.96026e-05 -0.128823 -4.96026e-05)
(-6.7624e-07 -0.00175626 -6.7624e-07)
(-1.82929e-08 -4.75085e-05 -1.82929e-08)
(-6.75992e-07 -0.00175562 -6.75992e-07)
(-6.76106e-07 -0.00175591 -6.76106e-07)
(-1.84169e-08 -4.78304e-05 -1.84169e-08)
(-2.47525e-10 -6.42846e-07 -2.47525e-10)
(-9.08722e-09 -2.36004e-05 -9.08722e-09)
(-9.20753e-09 -2.39128e-05 -9.20753e-09)
(-3.76139e-10 -9.76868e-07 -3.76139e-10)
(-3.34798e-12 -8.69501e-09 -3.34798e-12)
(-1.22116e-10 -3.17146e-07 -1.22116e-10)
(-1.25328e-10 -3.25487e-07 -1.25328e-10)
(-6.82567e-12 -1.77269e-08 -6.82567e-12)
(0 0 0)
(0 0 0)
(0 0 0)
(0 0 0)
(0 0 0)
(0 0 0)
(0 0 0)
(0 0 0)
(0 0 0)
(0 0 0)
(0 0 0)
(0 0 0)
(0 0 0)
(0 0 0)
(0 0 0)
(0 0 0)
(0 0 0)
(0 0 0)
(0 0 0)
(0 0 0)
(0 0 0)
(0 0 0)
(0 0 0)
(0 0 0)
(0 0 0)
(0 0 0)
(0 0 0)
(0 0 0)
(0 0 0)
(0 0 0)
(0 0 0)
(0 0 0)
(0 0 0)
(0 0 0)
(0 0 0)
(0 0 0)
(0 0 0)
(0 0 0)
(0 0 0)
(0 0 0)
(-8.30939e-19 -2.15803e-15 -8.30939e-19)
(-8.67943e-18 -2.25413e-14 -8.67943e-18)
(-8.14716e-18 -2.11589e-14 -8.14716e-18)
(-2.38631e-19 -6.19747e-16 -2.38631e-19)
(-5.15061e-17 -1.33766e-13 -5.15061e-17)
(-6.29072e-16 -1.63376e-12 -6.29072e-16)
(-5.97904e-16 -1.55281e-12 -5.97904e-16)
(-1.7281e-17 -4.48804e-14 -1.7281e-17)
(-3.15236e-15 -8.18699e-12 -3.15236e-15)
(-4.62075e-14 -1.20005e-10 -4.62075e-14)
(-4.44693e-14 -1.15491e-10 -4.44693e-14)
(-1.26849e-15 -3.29439e-12 -1.26849e-15)
(-1.85231e-13 -4.81062e-10 -1.85231e-13)
(-3.39356e-12 -8.8134e-09 -3.39356e-12)
(-3.30744e-12 -8.58973e-09 -3.30744e-12)
(-9.31121e-14 -2.41821e-10 -9.31121e-14)
(-1.02056e-11 -2.65049e-08 -1.02056e-11)
(-2.49188e-10 -6.47164e-07 -2.49188e-10)
(-2.45994e-10 -6.38871e-07 -2.45994e-10)
(-6.8348e-12 -1.77506e-08 -6.8348e-12)
(-5.00081e-10 -1.29876e-06 -5.00081e-10)
(-1.82946e-08 -4.75128e-05 -1.82946e-08)
(-1.82962e-08 -4.7517e-05 -1.82962e-08)
(-5.01701e-10 -1.30297e-06 -5.01701e-10)
(-1.84201e-08 -4.78387e-05 -1.84201e-08)
(-6.76237e-07 -0.00175625 -6.76237e-07)
(-6.7624e-07 -0.00175626 -6.7624e-07)
(-1.84253e-08 -4.78524e-05 -1.84253e-08)
(-4.98395e-10 -1.29438e-06 -4.98395e-10)
(-1.81792e-08 -4.7213e-05 -1.81792e-08)
(-1.84169e-08 -4.78304e-05 -1.84169e-08)
(-7.52535e-10 -1.9544e-06 -7.52535e-10)
(-1.01149e-11 -2.62695e-08 -1.01149e-11)
(-3.66555e-10 -9.51977e-07 -3.66555e-10)
(-3.76139e-10 -9.76868e-07 -3.76139e-10)
(-2.0493e-11 -5.32222e-08 -2.0493e-11)
(-1.82415e-13 -4.73748e-10 -1.82415e-13)
(-6.56813e-12 -1.70581e-08 -6.56813e-12)
(-6.82567e-12 -1.77269e-08 -6.82567e-12)
(-4.649e-13 -1.20739e-09 -4.649e-13)
(0 0 0)
(0 0 0)
(0 0 0)
(0 0 0)
(0 0 0)
(0 0 0)
(0 0 0)
(0 0 0)
(0 0 0)
(0 0 0)
(0 0 0)
(0 0 0)
(0 0 0)
(0 0 0)
(0 0 0)
(0 0 0)
(0 0 0)
(0 0 0)
(0 0 0)
(0 0 0)
(0 0 0)
(0 0 0)
(0 0 0)
(0 0 0)
(0 0 0)
(0 0 0)
(0 0 0)
(0 0 0)
(0 0 0)
(0 0 0)
(0 0 0)
(0 0 0)
(0 0 0)
(0 0 0)
(0 0 0)
(0 0 0)
(0 0 0)
(0 0 0)
(0 0 0)
(0 0 0)
)
;

boundaryField
{
    inlet
    {
        type            zeroGradient;
    }
    outlet
    {
        type            zeroGradient;
    }
    walls
    {
        type            zeroGradient;
    }
}


// ************************************************************************* //
