/*--------------------------------*- C++ -*----------------------------------*\
| =========                 |                                                 |
| \\      /  F ield         | OpenFOAM: The Open Source CFD Toolbox           |
|  \\    /   O peration     | Version:  5.x                                   |
|   \\  /    A nd           | Web:      www.OpenFOAM.org                      |
|    \\/     M anipulation  |                                                 |
\*---------------------------------------------------------------------------*/
FoamFile
{
    version     2.0;
    format      ascii;
    class       volScalarField;
    location    "0.01";
    object      p;
}
// * * * * * * * * * * * * * * * * * * * * * * * * * * * * * * * * * * * * * //

dimensions      [0 2 -2 0 0 0 0];

internalField   nonuniform List<scalar> 
320
(
-8.05879e-10
-8.23148e-12
-3.25687e-13
-3.09148e-10
-2.90452e-09
2.19931e-10
2.01806e-10
-1.38318e-09
-3.92426e-09
2.84429e-09
1.76909e-09
-3.69878e-09
-1.56223e-09
1.16129e-08
6.39636e-09
-8.58251e-09
1.08716e-08
3.75226e-08
1.97925e-08
-1.98823e-08
4.56242e-08
8.50475e-08
4.14386e-08
-4.83019e-08
1.29135e-07
2.68623e-07
1.57444e-07
-9.34565e-08
2.30275e-07
4.03974e-07
9.72025e-08
-2.63884e-07
1.92323e-07
1.08381e-06
6.90672e-07
-3.49678e-07
-9.73312e-07
-9.7335e-07
-9.7335e-07
-9.73327e-07
-2.13892e-06
-3.03049e-06
-2.63734e-06
-1.59693e-06
-2.17676e-06
-2.35043e-06
-2.04368e-06
-1.68265e-06
-2.07554e-06
-2.21507e-06
-2.10393e-06
-1.85305e-06
-1.9919e-06
-2.03136e-06
-1.98783e-06
-1.89815e-06
-1.95698e-06
-1.98375e-06
-1.96614e-06
-1.92654e-06
-1.94427e-06
-1.95765e-06
-1.95263e-06
-1.93779e-06
-1.94149e-06
-1.94862e-06
-1.94784e-06
-1.94264e-06
-1.94188e-06
-1.94565e-06
-1.94608e-06
-1.9449e-06
-1.94307e-06
-1.94508e-06
-1.94572e-06
-1.94578e-06
-1.94446e-06
-1.94546e-06
-1.94587e-06
-1.94615e-06
-8.23148e-12
9.66633e-10
9.34457e-10
4.22762e-10
2.19931e-10
4.31079e-09
4.18919e-09
1.60432e-09
2.84429e-09
1.30904e-08
1.13546e-08
3.31996e-09
1.16129e-08
3.67536e-08
2.94183e-08
5.80938e-09
3.75226e-08
1.02539e-07
7.77295e-08
9.26589e-09
8.50475e-08
2.54707e-07
1.87211e-07
-2.41871e-10
2.68623e-07
8.26062e-07
5.90322e-07
5.57038e-08
4.03974e-07
1.34546e-06
6.81804e-07
-2.94203e-07
1.08381e-06
8.16502e-06
5.50812e-06
3.08305e-07
-9.7335e-07
-9.73474e-07
-9.7342e-07
-9.73365e-07
-3.03049e-06
-1.01118e-05
-7.45486e-06
-2.255e-06
-2.35043e-06
-3.29171e-06
-2.6282e-06
-1.65233e-06
-2.21507e-06
-2.77251e-06
-2.53681e-06
-2.00223e-06
-2.03136e-06
-2.20107e-06
-2.13367e-06
-1.94628e-06
-1.98375e-06
-2.04886e-06
-2.02418e-06
-1.9558e-06
-1.95765e-06
-1.98298e-06
-1.97585e-06
-1.95238e-06
-1.94862e-06
-1.95923e-06
-1.95781e-06
-1.94998e-06
-1.94565e-06
-1.95041e-06
-1.95074e-06
-1.94846e-06
-1.94508e-06
-1.94736e-06
-1.94793e-06
-1.94768e-06
-1.94546e-06
-1.94651e-06
-1.94689e-06
-1.94708e-06
-3.25687e-13
9.34457e-10
8.86861e-10
3.16772e-10
2.01806e-10
4.18919e-09
4.0453e-09
1.16457e-09
1.76909e-09
1.13546e-08
9.77452e-09
1.09081e-09
6.39636e-09
2.94183e-08
2.35034e-08
-2.15651e-09
1.97925e-08
7.77295e-08
6.16417e-08
-1.34159e-08
4.14386e-08
1.87211e-07
1.55068e-07
-5.34424e-08
1.57444e-07
5.90322e-07
5.37429e-07
-8.3528e-08
9.72025e-08
6.81804e-07
3.71334e-07
-6.43505e-07
6.90672e-07
5.50812e-06
5.8399e-06
-2.02532e-07
-9.7335e-07
-9.7342e-07
-9.73462e-07
-9.73378e-07
-2.63734e-06
-7.45486e-06
-7.78672e-06
-1.74418e-06
-2.04368e-06
-2.6282e-06
-2.31767e-06
-1.30304e-06
-2.10393e-06
-2.53681e-06
-2.48394e-06
-1.86304e-06
-1.98783e-06
-2.13367e-06
-2.1016e-06
-1.89315e-06
-1.96614e-06
-2.02418e-06
-2.0082e-06
-1.93324e-06
-1.95263e-06
-1.97585e-06
-1.97013e-06
-1.94459e-06
-1.94784e-06
-1.95781e-06
-1.95655e-06
-1.94806e-06
-1.94608e-06
-1.95074e-06
-1.951e-06
-1.94841e-06
-1.94572e-06
-1.94793e-06
-1.94844e-06
-1.94811e-06
-1.94587e-06
-1.94689e-06
-1.94723e-06
-1.94738e-06
-3.09148e-10
4.22762e-10
3.16772e-10
-1.80026e-10
-1.38318e-09
1.60432e-09
1.16457e-09
-1.35856e-09
-3.69878e-09
3.31996e-09
1.09081e-09
-6.7854e-09
-8.58251e-09
5.80938e-09
-2.15651e-09
-2.31444e-08
-1.98823e-08
9.26589e-09
-1.34159e-08
-6.45721e-08
-4.83019e-08
-2.41871e-10
-5.34424e-08
-1.67743e-07
-9.34565e-08
5.57038e-08
-8.3528e-08
-3.61727e-07
-2.63884e-07
-2.94203e-07
-6.43505e-07
-8.16104e-07
-3.49678e-07
3.08305e-07
-2.02532e-07
-9.73547e-07
-9.73327e-07
-9.73365e-07
-9.73378e-07
-9.73354e-07
-1.59693e-06
-2.255e-06
-1.74418e-06
-9.73126e-07
-1.68265e-06
-1.65233e-06
-1.30304e-06
-1.13049e-06
-1.85305e-06
-2.00223e-06
-1.86304e-06
-1.58488e-06
-1.89815e-06
-1.94628e-06
-1.89315e-06
-1.77891e-06
-1.92654e-06
-1.9558e-06
-1.93324e-06
-1.88221e-06
-1.93779e-06
-1.95238e-06
-1.94459e-06
-1.92366e-06
-1.94264e-06
-1.94998e-06
-1.94806e-06
-1.94031e-06
-1.9449e-06
-1.94846e-06
-1.94841e-06
-1.94643e-06
-1.94578e-06
-1.94768e-06
-1.94811e-06
-1.94787e-06
-1.94615e-06
-1.94708e-06
-1.94738e-06
-1.94754e-06
)
;

boundaryField
{
    inlet
    {
        type            zeroGradient;
    }
    outlet
    {
        type            totalPressure;
        rho             rho;
        psi             none;
        gamma           1;
        p0              uniform 0;
        value           nonuniform List<scalar> 
16
(
-3.2198e-17
-7.52569e-18
-1.75509e-18
-2.44997e-18
-7.52569e-18
0
0
0
-1.75509e-18
0
0
0
-2.44997e-18
0
0
0
)
;
    }
    walls
    {
        type            zeroGradient;
    }
}


// ************************************************************************* //
