/*--------------------------------*- C++ -*----------------------------------*\
| =========                 |                                                 |
| \\      /  F ield         | OpenFOAM: The Open Source CFD Toolbox           |
|  \\    /   O peration     | Version:  5.x                                   |
|   \\  /    A nd           | Web:      www.OpenFOAM.org                      |
|    \\/     M anipulation  |                                                 |
\*---------------------------------------------------------------------------*/
FoamFile
{
    version     2.0;
    format      ascii;
    class       volVectorField;
    location    "0.01";
    object      Us;
}
// * * * * * * * * * * * * * * * * * * * * * * * * * * * * * * * * * * * * * //

dimensions      [0 1 -1 0 0 0 0];

internalField   nonuniform List<vector> 
320
(
(-1.31247e-30 -2.44353e-20 -1.31247e-30)
(-8.80525e-30 -1.63934e-19 -8.80526e-30)
(-8.7933e-30 -1.63711e-19 -8.7933e-30)
(-1.25021e-30 -2.32761e-20 -1.25021e-30)
(-7.74708e-29 -1.44233e-18 -7.74708e-29)
(-5.71791e-28 -1.06455e-17 -5.71791e-28)
(-5.71235e-28 -1.06351e-17 -5.71235e-28)
(-7.43517e-29 -1.38426e-18 -7.43517e-29)
(-4.54491e-27 -8.4616e-17 -4.54491e-27)
(-3.72315e-26 -6.93166e-16 -3.72315e-26)
(-3.72066e-26 -6.92704e-16 -3.72066e-26)
(-4.3934e-27 -8.17953e-17 -4.39341e-27)
(-2.59258e-25 -4.8268e-15 -2.59258e-25)
(-2.38697e-24 -4.44399e-14 -2.38697e-24)
(-2.38594e-24 -4.44208e-14 -2.38594e-24)
(-2.52359e-25 -4.69835e-15 -2.52359e-25)
(-1.42626e-23 -2.65538e-13 -1.42626e-23)
(-1.49944e-22 -2.79163e-12 -1.49944e-22)
(-1.49906e-22 -2.79091e-12 -1.49906e-22)
(-1.39753e-23 -2.60189e-13 -1.39753e-23)
(-7.47362e-22 -1.39142e-11 -7.47363e-22)
(-9.15976e-21 -1.70534e-10 -9.15976e-21)
(-9.15852e-21 -1.70511e-10 -9.15852e-21)
(-7.3689e-22 -1.37192e-11 -7.3689e-22)
(-3.65559e-20 -6.80588e-10 -3.65559e-20)
(-5.37298e-19 -1.00033e-08 -5.37298e-19)
(-5.37266e-19 -1.00027e-08 -5.37266e-19)
(-3.625e-20 -6.74894e-10 -3.62501e-20)
(-1.60948e-18 -2.9965e-08 -1.60948e-18)
(-2.95546e-17 -5.50241e-07 -2.95547e-17)
(-2.95541e-17 -5.50231e-07 -2.95541e-17)
(-1.60387e-18 -2.98604e-08 -1.60387e-18)
(-5.90618e-17 -1.0996e-06 -5.90619e-17)
(-1.44543e-15 -2.69107e-05 -1.44543e-15)
(-1.44543e-15 -2.69106e-05 -1.44543e-15)
(-5.90585e-17 -1.09954e-06 -5.90585e-17)
(-1.4453e-15 -2.69082e-05 -1.4453e-15)
(-5.30351e-14 -0.000987395 -5.30351e-14)
(-5.3035e-14 -0.000987392 -5.3035e-14)
(-1.44516e-15 -2.69055e-05 -1.44516e-15)
(-5.90373e-17 -1.09914e-06 -5.90373e-17)
(-1.44518e-15 -2.6906e-05 -1.44518e-15)
(-1.44544e-15 -2.69108e-05 -1.44544e-15)
(-5.90482e-17 -1.09934e-06 -5.90482e-17)
(-1.33705e-18 -2.48929e-08 -1.33705e-18)
(-2.94113e-17 -5.47573e-07 -2.94113e-17)
(-2.95352e-17 -5.49878e-07 -2.95352e-17)
(-1.46936e-18 -2.73562e-08 -1.46936e-18)
(-2.52352e-20 -4.69822e-10 -2.52352e-20)
(-5.27943e-19 -9.82911e-09 -5.27943e-19)
(-5.34646e-19 -9.9539e-09 -5.34646e-19)
(-3.2605e-20 -6.07031e-10 -3.2605e-20)
(-4.36274e-22 -8.12244e-12 -4.36274e-22)
(-8.85739e-21 -1.64905e-10 -8.85739e-21)
(-9.06032e-21 -1.68683e-10 -9.06032e-21)
(-6.62745e-22 -1.23388e-11 -6.62745e-22)
(-7.1618e-24 -1.33337e-13 -7.1618e-24)
(-1.42443e-22 -2.65197e-12 -1.42443e-22)
(-1.47283e-22 -2.74207e-12 -1.47283e-22)
(-1.26339e-23 -2.35214e-13 -1.26339e-23)
(-1.13613e-25 -2.11522e-15 -1.13613e-25)
(-2.22522e-24 -4.14285e-14 -2.22522e-24)
(-2.32651e-24 -4.33144e-14 -2.32651e-24)
(-2.29593e-25 -4.27451e-15 -2.29593e-25)
(-1.75908e-27 -3.27501e-17 -1.75908e-27)
(-3.40346e-26 -6.33648e-16 -3.40346e-26)
(-3.59868e-26 -6.69994e-16 -3.59869e-26)
(-4.02229e-27 -7.4886e-17 -4.02229e-27)
(-2.67464e-29 -4.97958e-19 -2.67464e-29)
(-5.12247e-28 -9.53689e-18 -5.12248e-28)
(-5.47795e-28 -1.01987e-17 -5.47795e-28)
(-6.84665e-29 -1.27469e-18 -6.84665e-29)
(-4.00998e-31 -7.46568e-21 -4.00998e-31)
(-7.61277e-30 -1.41733e-19 -7.61277e-30)
(-8.2337e-30 -1.53293e-19 -8.23371e-30)
(-1.13872e-30 -2.12004e-20 -1.13872e-30)
(-6.07238e-33 -1.13054e-22 -6.07239e-33)
(-1.13676e-31 -2.11639e-21 -1.13676e-31)
(-1.24326e-31 -2.31468e-21 -1.24326e-31)
(-1.88859e-32 -3.51613e-22 -1.88859e-32)
(-8.80525e-30 -1.63934e-19 -8.80526e-30)
(-6.48139e-29 -1.20669e-18 -6.48139e-29)
(-6.46927e-29 -1.20443e-18 -6.46927e-29)
(-8.38338e-30 -1.5608e-19 -8.38338e-30)
(-5.71791e-28 -1.06455e-17 -5.71791e-28)
(-4.67835e-27 -8.71003e-17 -4.67835e-27)
(-4.67227e-27 -8.69871e-17 -4.67227e-27)
(-5.49336e-28 -1.02274e-17 -5.49336e-28)
(-3.72315e-26 -6.93166e-16 -3.72315e-26)
(-3.42418e-25 -6.37506e-15 -3.42418e-25)
(-3.42125e-25 -6.36959e-15 -3.42125e-25)
(-3.60733e-26 -6.71605e-16 -3.60734e-26)
(-2.38697e-24 -4.44399e-14 -2.38697e-24)
(-2.5071e-23 -4.66765e-13 -2.5071e-23)
(-2.50578e-23 -4.66521e-13 -2.50578e-23)
(-2.33117e-24 -4.34012e-14 -2.33117e-24)
(-1.49944e-22 -2.79163e-12 -1.49944e-22)
(-1.83627e-21 -3.41872e-11 -1.83627e-21)
(-1.83574e-21 -3.41774e-11 -1.83575e-21)
(-1.4752e-22 -2.74648e-12 -1.4752e-22)
(-9.15976e-21 -1.70534e-10 -9.15976e-21)
(-1.34542e-19 -2.50486e-09 -1.34542e-19)
(-1.34524e-19 -2.50453e-09 -1.34524e-19)
(-9.07135e-21 -1.68888e-10 -9.07135e-21)
(-5.37298e-19 -1.00033e-08 -5.37298e-19)
(-9.86128e-18 -1.83595e-07 -9.86129e-18)
(-9.86085e-18 -1.83587e-07 -9.86085e-18)
(-5.35087e-19 -9.96211e-09 -5.35087e-19)
(-2.95546e-17 -5.50241e-07 -2.95547e-17)
(-7.2305e-16 -1.34616e-05 -7.23051e-16)
(-7.23046e-16 -1.34615e-05 -7.23046e-16)
(-2.95477e-17 -5.50112e-07 -2.95477e-17)
(-1.44543e-15 -2.69107e-05 -1.44543e-15)
(-5.30351e-14 -0.000987395 -5.30351e-14)
(-5.30351e-14 -0.000987395 -5.30351e-14)
(-1.44543e-15 -2.69107e-05 -1.44543e-15)
(-5.30351e-14 -0.000987395 -5.30351e-14)
(-3.89115e-12 -0.0724446 -3.89116e-12)
(-3.89115e-12 -0.0724446 -3.89116e-12)
(-5.3035e-14 -0.000987392 -5.3035e-14)
(-1.44518e-15 -2.6906e-05 -1.44518e-15)
(-5.30349e-14 -0.00098739 -5.30349e-14)
(-5.30351e-14 -0.000987394 -5.30351e-14)
(-1.44557e-15 -2.69133e-05 -1.44557e-15)
(-2.94113e-17 -5.47573e-07 -2.94113e-17)
(-7.2303e-16 -1.34612e-05 -7.2303e-16)
(-7.22914e-16 -1.3459e-05 -7.22915e-16)
(-2.9422e-17 -5.47771e-07 -2.9422e-17)
(-5.27943e-19 -9.82911e-09 -5.27943e-19)
(-9.85696e-18 -1.83514e-07 -9.85696e-18)
(-9.85733e-18 -1.83521e-07 -9.85733e-18)
(-5.33616e-19 -9.93473e-09 -5.33616e-19)
(-8.85739e-21 -1.64905e-10 -8.85739e-21)
(-1.34374e-19 -2.50174e-09 -1.34374e-19)
(-1.34453e-19 -2.50322e-09 -1.34453e-19)
(-9.08331e-21 -1.69111e-10 -9.08331e-21)
(-1.42443e-22 -2.65197e-12 -1.42443e-22)
(-1.83176e-21 -3.41033e-11 -1.83176e-21)
(-1.83448e-21 -3.41539e-11 -1.83448e-21)
(-1.4853e-22 -2.7653e-12 -1.48531e-22)
(-2.22522e-24 -4.14285e-14 -2.22522e-24)
(-2.49689e-23 -4.64864e-13 -2.49689e-23)
(-2.50367e-23 -4.66127e-13 -2.50367e-23)
(-2.36237e-24 -4.39821e-14 -2.36238e-24)
(-3.40346e-26 -6.33648e-16 -3.40346e-26)
(-3.40331e-25 -6.33619e-15 -3.40331e-25)
(-3.41784e-25 -6.36325e-15 -3.41784e-25)
(-3.68193e-26 -6.85493e-16 -3.68193e-26)
(-5.12247e-28 -9.53689e-18 -5.12248e-28)
(-4.63843e-27 -8.63571e-17 -4.63843e-27)
(-4.66692e-27 -8.68875e-17 -4.66692e-27)
(-5.65046e-28 -1.05199e-17 -5.65046e-28)
(-7.61277e-30 -1.41733e-19 -7.61277e-30)
(-6.32129e-29 -1.17688e-18 -6.32129e-29)
(-6.37388e-29 -1.18667e-18 -6.37388e-29)
(-8.56642e-30 -1.59487e-19 -8.56642e-30)
(-1.13676e-31 -2.11639e-21 -1.13676e-31)
(-8.7317e-31 -1.62565e-20 -8.73171e-31)
(-8.82593e-31 -1.64319e-20 -8.82594e-31)
(-1.30516e-31 -2.42992e-21 -1.30516e-31)
(-8.7933e-30 -1.63711e-19 -8.7933e-30)
(-6.46927e-29 -1.20443e-18 -6.46927e-29)
(-6.41028e-29 -1.19345e-18 -6.41028e-29)
(-7.84805e-30 -1.46113e-19 -7.84806e-30)
(-5.71235e-28 -1.06351e-17 -5.71235e-28)
(-4.67227e-27 -8.69871e-17 -4.67227e-27)
(-4.64006e-27 -8.63875e-17 -4.64006e-27)
(-5.1982e-28 -9.67787e-18 -5.1982e-28)
(-3.72066e-26 -6.92704e-16 -3.72066e-26)
(-3.42125e-25 -6.36959e-15 -3.42125e-25)
(-3.40423e-25 -6.33791e-15 -3.40423e-25)
(-3.44982e-26 -6.42279e-16 -3.44982e-26)
(-2.38594e-24 -4.44208e-14 -2.38594e-24)
(-2.50578e-23 -4.66521e-13 -2.50578e-23)
(-2.49739e-23 -4.64958e-13 -2.49739e-23)
(-2.25278e-24 -4.19418e-14 -2.25278e-24)
(-1.49906e-22 -2.79091e-12 -1.49906e-22)
(-1.83574e-21 -3.41774e-11 -1.83575e-21)
(-1.83202e-21 -3.41082e-11 -1.83202e-21)
(-1.44015e-22 -2.68123e-12 -1.44015e-22)
(-9.15852e-21 -1.70511e-10 -9.15852e-21)
(-1.34524e-19 -2.50453e-09 -1.34524e-19)
(-1.34387e-19 -2.50198e-09 -1.34387e-19)
(-8.94136e-21 -1.66468e-10 -8.94136e-21)
(-5.37266e-19 -1.00027e-08 -5.37266e-19)
(-9.86085e-18 -1.83587e-07 -9.86085e-18)
(-9.85749e-18 -1.83524e-07 -9.8575e-18)
(-5.31931e-19 -9.90336e-09 -5.31931e-19)
(-2.95541e-17 -5.50231e-07 -2.95541e-17)
(-7.23046e-16 -1.34615e-05 -7.23046e-16)
(-7.23048e-16 -1.34615e-05 -7.23048e-16)
(-2.95543e-17 -5.50234e-07 -2.95543e-17)
(-1.44543e-15 -2.69106e-05 -1.44543e-15)
(-5.30351e-14 -0.000987395 -5.30351e-14)
(-5.30351e-14 -0.000987395 -5.30351e-14)
(-1.44543e-15 -2.69107e-05 -1.44543e-15)
(-5.3035e-14 -0.000987392 -5.3035e-14)
(-3.89115e-12 -0.0724446 -3.89116e-12)
(-3.89115e-12 -0.0724446 -3.89116e-12)
(-5.30351e-14 -0.000987395 -5.30351e-14)
(-1.44544e-15 -2.69108e-05 -1.44544e-15)
(-5.30351e-14 -0.000987394 -5.30351e-14)
(-5.30349e-14 -0.00098739 -5.30349e-14)
(-1.44545e-15 -2.6911e-05 -1.44545e-15)
(-2.95352e-17 -5.49878e-07 -2.95352e-17)
(-7.22914e-16 -1.3459e-05 -7.22915e-16)
(-7.22786e-16 -1.34566e-05 -7.22786e-16)
(-2.95407e-17 -5.49981e-07 -2.95407e-17)
(-5.34646e-19 -9.9539e-09 -5.34646e-19)
(-9.85733e-18 -1.83521e-07 -9.85733e-18)
(-9.85417e-18 -1.83463e-07 -9.85418e-18)
(-5.36796e-19 -9.99394e-09 -5.36796e-19)
(-9.06032e-21 -1.68683e-10 -9.06032e-21)
(-1.34453e-19 -2.50322e-09 -1.34453e-19)
(-1.34398e-19 -2.50218e-09 -1.34398e-19)
(-9.14711e-21 -1.70299e-10 -9.14711e-21)
(-1.47283e-22 -2.74207e-12 -1.47283e-22)
(-1.83448e-21 -3.41539e-11 -1.83448e-21)
(-1.83368e-21 -3.4139e-11 -1.83368e-21)
(-1.49672e-22 -2.78655e-12 -1.49672e-22)
(-2.32651e-24 -4.33144e-14 -2.32651e-24)
(-2.50367e-23 -4.66127e-13 -2.50367e-23)
(-2.50272e-23 -4.6595e-13 -2.50272e-23)
(-2.3816e-24 -4.43401e-14 -2.38161e-24)
(-3.59868e-26 -6.69994e-16 -3.59869e-26)
(-3.41784e-25 -6.36325e-15 -3.41784e-25)
(-3.41708e-25 -6.36183e-15 -3.41708e-25)
(-3.71322e-26 -6.91318e-16 -3.71322e-26)
(-5.47795e-28 -1.01987e-17 -5.47795e-28)
(-4.66692e-27 -8.68875e-17 -4.66692e-27)
(-4.66713e-27 -8.68915e-17 -4.66714e-27)
(-5.70029e-28 -1.06127e-17 -5.70029e-28)
(-8.2337e-30 -1.53293e-19 -8.23371e-30)
(-6.37388e-29 -1.18667e-18 -6.37388e-29)
(-6.37668e-29 -1.1872e-18 -6.37669e-29)
(-8.64475e-30 -1.60946e-19 -8.64475e-30)
(-1.24326e-31 -2.31468e-21 -1.24326e-31)
(-8.82593e-31 -1.64319e-20 -8.82594e-31)
(-8.83451e-31 -1.64479e-20 -8.83451e-31)
(-1.31755e-31 -2.45297e-21 -1.31755e-31)
(-1.25021e-30 -2.32761e-20 -1.25021e-30)
(-8.38338e-30 -1.5608e-19 -8.38338e-30)
(-7.84805e-30 -1.46113e-19 -7.84806e-30)
(-6.05432e-31 -1.12718e-20 -6.05432e-31)
(-7.43517e-29 -1.38426e-18 -7.43517e-29)
(-5.49336e-28 -1.02274e-17 -5.49336e-28)
(-5.1982e-28 -9.67787e-18 -5.1982e-28)
(-3.92186e-29 -7.30162e-19 -3.92186e-29)
(-4.3934e-27 -8.17953e-17 -4.39341e-27)
(-3.60733e-26 -6.71605e-16 -3.60734e-26)
(-3.44982e-26 -6.42279e-16 -3.44982e-26)
(-2.53951e-27 -4.72799e-17 -2.53951e-27)
(-2.52359e-25 -4.69835e-15 -2.52359e-25)
(-2.33117e-24 -4.34012e-14 -2.33117e-24)
(-2.25278e-24 -4.19418e-14 -2.25278e-24)
(-1.61078e-25 -2.99892e-15 -1.61078e-25)
(-1.39753e-23 -2.60189e-13 -1.39753e-23)
(-1.4752e-22 -2.74648e-12 -1.4752e-22)
(-1.44015e-22 -2.68123e-12 -1.44015e-22)
(-9.93241e-24 -1.84919e-13 -9.93241e-24)
(-7.3689e-22 -1.37192e-11 -7.3689e-22)
(-9.07135e-21 -1.68888e-10 -9.07135e-21)
(-8.94136e-21 -1.66468e-10 -8.94136e-21)
(-5.87851e-22 -1.09445e-11 -5.87851e-22)
(-3.625e-20 -6.74894e-10 -3.62501e-20)
(-5.35087e-19 -9.96211e-09 -5.35087e-19)
(-5.31931e-19 -9.90336e-09 -5.31931e-19)
(-3.26049e-20 -6.0703e-10 -3.26049e-20)
(-1.60387e-18 -2.98604e-08 -1.60387e-18)
(-2.95477e-17 -5.50112e-07 -2.95477e-17)
(-2.95543e-17 -5.50234e-07 -2.95543e-17)
(-1.60583e-18 -2.9897e-08 -1.60583e-18)
(-5.90585e-17 -1.09954e-06 -5.90585e-17)
(-1.44543e-15 -2.69107e-05 -1.44543e-15)
(-1.44543e-15 -2.69107e-05 -1.44543e-15)
(-5.90659e-17 -1.09967e-06 -5.9066e-17)
(-1.44516e-15 -2.69055e-05 -1.44516e-15)
(-5.3035e-14 -0.000987392 -5.3035e-14)
(-5.30351e-14 -0.000987395 -5.30351e-14)
(-1.4453e-15 -2.69082e-05 -1.4453e-15)
(-5.90482e-17 -1.09934e-06 -5.90482e-17)
(-1.44557e-15 -2.69133e-05 -1.44557e-15)
(-1.44545e-15 -2.6911e-05 -1.44545e-15)
(-5.90556e-17 -1.09948e-06 -5.90556e-17)
(-1.46936e-18 -2.73562e-08 -1.46936e-18)
(-2.9422e-17 -5.47771e-07 -2.9422e-17)
(-2.95407e-17 -5.49981e-07 -2.95407e-17)
(-1.60897e-18 -2.99554e-08 -1.60897e-18)
(-3.2605e-20 -6.07031e-10 -3.2605e-20)
(-5.33616e-19 -9.93473e-09 -5.33616e-19)
(-5.36796e-19 -9.99394e-09 -5.36796e-19)
(-3.65345e-20 -6.80191e-10 -3.65345e-20)
(-6.62745e-22 -1.23388e-11 -6.62745e-22)
(-9.08331e-21 -1.69111e-10 -9.08331e-21)
(-9.14711e-21 -1.70299e-10 -9.14711e-21)
(-7.46718e-22 -1.39022e-11 -7.46719e-22)
(-1.26339e-23 -2.35214e-13 -1.26339e-23)
(-1.4853e-22 -2.7653e-12 -1.48531e-22)
(-1.49672e-22 -2.78655e-12 -1.49672e-22)
(-1.42463e-23 -2.65234e-13 -1.42463e-23)
(-2.29593e-25 -4.27451e-15 -2.29593e-25)
(-2.36237e-24 -4.39821e-14 -2.36238e-24)
(-2.3816e-24 -4.43401e-14 -2.38161e-24)
(-2.58888e-25 -4.81992e-15 -2.58888e-25)
(-4.02229e-27 -7.4886e-17 -4.02229e-27)
(-3.68193e-26 -6.85493e-16 -3.68193e-26)
(-3.71322e-26 -6.91318e-16 -3.71322e-26)
(-4.53715e-27 -8.44714e-17 -4.53715e-27)
(-6.84665e-29 -1.27469e-18 -6.84665e-29)
(-5.65046e-28 -1.05199e-17 -5.65046e-28)
(-5.70029e-28 -1.06127e-17 -5.70029e-28)
(-7.73165e-29 -1.43946e-18 -7.73165e-29)
(-1.13872e-30 -2.12004e-20 -1.13872e-30)
(-8.56642e-30 -1.59487e-19 -8.56642e-30)
(-8.64475e-30 -1.60946e-19 -8.64475e-30)
(-1.28842e-30 -2.39874e-20 -1.28842e-30)
(-1.88859e-32 -3.51613e-22 -1.88859e-32)
(-1.30516e-31 -2.42992e-21 -1.30516e-31)
(-1.31755e-31 -2.45297e-21 -1.31755e-31)
(-2.14223e-32 -3.98835e-22 -2.14223e-32)
)
;

boundaryField
{
    inlet
    {
        type            zeroGradient;
    }
    outlet
    {
        type            zeroGradient;
    }
    walls
    {
        type            zeroGradient;
    }
}


// ************************************************************************* //
