/*--------------------------------*- C++ -*----------------------------------*\
| =========                 |                                                 |
| \\      /  F ield         | OpenFOAM: The Open Source CFD Toolbox           |
|  \\    /   O peration     | Version:  5.x                                   |
|   \\  /    A nd           | Web:      www.OpenFOAM.org                      |
|    \\/     M anipulation  |                                                 |
\*---------------------------------------------------------------------------*/
FoamFile
{
    version     2.0;
    format      ascii;
    class       volScalarField;
    location    "0.042";
    object      interFace;
}
// * * * * * * * * * * * * * * * * * * * * * * * * * * * * * * * * * * * * * //

dimensions      [0 0 0 0 0 0 0];

internalField   nonuniform List<scalar> 
1595
(
0
0
0
0
0
0
0
0
0
0
0
0
0
0
0
0
0
0
0
0
0
0
0
0
0
0
0
0
0
0
0
0
0
0
0
0
0
0
0
0
0
0
0
0
0
0
0
0
0
0
0
0
0
0
0
0
0
0
0
0
0
0
0
0
0
0
0
0
0
0
0
0
0
0
0
0
0
0
0
0
0
0
0
0
0
0
0
0
0
0
0
0
0
0
0
0
0
0
0
0
0
0
0
0
0
0
0
0
0
0
0
0
0
0
0
0
0
0
0
0
0
0
0
0
0
0
0
0
0
0
0
0
0
0
0
0
0
0
0
0
0
0
0
0
0
0
0
0
0
0
0
0
0
0
0
0
0
0
0
0
0
0
0
0
0
0
0
0
0
0
0
0
0
0
0
0
0
0
0
0
0
0
0
0
0
0
0
0
0
0
0
0
0
0
0
0
0
0
0
0
0
0
0
0
0
0
0
0
0
0
0
0
0
0
0
0
0
0
0
0
0
0
0
0
0
0
0
0
0
0
0
0
0
0
0
0
0
0
0
0
0
0
0
0
0
0
0
0
0
0
0
0
0
0
0
0
0
0
0
0
0
0
0
0
0
0
0
0
0
0
0
0
0
0
0
0
0
0
0
0
0
0
0
0
0
0
0
0
0
0
0
0
0
0
0
0
0
0
0
0
0
0
0
0
0
0
0
0
0
0
0
0
0
0
0
0
0
0
0
0
0
0
0
0
0
0
0
0
0
0
0
0
0
0
0
0
0
0
0
0
0
0
0
0
0
0
0
0
0
0
0
0
0
0
0
0
0
0
0
0
0
0
0
0
0
0
0
0
0
0
0
0
0
0
0
0
0
0
0
0
0
0
0
0
0
0
0
0
0
0
0
0
0
0
0
0
0
0
0
0
0
0
0
0
0
0
0
0
0
0
0
0
0
0
0
0
0
0
0
0
0
0
0
0
0
0
0
0
0
0
0
0
0
0
0
0
0
0
0
0
0
0
0
0
0
0
0
0
0
0
0
0
0
0
0
0
0
0
0
0
0
0
0
0
0
0
0
0
0
0
0
0
0
0
0
0
0
0
0
0
0
0
0
0
0
0
0
0
0
0
0
0
0
0
0
0
0
0
0
0
0
0
0
0
0
0
0
0
0
0
0
0
0
0
0
0
0
0
0
0
0
0
0
0
0
0
0
0
0
0
0
0
0
0
0
0
0
0
0
0
0
0
0
0
0
0
0
0
0
0
0
0
0
0
0
0
0
0
0
0
0
0
0
0
0
0
0
0
0
0
0
0
0
0
0
0
0
0
0
0
0
0
0
0
0
0
0
0
0
0
0
0
0
0
0
0
0
0
0
0
0
0
0
0
0
0
0
0
0
0
0
0
0
0
0
0
0
0
0
0
0
0
0
0
0
0
0
0
0
0
0
0
0
0
0
0
0
0
0
0
0
0
0
0
0
0
0
0
0
0
0
0
0
0
0
0
0
0
0
0
0
0
0
0
0
0
0
0
0
0
0
0
0
0
0
0
0
0
0
0
0
0
0
0
0
0
0
0
0
0
0
0
0
0
0
0
0
0
0
0
0
0
0
0
0
0
0
0
0
0
0
0
0
0
0
0
0
0
0
0
0
0
0
0
0
0
0
0
0
0
0
0
0
0
0
0
0
0
0
0
0
0
0
0
0
0.542919
0.953641
0
0
0
0
0
0
0
0
0
0
0
0
0
0
0
0
0
0
0
0
0
0
0
0.287521
0.735761
0
0
0
0
0
0
0
0
0
0
0
0
0
0
0
0
0
0
0
0
0
0
0
0.749251
0
0
0
0
0
0
0
0
0
0
0
0
0
0
0
0
0
0
0
0
0
0
0
0
0.832945
0
0
0
0
0
0
0
0
0
0
0
0
0
0
0
0
0
0
0
0
0
0
0
0
0.301043
0.749293
0
0
0
0
0
0
0
0
0
0
0
0
0
0
0
0
0
0
0
0
0
0
0
0.486269
0
0
0
0
0
0
0
0
0
0
0
0
0
0
0
0
0
0
0
0
0
0
0
0
0
0
0
0
0
0
0
0
0
0
0
0
0
0
0
0
0
0
0
0
0
0
0
0
0
0
0
0
0
0
0
0
0
0
0
0
0
0
0
0
0
0
0
0
0
0
0
0
0
0
0
0
0
0
0
0
0
0
0
0
0
0
0
0
0
0
0
0
0
0
0
0
0
0
0
0
0
0
0
0
0
0
0
0
0
0
0
0
0
0
0
0
0
0
0
0
0
0
0
0
0
0
0
0
0
0
0.466794
0.735743
0
0
0.745861
0.973893
0.55647
0.0186256
0.287575
0.566588
0.835537
0.297693
0.566642
0
0.466866
0
0.973929
0
0.745933
0
0
0
0
0
0
0
0
0.980674
0.480356
0.749306
0
0
0.98202
0
0
0
0
0
0
0
0
0.85053
0.564056
0.833013
0.366787
0.635745
0.0978987
0.366856
0
0.480313
0.74927
0
0
0.552002
0.820959
0.57
0.0321539
0.301111
0.372731
0.641689
0.103843
0.3728
0
0.480405
0
0.820982
0
0.552093
0
0
0.862372
0
0
0
0
0
0.755226
0.21738
0.486337
0.910188
0
0.730929
0.910234
0
0.862464
0
0
0
0
0
0.887112
0.794081
0.614799
0.976735
0.659628
0
0.842283
0.555009
0.531101
0.351819
0.644627
0.396651
0.689459
0.510177
0.339122
0.428745
0.611417
0.432136
0.473574
0.476965
0.294293
0.428772
0.697695
0.701067
0.701085
0.563224
0.563242
0.566615
0.24949
0.15985
0.342504
0.342522
0.387333
0.204661
0.204679
0.33914
0.428799
0.611453
0.432172
0.473611
0.476983
0.294329
0.797481
0.525167
0.525185
0.70784
0.569997
0.752651
0.752669
0.88713
0.794117
0.614835
0.97679
0.659646
0
0.842319
0.214396
0.304015
0.417563
0.238281
0.348846
0.283113
0.169565
0.124767
0.035126
0.148652
0.148675
0.193484
0.079935
0.0799578
0.214419
0.304083
0.417609
0.238327
0.348892
0.283136
0.16961
0.644661
0.620753
0.620776
0.913584
0.486303
0.779111
0.779134
0.465379
0.262189
0.262212
0.375738
0.307021
0.420547
0.42057
0.555031
0.531146
0.351864
0.644695
0.396673
0.689504
0.510222
0.811869
0.274024
0.542973
0.28414
0.553089
0.0152443
0.284194
0.156468
0.0634368
0.0634549
0.0668274
0.108266
0.111639
0.111657
0.2461
0.33235
0.153069
0.335723
0.197898
0.380552
0.20127
0.87694
0.608018
0.969954
0.79069
0.652847
0
0.832111
0.246118
0.332386
0.153105
0.335777
0.197916
0.380588
0.201307
0.877013
0.60809
0.790744
0.970045
0.652901
0
0.832202
0.304049
0.572972
0.507216
0.507239
0.438499
0.438522
0.372766
0.33575
0.422
0.422018
0.604672
0.287548
0.470202
0.47022
0.100871
0.0769629
0.0769858
0.0112297
0.121795
0.0560387
0.0560615
0
0
0
0
0
0
0
0.1905
0.345874
0.166592
0.280118
0.211424
0.32495
0.145668
0.752208
0.483285
0.776093
0.596834
0.528117
0.820925
0.707376
0.190523
0.34592
0.166638
0.280187
0.211447
0.324996
0.145714
0.7523
0.483377
0.596902
0.776207
0.528186
0.821016
0.707491
0.0600555
0.0600737
0.104885
0.146324
0.0566836
0.101495
0.101513
0
0.722192
0.953605
0
0
0.463412
0.732362
0
0.722264
0
0.73238
0
0.463485
0
0.783918
0.690887
0.511623
0.514995
0.735716
0.559825
0.739089
0.783991
0.511677
0.690978
0.515068
0.735789
0.559879
0.739179
0.328969
0.149687
0.194517
0.235956
0.325579
0.370408
0.191127
0.329005
0.149724
0.194535
0.235974
0.325633
0.370444
0.191163
0.280152
0.435527
0.43555
0.549076
0.301077
0.414603
0.414625
0.418619
0.418637
0.284166
0.325606
0.594528
0.460058
0.460076
0
0
0
0
0
0
0
0.841861
0.752242
0
0.686486
0.976334
0.61777
0.910578
0.841929
0.752265
0
0.686532
0.976379
0.617815
0.910646
0.298105
0.208464
0.142708
0.142731
0.18754
0.253273
0.253296
0.873622
0.959873
0.601309
0.783963
0.825421
0
0.649511
0.873568
0.959837
0.601273
0.783945
0.825366
0
0.649475
0
0
0
0
0
0.546058
0.898299
0
0
0
0.898345
0
0.546149
0
0.387734
0.477353
0.411619
0.232337
0.522184
0.277169
0.342903
0.387757
0.477421
0.411665
0.232383
0.52223
0.277192
0.342948
0.728312
0.704404
0.525145
0.459389
0.749236
0.504221
0.68348
0.728403
0.525214
0.704519
0.45948
0.749328
0.504289
0.683594
0
0
0
0.767561
0.946861
0.449925
0.767598
0.232584
0.318835
0.318853
0.142943
0.363664
0.187755
0.187773
0.322216
0.587748
0.408467
0.411839
0.453296
0.456668
0.277386
0.322234
0.587785
0.408503
0.411893
0.453314
0.456704
0.277423
0.687506
0.508242
0.732335
0.504852
0.549681
0.773774
0.728945
0.508296
0.687596
0.732408
0.504924
0.549735
0.773847
0.729036
0.477387
0.74631
0.501272
0.501294
0.611837
0.61186
0.366821
0.411866
0.677398
0.677416
0.680788
0.542946
0.546318
0.546336
0.818033
0.973407
0.614843
0.728369
0.838957
0.952483
0.593919
0.817964
0.973362
0.614797
0.728346
0.838889
0.952437
0.593873
0.453491
0.608865
0.608888
0.36385
0.653697
0.408659
0.408682
0
0
0
0
0
0
0
0.956455
0.597892
0.821985
0.773801
0.639331
0.863424
0.997895
0.956492
0.597928
0.822039
0.773819
0.639367
0.863479
0.997931
0.656623
0.770149
0.59089
0.701455
0.814981
0.925546
0.880714
0.656715
0.590958
0.770263
0.701524
0.815072
0.925638
0.880829
0.54312
0.877777
0.698495
0.632738
0.743327
0.67757
0.498288
0.543143
0.877822
0.69854
0.632807
0.743349
0.677616
0.498334
0.494736
0.494754
0.539565
0.760287
0.670646
0.715457
0.715475
0
0
0
0
0
0
0
0
0
0
0
0
0
0
0.767021
0.591111
0.635941
0.860034
0.946285
0.991115
0.815205
0.767076
0.591184
0.635995
0.860107
0.946376
0.991187
0.815295
)
;

boundaryField
{
    inlet
    {
        type            calculated;
        value           uniform 0;
    }
    wall
    {
        type            calculated;
        value           uniform 0;
    }
    outlet
    {
        type            calculated;
        value           uniform 0;
    }
    procBoundary1to0
    {
        type            processor;
        value           uniform 0;
    }
    procBoundary1to3
    {
        type            processor;
        value           uniform 0;
    }
}


// ************************************************************************* //
