/*--------------------------------*- C++ -*----------------------------------*\
| =========                 |                                                 |
| \\      /  F ield         | OpenFOAM: The Open Source CFD Toolbox           |
|  \\    /   O peration     | Version:  5.x                                   |
|   \\  /    A nd           | Web:      www.OpenFOAM.org                      |
|    \\/     M anipulation  |                                                 |
\*---------------------------------------------------------------------------*/
FoamFile
{
    version     2.0;
    format      ascii;
    class       volVectorField;
    location    "0.042";
    object      U;
}
// * * * * * * * * * * * * * * * * * * * * * * * * * * * * * * * * * * * * * //

dimensions      [0 1 -1 0 0 0 0];

internalField   nonuniform List<vector> 
1595
(
(-5.98697e-08 -7.24902e-06 0.000912386)
(3.86093e-06 -7.26625e-06 0.000911603)
(3.86422e-06 -7.22738e-06 0.000913402)
(6.51122e-06 -7.22482e-06 0.000911761)
(6.70727e-06 -7.154e-06 0.000915479)
(-1.38355e-07 -7.17575e-06 0.000908195)
(3.88161e-06 -7.20897e-06 0.000907438)
(3.90419e-06 -7.17405e-06 0.000909309)
(6.58256e-06 -7.17745e-06 0.00090768)
(6.77808e-06 -7.10021e-06 0.000911467)
(-2.01545e-07 -4.43808e-06 0.000909857)
(3.86257e-06 -4.4665e-06 0.000909094)
(3.8957e-06 -4.4412e-06 0.000910982)
(6.58504e-06 -4.4465e-06 0.000909342)
(6.78664e-06 -4.39083e-06 0.00091314)
(-2.34981e-07 -4.45788e-06 0.00090769)
(3.87848e-06 -4.48555e-06 0.000906949)
(3.92419e-06 -4.46107e-06 0.000908883)
(6.63294e-06 -4.46699e-06 0.00090725)
(6.83535e-06 -4.41445e-06 0.000911088)
(-2.74832e-07 -3.01211e-07 0.000908441)
(3.85938e-06 -3.2236e-07 0.000907691)
(3.91426e-06 -3.13864e-07 0.000909638)
(6.63167e-06 -3.22039e-07 0.000907997)
(6.84074e-06 -3.01575e-07 0.000911843)
(-1.81635e-07 -3.29824e-06 -0.000159062)
(2.01232e-06 -3.26906e-06 -0.0001588)
(2.64518e-06 -3.20745e-06 -0.000158352)
(3.73335e-06 -3.19098e-06 -0.000157794)
(2.84091e-06 -3.14312e-06 -0.000157224)
(-1.64748e-08 -4.47123e-06 -0.000159602)
(2.10033e-06 -4.42818e-06 -0.000159336)
(2.7211e-06 -4.35266e-06 -0.000158886)
(3.79596e-06 -4.32904e-06 -0.000158324)
(2.88877e-06 -4.27157e-06 -0.000157745)
(4.71321e-08 -3.45054e-06 -0.000160203)
(2.13081e-06 -3.41854e-06 -0.000159929)
(2.74427e-06 -3.3643e-06 -0.000159476)
(3.81442e-06 -3.3463e-06 -0.000158911)
(2.89989e-06 -3.30277e-06 -0.000158329)
(1.35558e-07 -2.96109e-06 -0.000160638)
(2.18656e-06 -2.93071e-06 -0.000160362)
(2.79333e-06 -2.88041e-06 -0.000159911)
(3.85751e-06 -2.86324e-06 -0.000159344)
(2.93351e-06 -2.82253e-06 -0.000158759)
(1.82903e-07 -9.77946e-07 -0.00016096)
(2.21149e-06 -9.49762e-07 -0.00016068)
(2.81175e-06 -9.22522e-07 -0.000160227)
(3.87231e-06 -9.10258e-07 -0.000159659)
(2.94174e-06 -8.94465e-07 -0.000159073)
(1.55077e-07 -7.9166e-06 0.000518107)
(4.64138e-06 -7.92841e-06 0.000518036)
(4.95747e-06 -7.88658e-06 0.000520701)
(7.76129e-06 -7.88016e-06 0.000520589)
(7.39869e-06 -7.79898e-06 0.000525055)
(1.00925e-07 -8.44863e-06 0.000513326)
(4.6703e-06 -8.46949e-06 0.00051326)
(5.00419e-06 -8.42783e-06 0.000515975)
(7.84655e-06 -8.42427e-06 0.000515876)
(7.47986e-06 -8.33402e-06 0.000520424)
(7.17696e-08 -5.57067e-06 0.000513398)
(4.66213e-06 -5.59029e-06 0.000513324)
(5.00265e-06 -5.56245e-06 0.000516045)
(7.85508e-06 -5.56281e-06 0.000515942)
(7.49134e-06 -5.4996e-06 0.000520503)
(3.71422e-08 -5.29724e-06 0.000510501)
(4.67852e-06 -5.31835e-06 0.000510432)
(5.03168e-06 -5.29397e-06 0.000513186)
(7.90941e-06 -5.29591e-06 0.000513092)
(7.5448e-06 -5.23845e-06 0.000517705)
(1.14932e-08 -6.40098e-07 0.000510528)
(4.6654e-06 -6.58664e-07 0.000510452)
(5.02508e-06 -6.57714e-07 0.00051321)
(7.91061e-06 -6.64407e-07 0.000513113)
(7.55041e-06 -6.51338e-07 0.000517734)
(-2.39624e-07 -8.20012e-06 0.000165245)
(4.60793e-06 -8.16642e-06 0.000165487)
(5.19986e-06 -8.05389e-06 0.000168233)
(8.08971e-06 -8.02412e-06 0.000168797)
(7.42309e-06 -7.89277e-06 0.000173229)
(-1.02437e-07 -9.18205e-06 0.00016054)
(4.75018e-06 -9.14185e-06 0.000160799)
(5.33845e-06 -9.0119e-06 0.000163609)
(8.24684e-06 -8.97868e-06 0.000164193)
(7.55445e-06 -8.82617e-06 0.000168721)
(-7.25477e-08 -6.27714e-06 0.000159865)
(4.77801e-06 -6.2474e-06 0.00016013)
(5.36297e-06 -6.15427e-06 0.000162954)
(8.27542e-06 -6.13173e-06 0.000163543)
(7.57941e-06 -6.02263e-06 0.00016809)
(1.75168e-08 -5.83266e-06 0.000156894)
(4.87305e-06 -5.80376e-06 0.000157171)
(5.45413e-06 -5.71546e-06 0.000160036)
(8.37851e-06 -5.69366e-06 0.000160639)
(7.66636e-06 -5.59269e-06 0.000165245)
(4.37092e-08 -1.009e-06 0.000156507)
(4.89522e-06 -9.91383e-07 0.000156789)
(5.47306e-06 -9.54576e-07 0.000159663)
(8.39821e-06 -9.44849e-07 0.000160269)
(7.68299e-06 -9.14564e-07 0.000164885)
(2.97224e-07 -1.27535e-05 0.000297762)
(7.62948e-06 -1.27479e-05 0.000298071)
(8.2666e-06 -1.26409e-05 0.000302884)
(1.27582e-05 -1.2613e-05 0.000303541)
(1.19587e-05 -1.24346e-05 0.000311318)
(2.81933e-07 -1.38303e-05 0.000289507)
(7.73928e-06 -1.38283e-05 0.000289827)
(8.3981e-06 -1.37078e-05 0.000294745)
(1.29597e-05 -1.36791e-05 0.000295433)
(1.21371e-05 -1.34743e-05 0.000303395)
(2.68468e-07 -9.21685e-06 0.000288739)
(7.75197e-06 -9.2186e-06 0.000289054)
(8.41583e-06 -9.13495e-06 0.000293987)
(1.29917e-05 -9.11703e-06 0.000294672)
(1.21682e-05 -8.97527e-06 0.000302667)
(2.54916e-07 -8.6549e-06 0.000283608)
(7.82118e-06 -8.65918e-06 0.000283927)
(8.49968e-06 -8.58492e-06 0.000288923)
(1.31194e-05 -8.56973e-06 0.000289625)
(1.22823e-05 -8.44287e-06 0.000297735)
(2.36715e-07 -1.07409e-06 0.000283186)
(7.82195e-06 -1.08975e-06 0.000283502)
(8.50528e-06 -1.08293e-06 0.000288505)
(1.31338e-05 -1.08652e-06 0.000289205)
(1.22982e-05 -1.0669e-06 0.000297331)
(9.5968e-08 -1.66766e-05 0.000290604)
(9.73057e-06 -1.66326e-05 0.000291088)
(1.067e-05 -1.64125e-05 0.000297346)
(1.65256e-05 -1.63511e-05 0.000298414)
(1.54128e-05 -1.60297e-05 0.000308543)
(2.02675e-07 -1.82066e-05 0.000279736)
(9.98814e-06 -1.81615e-05 0.000280255)
(1.09446e-05 -1.79115e-05 0.000286699)
(1.6899e-05 -1.78496e-05 0.000287826)
(1.57341e-05 -1.74793e-05 0.000298238)
(2.16593e-07 -1.21767e-05 0.000278434)
(1.00256e-05 -1.21468e-05 0.000278961)
(1.09818e-05 -1.1976e-05 0.000285446)
(1.69578e-05 -1.19392e-05 0.000286583)
(1.57924e-05 -1.16827e-05 0.000297052)
(2.89755e-07 -1.13864e-05 0.000271605)
(1.01888e-05 -1.13558e-05 0.000272158)
(1.11522e-05 -1.1197e-05 0.000278775)
(1.71923e-05 -1.11616e-05 0.000279953)
(1.59969e-05 -1.09288e-05 0.000290604)
(3.00592e-07 -1.49227e-06 0.000270865)
(1.0215e-05 -1.4862e-06 0.000271425)
(1.1176e-05 -1.44482e-06 0.000278066)
(1.7226e-05 -1.43938e-06 0.00027925)
(1.60308e-05 -1.39161e-06 0.000289933)
(6.6348e-07 -2.39238e-05 0.000221963)
(1.43714e-05 -2.3882e-05 0.000222732)
(1.55927e-05 -2.3585e-05 0.00023198)
(2.3959e-05 -2.34972e-05 0.000233575)
(2.23779e-05 -2.30306e-05 0.000248487)
(6.94255e-07 -2.60032e-05 0.000205931)
(1.47025e-05 -2.59579e-05 0.000206741)
(1.59689e-05 -2.56101e-05 0.000216284)
(2.45015e-05 -2.55132e-05 0.000217966)
(2.28445e-05 -2.49689e-05 0.000233376)
(6.9226e-07 -1.73476e-05 0.000204099)
(1.47643e-05 -1.73154e-05 0.000204898)
(1.60374e-05 -1.70592e-05 0.000214482)
(2.46002e-05 -1.69904e-05 0.000216159)
(2.29341e-05 -1.66088e-05 0.000231657)
(7.0982e-07 -1.62233e-05 0.000194165)
(1.4991e-05 -1.61949e-05 0.000194979)
(1.62938e-05 -1.59654e-05 0.000204712)
(2.4952e-05 -1.59021e-05 0.000206428)
(2.32348e-05 -1.55615e-05 0.00022223)
(6.96035e-07 -1.90582e-06 0.000193168)
(1.50222e-05 -1.91888e-06 0.000193976)
(1.63302e-05 -1.89072e-06 0.000203727)
(2.50041e-05 -1.88802e-06 0.000205433)
(2.32824e-05 -1.83965e-06 0.000221282)
(8.43077e-07 -3.31523e-05 0.000297399)
(1.97476e-05 -3.30657e-05 0.000298461)
(2.15139e-05 -3.25434e-05 0.000311056)
(3.30365e-05 -3.23937e-05 0.000313266)
(3.0745e-05 -3.15618e-05 0.000333638)
(9.62119e-07 -3.60755e-05 0.000275182)
(2.03417e-05 -3.60001e-05 0.000276335)
(2.21693e-05 -3.54142e-05 0.000289452)
(3.39955e-05 -3.52711e-05 0.000291829)
(3.1577e-05 -3.43132e-05 0.000312973)
(9.58865e-07 -2.39428e-05 0.000272453)
(2.04088e-05 -2.39092e-05 0.00027363)
(2.22426e-05 -2.3549e-05 0.000286866)
(3.41374e-05 -2.34765e-05 0.000289267)
(3.17254e-05 -2.28289e-05 0.000310576)
(1.02725e-06 -2.23172e-05 0.000258432)
(2.07355e-05 -2.22773e-05 0.000259671)
(2.2602e-05 -2.19523e-05 0.00027333)
(3.47158e-05 -2.18877e-05 0.000275852)
(3.22408e-05 -2.13044e-05 0.000297682)
(1.02201e-06 -2.58231e-06 0.0002569)
(2.07737e-05 -2.58973e-06 0.000258147)
(2.26323e-05 -2.53607e-06 0.000271867)
(3.47855e-05 -2.54451e-06 0.000274413)
(3.23231e-05 -2.45117e-06 0.000296332)
(1.58014e-06 -4.6769e-05 0.0002174)
(2.80282e-05 -4.66339e-05 0.000219071)
(3.03982e-05 -4.58049e-05 0.000237091)
(4.65481e-05 -4.55471e-05 0.0002405)
(4.33439e-05 -4.42919e-05 0.000269592)
(1.70239e-06 -5.09548e-05 0.00018547)
(2.89727e-05 -5.07951e-05 0.000187281)
(3.14625e-05 -4.98059e-05 0.000206099)
(4.80282e-05 -4.95181e-05 0.000209749)
(4.45992e-05 -4.8038e-05 0.000240184)
(1.72325e-06 -3.40979e-05 0.000181561)
(2.91769e-05 -3.398e-05 0.000183321)
(3.1675e-05 -3.31819e-05 0.000202244)
(4.83159e-05 -3.29672e-05 0.000205891)
(4.48569e-05 -3.19001e-05 0.000236569)
(1.80254e-06 -3.17768e-05 0.00016206)
(2.98887e-05 -3.16777e-05 0.000163856)
(3.24754e-05 -3.09648e-05 0.000183022)
(4.93102e-05 -3.07563e-05 0.000186769)
(4.56887e-05 -2.98049e-05 0.000218254)
(1.79314e-06 -3.59418e-06 0.000159957)
(2.9989e-05 -3.60062e-06 0.00016175)
(3.25964e-05 -3.51465e-06 0.000180955)
(4.9476e-05 -3.48915e-06 0.000184647)
(4.5828e-05 -3.35388e-06 0.000216278)
(2.41634e-06 -6.59839e-05 0.000238487)
(3.9439e-05 -6.57539e-05 0.000240823)
(4.29439e-05 -6.44143e-05 0.000265349)
(6.55467e-05 -6.40171e-05 0.000269957)
(6.06757e-05 -6.18102e-05 0.000309695)
(2.65651e-06 -7.19241e-05 0.000194062)
(4.09707e-05 -7.17595e-05 0.000196635)
(4.46376e-05 -7.02709e-05 0.000222626)
(6.80904e-05 -6.98904e-05 0.000227687)
(6.28826e-05 -6.73449e-05 0.000269494)
(2.59914e-06 -4.73528e-05 0.000188284)
(4.10918e-05 -4.73339e-05 0.000190949)
(4.48125e-05 -4.66263e-05 0.000217285)
(6.84727e-05 -4.64564e-05 0.000222344)
(6.32816e-05 -4.47591e-05 0.000264599)
(2.69107e-06 -4.39214e-05 0.000159789)
(4.16973e-05 -4.38479e-05 0.00016263)
(4.55151e-05 -4.32411e-05 0.00019048)
(6.9958e-05 -4.31314e-05 0.000195892)
(6.46228e-05 -4.15959e-05 0.000239614)
(2.67857e-06 -4.84568e-06 0.000156497)
(4.17721e-05 -4.85637e-06 0.000159347)
(4.5529e-05 -4.76546e-06 0.00018737)
(7.01183e-05 -4.83307e-06 0.000192879)
(6.48549e-05 -4.59407e-06 0.000236839)
(3.71723e-06 -9.24763e-05 0.000229409)
(5.48902e-05 -9.20983e-05 0.000233104)
(5.95318e-05 -8.97768e-05 0.000268409)
(9.09078e-05 -8.90551e-05 0.000275804)
(8.4274e-05 -8.56883e-05 0.000332689)
(4.06784e-06 -0.000101172 0.000165389)
(5.75372e-05 -0.000100683 0.000169518)
(6.25143e-05 -9.78828e-05 0.000206827)
(9.49097e-05 -9.71444e-05 0.000214862)
(8.76408e-05 -9.31474e-05 0.000275285)
(4.17544e-06 -6.83711e-05 0.000156911)
(5.81786e-05 -6.79854e-05 0.00016084)
(6.30699e-05 -6.53283e-05 0.000198389)
(9.56432e-05 -6.47628e-05 0.000206495)
(8.83576e-05 -6.17803e-05 0.000267564)
(4.42477e-06 -6.35639e-05 0.00011919)
(6.05801e-05 -6.32795e-05 0.000123165)
(6.57369e-05 -6.08804e-05 0.000160361)
(9.84583e-05 -6.02211e-05 0.000168693)
(9.06839e-05 -5.75649e-05 0.000231782)
(4.42219e-06 -7.139e-06 0.000114456)
(6.08621e-05 -7.13571e-06 0.000118718)
(6.61283e-05 -6.87843e-06 0.000155955)
(9.89592e-05 -6.75744e-06 0.000164066)
(9.10663e-05 -6.38843e-06 0.000227599)
(5.91403e-06 -0.000131847 0.000133218)
(7.84389e-05 -0.000131171 0.000138735)
(8.56436e-05 -0.000127776 0.000186244)
(0.000129845 -0.000126717 0.000196554)
(0.000119231 -0.000120888 0.000273261)
(6.57672e-06 -0.000144443 4.41793e-05)
(8.24085e-05 -0.000144043 5.04016e-05)
(8.99817e-05 -0.00014031 0.000101988)
(0.000136568 -0.000139218 0.000113534)
(0.00012506 -0.000132489 0.000195824)
(6.31569e-06 -9.35511e-05 3.15261e-05)
(8.25704e-05 -9.36863e-05 3.77628e-05)
(9.04674e-05 -9.30921e-05 9.03738e-05)
(0.000137666 -9.26252e-05 0.000101562)
(0.000126125 -8.82619e-05 0.000185079)
(6.44665e-06 -8.6376e-05 -2.65111e-05)
(8.28675e-05 -8.59703e-05 -1.98498e-05)
(9.10427e-05 -8.56757e-05 3.7017e-05)
(0.000141399 -8.55606e-05 4.9223e-05)
(0.000129539 -8.15601e-05 0.000136839)
(6.70486e-06 -9.84466e-06 -3.35119e-05)
(8.32708e-05 -9.55681e-06 -2.71863e-05)
(9.0877e-05 -9.42021e-06 3.01087e-05)
(0.000141783 -9.71401e-06 4.23334e-05)
(0.000130227 -9.02409e-06 0.00013067)
(8.93603e-06 -0.000184125 0.000215353)
(0.000107917 -0.000183024 0.00022474)
(0.000117351 -0.000176553 0.000295962)
(0.000177951 -0.000174562 0.000312791)
(0.000163347 -0.000165497 0.000423976)
(9.96719e-06 -0.000202894 8.58103e-05)
(0.000115346 -0.000201686 9.60912e-05)
(0.000125647 -0.000193783 0.000172904)
(0.000188776 -0.000192166 0.000191506)
(0.000172412 -0.000181357 0.000311922)
(1.00838e-05 -0.000139062 6.38778e-05)
(0.000117027 -0.000138237 7.464e-05)
(0.000126869 -0.000130299 0.000152792)
(0.000190377 -0.000129074 0.000172434)
(0.000174388 -0.000120766 0.000294597)
(1.07359e-05 -0.000128603 -1.82527e-05)
(0.000124109 -0.000128229 -6.33527e-06)
(0.00013481 -0.000121146 7.37954e-05)
(0.000198311 -0.00011945 9.48059e-05)
(0.000180886 -0.000111974 0.000222541)
(1.04032e-05 -1.45182e-05 -3.08086e-05)
(0.000124483 -1.48783e-05 -1.90183e-05)
(0.000135648 -1.41903e-05 6.22619e-05)
(0.000199551 -1.40666e-05 8.37569e-05)
(0.000182006 -1.29785e-05 0.000212332)
(1.49444e-05 -0.000265181 -2.98278e-05)
(0.000159047 -0.000263567 -1.5928e-05)
(0.000173693 -0.000254431 7.76402e-05)
(0.000257896 -0.000251534 0.00010248)
(0.000233729 -0.000236262 0.00024775)
(1.65e-05 -0.000295959 -0.000194976)
(0.000169501 -0.000294184 -0.000180371)
(0.000185395 -0.000283519 -8.48067e-05)
(0.000275624 -0.000279614 -5.80262e-05)
(0.000249001 -0.000261905 0.000101371)
(1.66909e-05 -0.000197612 -0.000227009)
(0.000171483 -0.00019611 -0.000211167)
(0.000188259 -0.000192198 -0.0001135)
(0.00027951 -0.000189324 -8.54319e-05)
(0.000251879 -0.000177641 7.59019e-05)
(1.79692e-05 -0.000181061 -0.000329336)
(0.000174914 -0.000179627 -0.00031218)
(0.000192181 -0.000176204 -0.000212203)
(0.000290186 -0.000174236 -0.000181996)
(0.000261016 -0.000163824 -1.88631e-05)
(1.80983e-05 -2.28e-05 -0.000348489)
(0.00017634 -2.26783e-05 -0.000330229)
(0.00019365 -2.13742e-05 -0.000228976)
(0.000291894 -2.11709e-05 -0.000197508)
(0.000262588 -1.9629e-05 -3.36248e-05)
(2.2377e-05 -0.000354563 0.000147499)
(0.000215388 -0.000352704 0.000169322)
(0.00023576 -0.000344056 0.000307391)
(0.000348115 -0.00034003 0.000347817)
(0.000313248 -0.000316518 0.000562645)
(2.41227e-05 -0.000400144 -0.000110066)
(0.000225519 -0.000396994 -8.29626e-05)
(0.000247994 -0.000384988 6.45282e-05)
(0.000375015 -0.00038014 0.00011201)
(0.00033676 -0.000353259 0.000346447)
(2.54722e-05 -0.000273425 -0.000168874)
(0.000230539 -0.000270049 -0.000139347)
(0.000252607 -0.000257699 1.37552e-05)
(0.000379844 -0.000253046 6.38282e-05)
(0.000340767 -0.000241001 0.000305302)
(2.7413e-05 -0.000250086 -0.000335048)
(0.000241245 -0.000247294 -0.000302457)
(0.000264997 -0.000236627 -0.000140711)
(0.00039172 -0.000231531 -8.50079e-05)
(0.000349245 -0.000221504 0.000166019)
(2.81427e-05 -3.42318e-05 -0.000370344)
(0.000243999 -3.34916e-05 -0.00033616)
(0.000268371 -3.15672e-05 -0.000171386)
(0.000394972 -3.0211e-05 -0.000113269)
(0.000351168 -2.84473e-05 0.000142857)
(3.62207e-05 -0.000530552 -0.00026468)
(0.000318935 -0.000523536 -0.000233511)
(0.000352182 -0.000504603 -5.09981e-05)
(0.000513229 -0.000494427 4.01947e-06)
(0.000455035 -0.000458949 0.000296414)
(4.30065e-05 -0.000612415 -0.000603603)
(0.000344089 -0.000602935 -0.000564626)
(0.000380358 -0.000577234 -0.000368093)
(0.000557621 -0.00056368 -0.000301884)
(0.000490513 -0.000519327 2.28876e-06)
(4.55994e-05 -0.000422588 -0.000688999)
(0.000354107 -0.000415598 -0.000645874)
(0.000391425 -0.000397429 -0.000442216)
(0.000571136 -0.000386332 -0.000368836)
(0.000500651 -0.000358063 -5.35149e-05)
(4.99485e-05 -0.000382528 -0.000906526)
(0.000369248 -0.000376437 -0.000858604)
(0.000409624 -0.00036134 -0.00064766)
(0.000596997 -0.000351327 -0.000567146)
(0.000519714 -0.000326265 -0.000237519)
(5.163e-05 -5.8761e-05 -0.00095857)
(0.000375295 -5.70786e-05 -0.000907704)
(0.000416536 -5.27086e-05 -0.00069198)
(0.00060622 -5.01235e-05 -0.000607352)
(0.000526506 -4.33799e-05 -0.000269987)
(5.29204e-05 -0.000704314 -3.53133e-05)
(0.000429079 -0.000694443 1.99571e-05)
(0.000473292 -0.000671303 0.000291657)
(0.000695636 -0.000655783 0.000383881)
(0.000614821 -0.000619839 0.000805755)
(6.23803e-05 -0.000824616 -0.000560139)
(0.000461038 -0.000809507 -0.000489562)
(0.000510739 -0.000776351 -0.000194691)
(0.000745534 -0.000753132 -7.78608e-05)
(0.000650765 -0.000703296 0.000381795)
(6.78389e-05 -0.000576347 -0.000717382)
(0.000477331 -0.000564027 -0.000636994)
(0.000529649 -0.00053727 -0.00032509)
(0.000768691 -0.000518312 -0.000195589)
(0.000666222 -0.00048081 0.000288718)
(7.45203e-05 -0.000519663 -0.00106007)
(0.000500117 -0.000509131 -0.000967624)
(0.000556455 -0.000486398 -0.000639082)
(0.000802011 -0.000470055 -0.000492573)
(0.00068948 -0.000437986 1.47284e-05)
(7.8166e-05 -8.72374e-05 -0.00116179)
(0.000510595 -8.35908e-05 -0.00106152)
(0.000568723 -7.69446e-05 -0.000720906)
(0.000817117 -7.14894e-05 -0.000564576)
(0.000699344 -6.20096e-05 -4.18416e-05)
(9.04549e-05 -0.0010716 -0.000654496)
(0.000645891 -0.00104885 -0.000570241)
(0.000716083 -0.00100587 -0.00022952)
(0.00102749 -0.000970359 -9.01787e-05)
(0.000889571 -0.000895589 0.000443254)
(0.00011263 -0.00129466 -0.00135023)
(0.000709524 -0.00126006 -0.00124308)
(0.000792034 -0.00119414 -0.000859717)
(0.00113426 -0.0011433 -0.00068771)
(0.000964341 -0.00103653 -9.31011e-05)
(0.000125001 -0.0009225 -0.00158801)
(0.000746393 -0.000893642 -0.00146392)
(0.000832809 -0.000841797 -0.00105625)
(0.0011851 -0.000801019 -0.000860806)
(0.000999855 -0.000725106 -0.000233994)
(0.000141458 -0.000826945 -0.00204575)
(0.000790238 -0.000800967 -0.00190353)
(0.000884658 -0.000757149 -0.00146695)
(0.00125098 -0.000720302 -0.00124712)
(0.00104279 -0.00065681 -0.000577298)
(0.000150907 -0.000161501 -0.00220301)
(0.000816188 -0.000152089 -0.0020473)
(0.000913462 -0.000135638 -0.00159271)
(0.00128546 -0.000123304 -0.00135598)
(0.00106545 -0.000101162 -0.000663516)
(0.000136268 -0.0014229 -0.000438266)
(0.000854087 -0.00138942 -0.000293527)
(0.000953357 -0.00132213 0.000231358)
(0.00136863 -0.00127291 0.000458511)
(0.00116598 -0.00117396 0.00126401)
(0.000168404 -0.00175846 -0.00152466)
(0.000951568 -0.00170351 -0.00132242)
(0.0010661 -0.0016034 -0.000738456)
(0.00151244 -0.00152405 -0.000432511)
(0.00126493 -0.00138076 0.00045514)
(0.00019075 -0.00127185 -0.0019936)
(0.00100911 -0.00122447 -0.00174436)
(0.00113276 -0.00114449 -0.00109826)
(0.00159126 -0.00107772 -0.000739543)
(0.00131363 -0.000965011 0.000227057)
(0.000215344 -0.00113467 -0.0027406)
(0.00107893 -0.00109252 -0.00244097)
(0.00121286 -0.00102288 -0.00174757)
(0.00169198 -0.000965244 -0.0013268)
(0.0013814 -0.00086754 -0.000301197)
(0.000232405 -0.000246118 -0.00308703)
(0.0011209 -0.000229072 -0.00274251)
(0.00126003 -0.000204483 -0.00199867)
(0.00174664 -0.000182183 -0.00153093)
(0.00141462 -0.000150151 -0.000447776)
(0.000233773 -0.00219211 -0.00126469)
(0.00131547 -0.00211025 -0.00104842)
(0.00146805 -0.00200592 -0.00041479)
(0.00206048 -0.00188932 -8.60912e-05)
(0.00171945 -0.00172887 0.000879474)
(0.000313483 -0.00285045 -0.00269215)
(0.00149573 -0.00271131 -0.00239287)
(0.00168187 -0.00252409 -0.00164792)
(0.00232817 -0.00234167 -0.00121032)
(0.0018799 -0.00207382 -9.10312e-05)
(0.000372839 -0.0021384 -0.00338339)
(0.00164175 -0.00201214 -0.0030112)
(0.00183756 -0.00185084 -0.00217675)
(0.00251076 -0.00169524 -0.00164895)
(0.00199665 -0.00148137 -0.000420663)
(0.000439699 -0.0019204 -0.00438185)
(0.00178329 -0.00179914 -0.00393377)
(0.00199877 -0.00165756 -0.00301639)
(0.00269777 -0.00151168 -0.002399)
(0.00210087 -0.0013316 -0.00105928)
(0.000494005 -0.00050943 -0.00489463)
(0.00190458 -0.000455342 -0.00438294)
(0.002125 -0.000388486 -0.00339011)
(0.0028368 -0.00032932 -0.00269991)
(0.00218268 -0.000249628 -0.00127769)
(0.00035137 -0.00289905 -0.00123049)
(0.00170408 -0.00277996 -0.000836628)
(0.00191568 -0.00259728 0.000159888)
(0.00266329 -0.00243584 0.000728257)
(0.00216467 -0.00217765 0.00220244)
(0.000465756 -0.00387788 -0.00354824)
(0.00199583 -0.00366697 -0.00293667)
(0.0022486 -0.00336602 -0.00177952)
(0.00306991 -0.00308749 -0.000962688)
(0.00242286 -0.0026813 0.000722989)
(0.000560956 -0.00296151 -0.00503825)
(0.0022158 -0.00276532 -0.00420649)
(0.00249497 -0.00251293 -0.00282159)
(0.00334801 -0.00226634 -0.00178091)
(0.00258388 -0.00193325 0.000153434)
(0.000660832 -0.002646 -0.00675979)
(0.00244444 -0.00246431 -0.00571013)
(0.00274758 -0.00223629 -0.00421097)
(0.00364977 -0.00201624 -0.00294325)
(0.00276715 -0.00172465 -0.00084806)
(0.000741374 -0.000762016 -0.00808835)
(0.0026255 -0.000681479 -0.00676269)
(0.00294302 -0.000581433 -0.0050451)
(0.0038598 -0.000486402 -0.00355711)
(0.00288547 -0.000371707 -0.00124412)
(0.000625695 -0.00458396 -0.00206285)
(0.00270579 -0.00427818 -0.00150808)
(0.00303274 -0.00400719 -0.000368104)
(0.00410379 -0.00363452 0.000397231)
(0.00323968 -0.00325445 0.00204788)
(0.000922969 -0.00665928 -0.00500566)
(0.00326442 -0.00608211 -0.00414674)
(0.00365566 -0.00550637 -0.002723)
(0.00483135 -0.00485152 -0.00162269)
(0.00361976 -0.00412358 0.000389485)
(0.00120304 -0.00534982 -0.00708269)
(0.00385843 -0.00478545 -0.00590316)
(0.00426297 -0.00428211 -0.00416254)
(0.00548658 -0.0036756 -0.00272366)
(0.00399279 -0.00305222 -0.000376662)
(0.00148755 -0.00497057 -0.00943621)
(0.00433215 -0.00435537 -0.00789535)
(0.00476551 -0.00388111 -0.00591253)
(0.00606161 -0.00328786 -0.00415636)
(0.00426387 -0.00272908 -0.00152534)
(0.00181871 -0.00183985 -0.0112988)
(0.00494789 -0.00151002 -0.00943412)
(0.00533045 -0.00122528 -0.00709198)
(0.00663885 -0.000946345 -0.00501563)
(0.0045697 -0.000648927 -0.002082)
(0.000904073 -0.00594649 -0.0025991)
(0.00339896 -0.00551399 -0.00151244)
(0.00382085 -0.00503685 0.000364998)
(0.00507981 -0.00452964 0.00168208)
(0.00387445 -0.00389529 0.00421217)
(0.00132091 -0.0088995 -0.0074592)
(0.00427856 -0.00806362 -0.00561993)
(0.00477248 -0.00716185 -0.00341234)
(0.0061835 -0.00620948 -0.0013314)
(0.0045088 -0.00510638 0.00167412)
(0.0017365 -0.00739221 -0.0122918)
(0.00513612 -0.00651388 -0.00938229)
(0.00567437 -0.00570234 -0.0063523)
(0.00713528 -0.00479984 -0.00341422)
(0.00501541 -0.00384794 0.000356583)
(0.00219632 -0.00686258 -0.0166354)
(0.00596835 -0.00599549 -0.0127329)
(0.00648652 -0.0051659 -0.00938769)
(0.00803852 -0.00430828 -0.00562961)
(0.00549344 -0.00343013 -0.00152873)
(0.00260012 -0.00263216 -0.0223648)
(0.00683279 -0.00222756 -0.0166386)
(0.00736166 -0.00176748 -0.0122994)
(0.00887155 -0.00135205 -0.0074714)
(0.00592359 -0.000934279 -0.00261695)
(0.00170986 -0.00960692 -0.00261049)
(0.00566988 -0.00852549 -0.00124703)
(0.00622701 -0.00790968 0.000708255)
(0.0079527 -0.00674852 0.00234248)
(0.00585311 -0.00587595 0.00493132)
(0.00275919 -0.0163543 -0.00872679)
(0.00731108 -0.0139537 -0.00618371)
(0.00794375 -0.0122254 -0.00356327)
(0.00991905 -0.00994905 -0.00093947)
(0.00672567 -0.00798091 0.0023298)
(0.00411224 -0.0145266 -0.0151463)
(0.009798 -0.0118985 -0.0112043)
(0.0102308 -0.0102573 -0.00738724)
(0.0121972 -0.00797336 -0.0035634)
(0.00788861 -0.00625482 0.000694517)
(0.00538779 -0.0150439 -0.0216128)
(0.0115799 -0.0116117 -0.0156969)
(0.0118689 -0.0098283 -0.0112223)
(0.0139223 -0.00734486 -0.0062005)
(0.00850444 -0.00570261 -0.00127579)
(0.00754945 -0.00757338 -0.0292398)
(0.0150136 -0.00541794 -0.0215951)
(0.0144983 -0.00414189 -0.0151576)
(0.0163237 -0.00279299 -0.00873942)
(0.0095869 -0.00174392 -0.00263949)
(0.00226329 -0.0122874 -0.00372539)
(0.00671769 -0.0106422 -0.000934683)
(0.00740957 -0.00947234 0.00217322)
(0.00930304 -0.00794137 0.0048625)
(0.00656196 -0.00659569 0.00856911)
(0.0038559 -0.021438 -0.0135872)
(0.00944182 -0.0180235 -0.00832185)
(0.0100165 -0.0152599 -0.0044467)
(0.0120783 -0.0121171 0.000377114)
(0.00790764 -0.00934335 0.00485071)
(0.00566959 -0.0202808 -0.0290041)
(0.0128948 -0.0160279 -0.0188527)
(0.0133152 -0.0133613 -0.0121236)
(0.0152195 -0.0100606 -0.00445023)
(0.00943706 -0.00745273 0.00216228)
(0.00810232 -0.0209535 -0.0416444)
(0.0163576 -0.016385 -0.0266369)
(0.0159838 -0.0129359 -0.0188619)
(0.0179877 -0.00948404 -0.00833921)
(0.0106095 -0.00676412 -0.000959758)
(0.0102379 -0.010297 -0.0694666)
(0.0209125 -0.00815119 -0.0416235)
(0.02022 -0.00571917 -0.0290094)
(0.0213923 -0.00390423 -0.013604)
(0.0122478 -0.00230905 -0.00374645)
(0.00449806 -0.0198279 -0.000859581)
(0.0115688 -0.0161873 0.0022138)
(0.0120245 -0.0147664 0.00523413)
(0.0143522 -0.0113993 0.00814734)
(0.00969404 -0.00972892 0.0114344)
(0.00802014 -0.0416389 -0.0130616)
(0.0164516 -0.0318744 -0.00570518)
(0.0166434 -0.0265257 -0.0015114)
(0.0192184 -0.0192637 0.00378669)
(0.0113644 -0.0143914 0.00812932)
(0.0142716 -0.0425973 -0.0326348)
(0.0266782 -0.0302191 -0.0190882)
(0.0246359 -0.024675 -0.0106085)
(0.0264865 -0.0166904 -0.00151283)
(0.0147378 -0.0120656 0.00521675)
(0.0203977 -0.055512 -0.0546223)
(0.0343579 -0.0343781 -0.028956)
(0.0301721 -0.0267139 -0.0191293)
(0.0318271 -0.0164987 -0.00573759)
(0.0161583 -0.0116117 0.0021735)
(0.0354609 -0.0354812 -0.0909436)
(0.0554764 -0.020429 -0.0545317)
(0.0425314 -0.0143075 -0.0326577)
(0.0415926 -0.00806739 -0.0130794)
(0.0198034 -0.00454195 -0.000893412)
(0.00532826 -0.0249605 0.00115332)
(0.0128094 -0.0189177 0.00632278)
(0.0133402 -0.0164999 0.0103014)
(0.0155014 -0.0124972 0.0142072)
(0.00998944 -0.0100415 0.0177195)
(0.0111979 -0.0531972 -0.0163266)
(0.020986 -0.0393221 -0.00411545)
(0.0195093 -0.0311027 0.00149216)
(0.021719 -0.0217773 0.00943182)
(0.0124451 -0.0155591 0.0141914)
(0.0192087 -0.0618437 -0.0593588)
(0.0348995 -0.039288 -0.0284476)
(0.0308912 -0.0309798 -0.0140708)
(0.031045 -0.0195858 0.00148783)
(0.0164483 -0.0134056 0.0102928)
(0.0338412 -0.0789938 -0.105316)
(0.0517964 -0.0517744 -0.0480292)
(0.0392114 -0.0349637 -0.0284955)
(0.039287 -0.0210447 -0.00415035)
(0.0188768 -0.0128723 0.00629483)
(0.0469871 -0.0471646 -0.254125)
(0.0789296 -0.0339244 -0.105197)
(0.0616744 -0.0193062 -0.0593833)
(0.0531407 -0.0112745 -0.0163282)
(0.0249045 -0.0053979 0.00114611)
(0.00966781 -0.0380616 0.0113182)
(0.0207181 -0.0270819 0.016414)
(0.0199117 -0.0239454 0.0194356)
(0.021775 -0.0163864 0.022175)
(0.0133652 -0.0134163 0.0242455)
(0.0202469 -0.102172 -0.00692845)
(0.0342696 -0.066654 0.00981382)
(0.0302027 -0.0509063 0.0131007)
(0.0319241 -0.0319896 0.0198143)
(0.0163353 -0.0218228 0.0221545)
(0.0453468 -0.131784 -0.0636984)
(0.0719466 -0.0741643 -0.016978)
(0.0545961 -0.0546874 -0.00152213)
(0.0508586 -0.0302845 0.0130982)
(0.0239121 -0.0199649 0.0194232)
(0.0783998 -0.251539 -0.144545)
(0.111161 -0.111112 -0.0290165)
(0.0740824 -0.0720068 -0.0170577)
(0.0666267 -0.0343139 0.00977598)
(0.0270596 -0.0207596 0.0163799)
(0.188851 -0.18903 -0.355754)
(0.251477 -0.0784751 -0.143625)
(0.131598 -0.0454132 -0.0636444)
(0.102143 -0.0202992 -0.00691861)
(0.0380315 -0.00971975 0.0113148)
(0.0104116 -0.0440074 0.031535)
(0.020915 -0.0260006 0.0331895)
(0.0191008 -0.0231846 0.0345512)
(0.0203118 -0.01505 0.0347895)
(0.0121905 -0.0122635 0.0338934)
(0.0279729 -0.127973 0.0218994)
(0.0409489 -0.0726634 0.0308975)
(0.0295037 -0.0520375 0.0320633)
(0.0307632 -0.0308444 0.0353581)
(0.0149769 -0.0203819 0.0347709)
(0.0664377 -0.195965 -0.0233183)
(0.0967902 -0.077806 0.00557359)
(0.0609553 -0.0611262 0.0242375)
(0.0519673 -0.0296181 0.0320679)
(0.0231225 -0.0191799 0.0345543)
(0.134771 -0.439976 -0.190217)
(0.187668 -0.18685 -0.043103)
(0.0776914 -0.0968023 0.00561994)
(0.0726738 -0.0409954 0.0308562)
(0.0259632 -0.020969 0.0331748)
(0.264562 -0.511079 -0.930294)
(0.445236 -0.152413 -0.239003)
(0.195799 -0.0665289 -0.0232329)
(0.127861 -0.0280662 0.0218927)
(0.0439377 -0.0105014 0.0315533)
(0.0113283 -0.048576 0.0634203)
(0.0237282 -0.0297521 0.0564768)
(0.0215143 -0.026688 0.0518124)
(0.0211172 -0.0158981 0.0469055)
(0.0124848 -0.0125552 0.0427726)
(0.0293982 -0.153831 0.091429)
(0.044309 -0.0940272 0.0688445)
(0.0346563 -0.0611902 0.0630566)
(0.0346175 -0.034697 0.0533261)
(0.0158277 -0.021162 0.0468795)
(0.0757203 -0.233634 0.153557)
(0.117748 -0.110166 0.101969)
(0.0809424 -0.0809831 0.0817974)
(0.0611454 -0.0347795 0.063063)
(0.0266525 -0.0215635 0.051803)
(0.181296 -0.759302 0.0209457)
(0.228747 -0.336236 0.14273)
(0.110142 -0.117721 0.102075)
(0.0939403 -0.044365 0.0688186)
(0.0297562 -0.0237544 0.056442)
(0.449237 -2.50367 -1.22384)
(0.867773 -0.542081 -0.0243975)
(0.233566 -0.0758473 0.153565)
(0.153739 -0.0294809 0.091357)
(0.0485711 -0.0114054 0.0634066)
(0.00348903 -0.0159315 0.0960202)
(0.00937382 -0.0136724 0.0809489)
(0.00956444 -0.0119053 0.0696279)
(0.0112883 -0.00854526 0.0594417)
(0.00797921 -0.0080789 0.0501165)
(0.00557813 -0.032713 0.13296)
(0.0127886 -0.0266289 0.105776)
(0.014112 -0.0221424 0.0909477)
(0.0146563 -0.014757 0.0718738)
(0.00844553 -0.0113678 0.0594141)
(0.0147281 -0.0267921 0.282364)
(0.0216821 -0.0363027 0.185327)
(0.0213152 -0.0213722 0.133131)
(0.0220632 -0.0142527 0.0909761)
(0.0118267 -0.0096524 0.0696266)
(0.0422141 -0.261389 0.615243)
(0.0803398 -0.104644 0.33873)
(0.0363004 -0.0216829 0.185281)
(0.0265024 -0.0129145 0.105773)
(0.0136258 -0.0094317 0.0809114)
(-0.0405396 0.0135606 -6.06274)
(0.345524 -0.238172 0.976207)
(0.0270611 -0.014973 0.282524)
(0.0325745 -0.00572538 0.132911)
(0.0159212 -0.00363652 0.0960773)
(-0.00385723 -0.0100946 0.073312)
(-0.00270133 -0.00411164 0.0684644)
(-2.28577e-07 -0.00457355 0.0634686)
(0.00162021 -0.00304964 0.057684)
(0.00280202 -0.00290087 0.0511272)
(0.00211919 0.0284934 0.0846689)
(0.00261068 0.00751617 0.0840288)
(0.000914443 0.00209419 0.075272)
(0.00313845 -0.0032171 0.0678431)