/*--------------------------------*- C++ -*----------------------------------*\
| =========                 |                                                 |
| \\      /  F ield         | OpenFOAM: The Open Source CFD Toolbox           |
|  \\    /   O peration     | Version:  5.x                                   |
|   \\  /    A nd           | Web:      www.OpenFOAM.org                      |
|    \\/     M anipulation  |                                                 |
\*---------------------------------------------------------------------------*/
FoamFile
{
    version     2.0;
    format      ascii;
    class       surfaceScalarField;
    location    "0.018";
    object      phi;
}
// * * * * * * * * * * * * * * * * * * * * * * * * * * * * * * * * * * * * * //

dimensions      [0 3 -1 0 0 0 0];

internalField   nonuniform List<scalar> 
4318
(
-7.77906e-09
-7.7834e-09
-1.77212e-09
-5.38083e-09
-7.90103e-09
-7.25634e-11
-5.09458e-09
-7.73883e-09
1.60705e-09
-2.58129e-09
-8.01096e-09
-6.59535e-10
-8.12528e-09
-5.91339e-10
-7.89726e-09
-5.38589e-09
-7.34372e-11
-6.41707e-09
-6.42197e-09
-2.9541e-09
-5.59008e-09
-6.46593e-09
-2.09437e-09
-2.817e-09
-6.69587e-09
-4.08197e-09
-6.7613e-09
-3.9548e-09
-7.73491e-09
-5.10053e-09
1.6062e-09
-6.46102e-09
-5.59592e-09
-2.09442e-09
-5.62087e-09
-5.62677e-09
-1.67382e-09
-2.86303e-09
-5.71295e-09
-3.73454e-09
-5.75004e-09
-3.62293e-09
-8.00705e-09
-2.58764e-09
-6.60847e-10
-6.69101e-09
-2.82333e-09
-4.08244e-09
-5.70704e-09
-2.86954e-09
-3.73497e-09
-2.88166e-09
-2.88805e-09
-5.64264e-09
-2.91028e-09
-5.51161e-09
-8.12145e-09
-5.93075e-10
-6.75661e-09
-3.95561e-09
-5.74397e-09
-3.62358e-09
-2.90385e-09
-5.51185e-09
-5.39386e-09
-1.14475e-08
-1.14506e-08
4.01632e-09
-1.01253e-08
-7.76806e-09
6.81334e-10
-7.05516e-09
-6.97967e-09
3.30773e-10
-4.14758e-09
-6.0212e-09
-2.01657e-09
-5.78265e-09
-2.25887e-09
-7.7649e-09
-1.01299e-08
6.8053e-10
-7.54167e-09
-7.54621e-09
-3.39267e-09
-5.85646e-09
-6.87368e-09
-3.87871e-09
-3.46455e-09
-6.06829e-09
-6.41899e-09
-5.83724e-09
-6.69443e-09
-6.97649e-09
-7.06064e-09
3.29492e-10
-6.86912e-09
-5.86194e-09
-3.8792e-09
-5.47122e-09
-5.47674e-09
-4.46135e-09
-3.23909e-09
-4.96933e-09
-7.05667e-09
-4.78978e-09
-7.36508e-09
-6.01802e-09
-4.15371e-09
-2.01859e-09
-6.06377e-09
-3.47064e-09
-6.42019e-09
-4.96383e-09
-3.24525e-09
-7.05745e-09
-2.90117e-09
-2.9073e-09
-9.75426e-09
-2.7685e-09
-1.00901e-08
-5.77944e-09
-2.26177e-09
-5.83275e-09
-6.69622e-09
-4.78424e-09
-7.36662e-09
-2.76232e-09
-1.00909e-08
-1.04478e-08
-8.48628e-09
-8.49034e-09
7.31703e-09
-7.67141e-09
-9.1003e-09
1.62933e-09
-6.46984e-09
-9.23317e-09
8.87514e-10
-3.37536e-09
-9.44625e-09
-3.30854e-09
-9.53968e-09
-3.79473e-09
-9.09625e-09
-7.67675e-09
1.62819e-09
-8.1603e-09
-8.16561e-09
-5.2589e-09
-6.78184e-09
-8.26808e-09
-6.21791e-09
-3.544e-09
-8.43356e-09
-1.0665e-08
-8.50377e-09
-1.11989e-08
-9.22909e-09
-6.4762e-09
8.85641e-10
-8.26272e-09
-6.78815e-09
-6.21865e-09
-6.85941e-09
-6.86578e-09
-7.26278e-09
-3.59272e-09
-6.96949e-09
-1.17829e-08
-7.02187e-09
-1.23437e-08
-9.44216e-09
-3.38234e-09
-3.31158e-09
-8.42834e-09
-3.5507e-09
-1.06669e-08
-6.96318e-09
-3.59981e-09
-1.1784e-08
-3.63853e-09
-3.64562e-09
-1.63964e-08
-3.67663e-09
-1.69814e-08
-9.5353e-09
-3.79894e-09
-8.49876e-09
-1.12023e-08
-7.01543e-09
-1.2346e-08
-3.6694e-09
-1.69826e-08
-1.75823e-08
-1.37831e-08
-1.37876e-08
1.27244e-08
-1.23516e-08
-1.28802e-08
2.73015e-09
-9.95305e-09
-1.2707e-08
9.77109e-10
-5.55708e-09
-1.23242e-08
-5.29769e-09
-1.22216e-08
-6.21867e-09
-1.28757e-08
-1.23575e-08
2.72872e-09
-1.16443e-08
-1.16502e-08
-7.718e-09
-9.50129e-09
-1.14962e-08
-9.56938e-09
-5.22467e-09
-1.11618e-08
-1.61016e-08
-1.10617e-08
-1.70707e-08
-1.27025e-08
-9.96005e-09
9.74594e-10
-1.14902e-08
-9.50826e-09
-9.57048e-09
-9.38898e-09
-9.39595e-09
-1.1462e-08
-5.13716e-09
-9.14161e-09
-1.80526e-08
-9.05546e-09
-1.90403e-08
-1.23197e-08
-5.56475e-09
-5.3018e-09
-1.11559e-08
-5.2323e-09
-1.61043e-08
-9.13466e-09
-5.14479e-09
-1.80542e-08
-4.92875e-09
-4.93634e-09
-2.48044e-08
-4.86015e-09
-2.58257e-08
-1.2217e-08
-6.22449e-09
-1.10558e-08
-1.7075e-08
-9.04849e-09
-1.90433e-08
-4.85249e-09
-2.58274e-08
-2.68601e-08
-1.6832e-08
-1.68375e-08
1.8856e-08
-1.50228e-08
-1.72599e-08
4.08836e-09
-1.23005e-08
-1.73867e-08
1.4467e-09
-6.39569e-09
-1.76169e-08
-7.95152e-09
-1.76981e-08
-9.3478e-09
-1.72544e-08
-1.50299e-08
4.08648e-09
-1.53937e-08
-1.54009e-08
-1.14374e-08
-1.25896e-08
-1.55119e-08
-1.4248e-08
-6.54882e-09
-1.57135e-08
-2.40454e-08
-1.57841e-08
-2.55251e-08
-1.73812e-08
-1.2309e-08
1.44342e-09
-1.55048e-08
-1.25981e-08
-1.42494e-08
-1.26822e-08
-1.26907e-08
-1.71055e-08
-6.60295e-09
-1.28474e-08
-2.69977e-08
-1.29056e-08
-2.84981e-08
-1.76114e-08
-6.40504e-09
-7.95692e-09
-1.57063e-08
-6.55819e-09
-2.4049e-08
-1.2839e-08
-6.61209e-09
-2.69998e-08
-6.67812e-09
-6.68747e-09
-3.71245e-08
-6.7204e-09
-3.86759e-08
-1.76926e-08
-9.35522e-09
-1.57765e-08
-2.55307e-08
-1.28974e-08
-2.85025e-08
-6.7109e-09
-3.86781e-08
-4.0244e-08
-2.49411e-08
-2.49476e-08
2.80313e-08
-2.22518e-08
-2.51166e-08
6.03008e-09
-1.81725e-08
-2.51786e-08
2.01093e-09
-9.65434e-09
-2.5301e-08
-1.17945e-08
-2.53189e-08
-1.39141e-08
-2.511e-08
-2.22604e-08
6.02769e-09
-2.24172e-08
-2.24258e-08
-1.68219e-08
-1.83125e-08
-2.24817e-08
-2.10507e-08
-9.66968e-09
-2.25871e-08
-3.54032e-08
-2.26003e-08
-3.76401e-08
-2.5172e-08
-1.81827e-08
2.00669e-09
-2.24731e-08
-1.83226e-08
-2.10526e-08
-1.83592e-08
-1.83693e-08
-2.53328e-08
-9.67988e-09
-1.84483e-08
-3.98169e-08
-1.8456e-08
-4.20792e-08
-2.52944e-08
-9.66545e-09
-1.18015e-08
-2.25785e-08
-9.68078e-09
-3.54078e-08
-1.84382e-08
-9.69094e-09
-3.98195e-08
-9.67355e-09
-9.68461e-09
-5.46535e-08
-9.67184e-09
-5.69913e-08
-2.53123e-08
-1.39241e-08
-2.25917e-08
-3.76478e-08
-1.84459e-08
-4.20849e-08
-9.66079e-09
-5.69944e-08
-5.93485e-08
-3.4808e-08
-3.48161e-08
4.05798e-08
-3.09698e-08
-3.57061e-08
8.66397e-09
-2.52284e-08
-3.59505e-08
2.79336e-09
-1.3088e-08
-3.65108e-08
-1.72809e-08
-3.66524e-08
-2.03952e-08
-3.5698e-08
-3.09805e-08
8.66093e-09
-3.17802e-08
-3.17909e-08
-2.46565e-08
-2.58827e-08
-3.20112e-08
-3.08891e-08
-1.34323e-08
-3.25144e-08
-5.18514e-08
-3.26424e-08
-5.51682e-08
-3.59425e-08
-2.52411e-08
2.788e-09
-3.20005e-08
-2.58955e-08
-3.08914e-08
-2.60657e-08
-2.60784e-08
-3.72017e-08
-1.35336e-08
-2.64845e-08
-5.83802e-08
-2.6592e-08
-6.17343e-08
-3.65027e-08
-1.31023e-08
-1.72896e-08
-3.25037e-08
-1.34466e-08
-5.18571e-08
-2.64718e-08
-1.35477e-08
-5.83835e-08
-1.37423e-08
-1.37563e-08
-8.01124e-08
-1.38174e-08
-8.35867e-08
-3.66444e-08
-2.04069e-08
-3.26317e-08
-5.51766e-08
-2.65793e-08
-6.17406e-08
-1.38034e-08
-8.35904e-08
-8.70845e-08
-5.04346e-08
-5.04446e-08
5.87358e-08
-4.49209e-08
-5.18524e-08
1.25294e-08
-3.66032e-08
-5.22224e-08
3.93446e-09
-1.9108e-08
-5.31314e-08
-2.51125e-08
-5.3332e-08
-2.96908e-08
-5.18424e-08
-4.4934e-08
1.25256e-08
-4.62053e-08
-4.62184e-08
-3.59287e-08
-3.76441e-08
-4.65548e-08
-4.51189e-08
-1.96314e-08
-4.73699e-08
-7.56267e-08
-4.75499e-08
-8.05403e-08
-5.22124e-08
-3.66187e-08
3.92756e-09
-4.65417e-08
-3.76596e-08
-4.5122e-08
-3.79227e-08
-3.79381e-08
-5.44385e-08
-1.97729e-08
-3.86041e-08
-8.5297e-08
-3.87533e-08
-9.02735e-08
-5.31214e-08
-1.91249e-08
-2.51237e-08
-4.73568e-08
-1.96482e-08
-7.56342e-08
-3.85886e-08
-1.97897e-08
-8.53012e-08
-2.00978e-08
-2.01152e-08
-1.17093e-07
-2.01828e-08
-1.22271e-07
-5.33218e-08
-2.97068e-08
-4.75369e-08
-8.05529e-08
-3.87384e-08
-9.02829e-08
-2.01656e-08
-1.22276e-07
-1.27491e-07
-7.24706e-08
-7.2483e-08
8.47912e-08
-6.45797e-08
-7.49982e-08
1.82101e-08
-5.2533e-08
-7.56741e-08
5.59776e-09
-2.72895e-08
-7.72791e-08
-3.6287e-08
-7.76581e-08
-4.30402e-08
-7.49858e-08
-6.45961e-08
1.82054e-08
-6.68829e-08
-6.68994e-08
-5.21304e-08
-5.43923e-08
-6.75026e-08
-6.57809e-08
-2.8278e-08
-6.894e-08
-1.1008e-07
-6.92729e-08
-1.17414e-07
-7.56617e-08
-5.25524e-08
5.58896e-09
-6.74862e-08
-5.44118e-08
-6.5785e-08
-5.488e-08
-5.48995e-08
-7.9648e-08
-2.85382e-08
-5.60521e-08
-1.24527e-07
-5.6324e-08
-1.31956e-07
-7.72666e-08
-2.7311e-08
-3.63013e-08
-6.89235e-08
-2.82996e-08
-1.1009e-07
-5.60325e-08
-2.85597e-08
-1.24532e-07
-2.91446e-08
-2.91664e-08
-1.70868e-07
-2.93132e-08
-1.78618e-07
-7.76458e-08
-4.30608e-08
-6.92567e-08
-1.1743e-07
-5.63047e-08
-1.31968e-07
-2.92917e-08
-1.78625e-07
-1.86432e-07
-1.04481e-07
-1.04496e-07
1.22494e-07
-9.33466e-08
-1.08872e-07
2.68615e-08
-7.59593e-08
-1.10037e-07
8.25014e-09
-3.95861e-08
-1.12927e-07
-5.19701e-08
-1.13596e-07
-6.19788e-08
-1.08856e-07
-9.33671e-08
2.68555e-08
-9.73793e-08
-9.73999e-08
-7.50774e-08
-7.92696e-08
-9.846e-08
-9.54657e-08
-4.13408e-08
-1.01075e-07
-1.5986e-07
-1.01671e-07
-1.70896e-07
-1.10021e-07
-7.59837e-08
8.239e-09
-9.84396e-08
-7.92941e-08
-9.5471e-08
-8.01455e-08
-8.01697e-08
-1.16231e-07
-4.18027e-08
-8.23439e-08
-1.816e-07
-8.28363e-08
-1.92804e-07
-1.12912e-07
-3.96129e-08
-5.19881e-08
-1.01054e-07
-4.13679e-08
-1.59872e-07
-8.23194e-08
-4.18296e-08
-1.81607e-07
-4.29355e-08
-4.29628e-08
-2.49633e-07
-4.32158e-08
-2.61396e-07
-1.13581e-07
-6.20052e-08
-1.01651e-07
-1.70917e-07
-8.28123e-08
-1.92819e-07
-4.31888e-08
-2.61405e-07
-2.73246e-07
-1.51294e-07
-1.51313e-07
1.78087e-07
-1.35826e-07
-1.58582e-07
4.07894e-08
-1.10585e-07
-1.60648e-07
1.28757e-08
-5.77669e-08
-1.65305e-07
-7.3836e-08
-1.66464e-07
-8.89345e-08
-1.58562e-07
-1.35851e-07
4.0782e-08
-1.42548e-07
-1.42574e-07
-1.07097e-07
-1.1601e-07
-1.44486e-07
-1.38163e-07
-6.06833e-08
-1.48729e-07
-2.3176e-07
-1.49814e-07
-2.48638e-07
-1.60629e-07
-1.10615e-07
1.28616e-08
-1.44461e-07
-1.1604e-07
-1.3817e-07
-1.17598e-07
-1.17629e-07
-1.69949e-07
-6.15607e-08
-1.21104e-07
-2.65262e-07
-1.22067e-07
-2.82495e-07
-1.65286e-07
-5.78003e-08
-7.38585e-08
-1.48704e-07
-6.0717e-08
-2.31775e-07
-1.21074e-07
-6.15944e-08
-2.6527e-07
-6.34643e-08
-6.34985e-08
-3.64848e-07
-6.40521e-08
-3.83241e-07
-1.66445e-07
-8.89684e-08
-1.49789e-07
-2.48665e-07
-1.22037e-07
-2.82515e-07
-6.40184e-08
-3.83253e-07
-4.01958e-07
-2.17905e-07
-2.17929e-07
2.5998e-07
-1.96872e-07
-2.30706e-07
6.35917e-08
-1.60595e-07
-2.34496e-07
2.15038e-08
-8.42997e-08
-2.43215e-07
-1.03105e-07
-2.45436e-07
-1.26101e-07
-2.30682e-07
-1.96903e-07
6.35827e-08
-2.08916e-07
-2.08948e-07
-1.50618e-07
-1.70674e-07
-2.1268e-07
-1.98218e-07
-8.97319e-08
-2.2091e-07
-3.35005e-07
-2.23082e-07
-3.61251e-07
-2.34472e-07
-1.60632e-07
2.14862e-08
-2.12649e-07
-1.70712e-07
-1.98227e-07
-1.73942e-07
-1.73979e-07
-2.47354e-07
-9.15483e-08
-1.8121e-07
-3.87354e-07
-1.83309e-07
-4.14313e-07
-2.43191e-07
-8.43411e-08
-1.03133e-07
-2.20878e-07
-8.97737e-08
-3.35024e-07
-1.81172e-07
-9.15898e-08
-3.87363e-07
-9.55765e-08
-9.56189e-08
-5.36034e-07
-9.68142e-08
-5.65789e-07
-2.45413e-07
-1.26144e-07
-2.23051e-07
-3.61286e-07
-1.83273e-07
-4.14339e-07
-9.67727e-08
-5.65806e-07
-5.96376e-07
-3.17123e-07
-3.17152e-07
3.84378e-07
-2.89829e-07
-3.38683e-07
1.03843e-07
-2.37919e-07
-3.46459e-07
4.01072e-08
-1.25971e-07
-3.61133e-07
-1.40017e-07
-3.65599e-07
-1.75957e-07
-3.38653e-07
-2.89867e-07
1.03832e-07
-3.10722e-07
-3.1076e-07
-2.0647e-07
-2.55261e-07
-3.19453e-07
-2.80684e-07
-1.35465e-07
-3.34382e-07
-4.81552e-07
-3.39693e-07
-5.2334e-07
-3.46431e-07
-2.37964e-07
4.00854e-08
-3.19415e-07
-2.55307e-07
-2.80695e-07
-2.63827e-07
-2.63871e-07
-3.58524e-07
-1.40455e-07
-2.78586e-07
-5.6652e-07
-2.84659e-07
-6.10475e-07
-3.61105e-07
-1.26021e-07
-1.40051e-07
-3.34344e-07
-1.35515e-07
-4.81576e-07
-2.78542e-07
-1.40506e-07
-5.66529e-07
-1.48631e-07
-1.48682e-07
-7.95848e-07
-1.52143e-07
-8.47568e-07
-3.65571e-07
-1.76012e-07
-3.39656e-07
-5.23385e-07
-2.84617e-07
-6.10507e-07
-1.52094e-07
-8.47593e-07
-9.01671e-07
-4.54126e-07
-4.54161e-07
5.66482e-07
-4.19831e-07
-4.93098e-07
1.71643e-07
-3.47687e-07
-5.09466e-07
7.85734e-08
-1.8578e-07
-5.40248e-07
-1.79594e-07
-5.50653e-07
-2.34695e-07
-4.93063e-07
-4.19877e-07
1.71629e-07
-4.59512e-07
-4.59558e-07
-2.73562e-07
-3.84333e-07
-4.79364e-07
-3.85967e-07
-2.05922e-07
-5.12012e-07
-6.88202e-07
-5.23768e-07
-7.57127e-07
-5.09432e-07
-3.4774e-07
7.85469e-08
-4.79319e-07
-3.84386e-07
-3.85981e-07
-4.06135e-07
-4.06184e-07
-5.04889e-07
-2.17634e-07
-4.51495e-07
-8.15539e-07
-4.71794e-07
-8.81006e-07
-5.40214e-07
-1.85839e-07
-1.79635e-07
-5.11966e-07
-2.05981e-07
-6.88231e-07
-4.51443e-07
-2.17689e-07
-8.15548e-07
-2.44302e-07
-2.44364e-07
-1.21012e-06
-2.51945e-07
-1.31266e-06
-5.50621e-07
-2.34763e-07
-5.23725e-07
-7.57185e-07
-4.71747e-07
-8.81042e-07
-2.51884e-07
-1.3127e-06
-1.40707e-06
-6.56369e-07
-6.5641e-07
8.32731e-07
-6.14964e-07
-7.24221e-07
2.86334e-07
-5.18381e-07
-7.62502e-07
1.61832e-07
-2.80167e-07
-8.338e-07
-1.96084e-07
-8.65904e-07
-2.70714e-07
-7.2418e-07
-6.15017e-07
2.86319e-07
-6.894e-07
-6.89452e-07
-3.43116e-07
-6.04394e-07
-7.36675e-07
-4.96804e-07
-3.28286e-07
-8.03638e-07
-9.94475e-07
-8.247e-07
-1.12801e-06
-7.62464e-07
-5.18441e-07
1.61801e-07
-7.36627e-07
-6.04455e-07
-4.9682e-07
-6.64054e-07
-6.64109e-07
-6.50031e-07
-3.49919e-07
-6.91684e-07
-1.24163e-06
-6.89736e-07
-1.3672e-06
-8.33764e-07
-2.8023e-07
-1.9613e-07
-8.03583e-07
-3.28351e-07
-9.94521e-07
-6.91614e-07
-3.49984e-07
-1.24165e-06
-3.61287e-07
-3.6136e-07
-1.87077e-06
-3.6365e-07
-2.00117e-06
-8.65876e-07
-2.70795e-07
-8.24646e-07
-1.1281e-06
-6.89658e-07
-1.36726e-06
-3.63577e-07
-2.00121e-06
-2.13604e-06
-8.80914e-07
-8.80962e-07
1.12269e-06
-8.51261e-07
-1.02785e-06
4.69808e-07
-7.29449e-07
-1.09516e-06
2.97269e-07
-3.94389e-07
-1.2105e-06
-2.14481e-07
-1.24469e-06
-3.29997e-07
-1.0278e-06
-8.51318e-07
4.69788e-07
-9.83373e-07
-9.83428e-07
-4.31973e-07
-8.7679e-07
-1.04889e-06
-6.4966e-07
-4.54115e-07
-1.11628e-06
-1.51138e-06
-1.1361e-06
-1.69252e-06
-1.09512e-06
-7.29504e-07
2.9723e-07
-1.04885e-06
-8.7685e-07
-6.49675e-07
-8.69114e-07
-8.69173e-07
-1.00948e-06
-4.55568e-07
-9.03492e-07
-1.86796e-06
-9.05591e-07
-2.05486e-06
-1.21046e-06
-3.94446e-07
-2.14541e-07
-1.11622e-06
-4.54176e-07
-1.51143e-06
-9.03425e-07
-4.55631e-07
-1.86799e-06
-4.83481e-07
-4.83544e-07
-2.71066e-06
-4.84972e-07
-2.90676e-06
-1.24463e-06
-3.30101e-07
-1.13603e-06
-1.69261e-06
-9.0552e-07
-2.05492e-06
-4.84912e-07
-2.9068e-06
-3.10836e-06
-1.28193e-06
-1.28199e-06
1.54131e-06
-1.18705e-06
-1.475e-06
6.68557e-07
-1.00183e-06
-1.58047e-06
4.68108e-07
-5.59269e-07
-1.65109e-06
-2.8994e-07
-1.67271e-06
-5.17529e-07
-1.47495e-06
-1.18712e-06
6.68542e-07
-1.38396e-06
-1.38402e-06
-6.13953e-07
-1.11199e-06
-1.39803e-06
-1.10407e-06
-5.91953e-07
-1.47278e-06
-2.20973e-06
-1.48452e-06
-2.47486e-06
-1.58042e-06
-1.00189e-06
4.6806e-07
-1.39799e-06
-1.11204e-06
-1.10409e-06
-1.10655e-06
-1.10659e-06
-1.59236e-06
-5.94195e-07
-1.15744e-06
-2.69567e-06
-1.16643e-06
-2.96914e-06
-1.65102e-06
-5.59341e-07
-2.90009e-07
-1.47273e-06
-5.92001e-07
-2.20978e-06
-1.15739e-06
-5.94235e-07
-2.69568e-06
-6.17842e-07
-6.17889e-07
-3.78976e-06
-6.23556e-07
-4.06934e-06
-1.67261e-06
-5.17684e-07
-1.48445e-06
-2.47491e-06
-1.16638e-06
-2.96917e-06
-6.23504e-07
-4.06936e-06
-4.35833e-06
-1.80996e-06
-1.81003e-06
2.13908e-06
-1.63666e-06
-2.04491e-06
8.57539e-07
-1.34011e-06
-2.12534e-06
5.48992e-07
-7.30487e-07
-2.23719e-06
-5.21535e-07
-2.25517e-06
-8.90712e-07
-2.04484e-06
-1.63674e-06
8.57515e-07
-1.85435e-06
-1.85443e-06
-9.94932e-07
-1.49041e-06
-1.90759e-06
-1.68575e-06
-8.03168e-07
-2.02914e-06
-3.10503e-06
-2.05441e-06
-3.48158e-06
-2.12526e-06
-1.34021e-06
5.48942e-07
-1.90751e-06
-1.49049e-06
-1.68578e-06
-1.51542e-06
-1.5155e-06
-2.37653e-06
-8.18142e-07
-1.60979e-06
-3.8123e-06
-1.6316e-06
-4.21266e-06
-2.2371e-06
-7.30553e-07
-5.21672e-07
-2.02905e-06
-8.03249e-07
-3.10507e-06
-1.6097e-06
-8.18226e-07
-3.81231e-06
-8.71697e-07
-8.71787e-07
-5.26576e-06
-8.85316e-07
-5.68979e-06
-2.25509e-06
-8.90878e-07
-2.05432e-06
-3.48165e-06
-1.63151e-06
-4.2127e-06
-8.85235e-07
-5.68982e-06
-6.13306e-06
-2.65843e-06
-2.65852e-06
3.03866e-06
-2.44252e-06
-2.9451e-06
1.13838e-06
-1.97197e-06
-3.03053e-06
5.59312e-07
-1.06559e-06
-3.19525e-06
-9.33977e-07
-3.26519e-06
-1.45691e-06
-2.94501e-06
-2.44261e-06
1.13834e-06
-2.71689e-06
-2.71699e-06
-1.45116e-06
-2.18185e-06
-2.81519e-06
-2.43614e-06
-1.19692e-06
-2.99403e-06
-4.29117e-06
-3.06764e-06
-4.87918e-06
-3.03044e-06
-1.97206e-06
5.59238e-07
-2.81509e-06
-2.18195e-06
-2.43617e-06
-2.25558e-06
-2.25568e-06
-3.49554e-06
-1.25121e-06
-2.40605e-06
-5.40465e-06
-2.47227e-06
-6.06221e-06
-3.19516e-06
-1.06568e-06
-9.3412e-07
-2.99392e-06
-1.19702e-06
-4.29123e-06
-2.40594e-06
-1.25131e-06
-5.40467e-06
-1.34331e-06
-1.34342e-06
-7.39102e-06
-1.39256e-06
-8.11557e-06
-3.2651e-06
-1.4571e-06
-3.06754e-06
-4.87928e-06
-2.47216e-06
-6.06228e-06
-1.39246e-06
-8.11561e-06
-8.92262e-06
-3.64483e-06
-3.64494e-06
4.24927e-06
-3.37926e-06
-4.19658e-06
1.60903e-06
-2.7691e-06
-4.42471e-06
7.15829e-07
-1.51813e-06
-4.74998e-06
-1.37164e-06
-4.88249e-06
-2.15283e-06
-4.19646e-06
-3.37939e-06
1.60898e-06
-3.93727e-06
-3.9374e-06
-1.96952e-06
-3.18615e-06
-4.14685e-06
-3.46512e-06
-1.76695e-06
-4.49473e-06
-5.96562e-06
-4.6489e-06
-6.88415e-06
-4.4246e-06
-2.76924e-06
7.15732e-07
-4.14672e-06
-3.18629e-06
-3.46516e-06
-3.35223e-06
-3.35237e-06
-5.08451e-06
-1.87854e-06
-3.65289e-06
-7.72018e-06
-3.80088e-06
-8.7929e-06
-4.74985e-06
-1.51826e-06
-1.37182e-06
-4.49459e-06
-1.76709e-06
-5.96568e-06
-3.65274e-06
-1.87869e-06
-7.72021e-06
-2.07398e-06
-2.07414e-06
-1.05485e-05
-2.16904e-06
-1.18252e-05
-4.88237e-06
-2.15307e-06
-4.64877e-06
-6.88427e-06
-3.80074e-06
-8.79299e-06
-2.1689e-06
-1.18253e-05
-1.32667e-05
-5.35174e-06
-5.35188e-06
6.21452e-06
-5.11813e-06
-6.17106e-06
2.51153e-06
-4.16406e-06
-6.55592e-06
9.75638e-07
-2.35494e-06
-7.14129e-06
-1.83395e-06
-7.45075e-06
-3.0763e-06
-6.17091e-06
-5.11829e-06
2.51147e-06
-5.97819e-06
-5.97836e-06
-2.35494e-06
-4.88743e-06
-6.46164e-06
-4.65015e-06
-2.80045e-06
-7.14098e-06
-8.0529e-06
-7.55601e-06
-9.58425e-06
-6.55578e-06
-4.16423e-06
9.75521e-07
-6.46147e-06
-4.88762e-06
-4.6502e-06
-5.35662e-06
-5.35681e-06
-7.29418e-06
-3.13263e-06
-5.98984e-06
-1.10953e-05
-6.38926e-06
-1.30965e-05
-7.14115e-06
-2.35511e-06
-1.83416e-06
-7.14081e-06
-2.80065e-06
-8.05299e-06
-5.98964e-06
-3.13284e-06
-1.10954e-05
-3.53063e-06
-3.53084e-06
-1.54665e-05
-3.81566e-06
-1.79326e-05
-7.45064e-06
-3.07658e-06
-7.55585e-06
-9.58442e-06
-6.38907e-06
-1.30966e-05
-3.81548e-06
-1.79327e-05
-2.09024e-05
-7.3221e-06
-7.3223e-06
8.97291e-06
-7.05312e-06
-8.7787e-06
4.03349e-06
-5.8511e-06
-9.55383e-06
1.71991e-06
-3.30908e-06
-1.05387e-05
-2.18321e-06
-1.11047e-05
-4.06657e-06
-8.7785e-06
-7.05335e-06
4.03341e-06
-8.61106e-06
-8.61129e-06
-2.68978e-06
-7.1191e-06
-9.46468e-06
-6.23126e-06
-4.13062e-06
-1.06581e-05
-1.09219e-05
-1.13495e-05
-1.34766e-05
-9.55363e-06
-5.85135e-06
1.71975e-06
-9.46445e-06
-7.11935e-06
-6.23131e-06
-7.91736e-06
-7.91761e-06
-1.03883e-05
-4.64451e-06
-8.99036e-06
-1.60359e-05
-9.65386e-06
-1.94425e-05
-1.05385e-05
-3.30932e-06
-2.18347e-06
-1.06579e-05
-4.13088e-06
-1.09221e-05
-8.99011e-06
-4.64476e-06
-1.60359e-05
-5.37538e-06
-5.37563e-06
-2.2696e-05
-5.78381e-06
-2.71833e-05
-1.11045e-05
-4.06694e-06
-1.13493e-05
-1.34768e-05
-9.65362e-06
-1.94427e-05
-5.78358e-06
-2.71834e-05
-3.24779e-05
-1.07015e-05
-1.07017e-05
1.36048e-05
-1.08569e-05
-1.33318e-05
7.27108e-06
-9.15973e-06
-1.47963e-05
3.569e-06
-5.31974e-06
-1.65625e-05
-1.99886e-06
-1.78879e-05
-4.83943e-06
-1.33315e-05
-1.08572e-05
7.271e-06
-1.34913e-05
-1.34916e-05
-2.37013e-06
-1.13907e-05
-1.5475e-05
-7.65322e-06
-6.87301e-06
-1.75993e-05
-1.44028e-05
-1.93387e-05
-1.89045e-05
-1.47961e-05
-9.16004e-06
3.5688e-06
-1.54747e-05
-1.1391e-05
-7.6533e-06
-1.32539e-05
-1.32542e-05
-1.48299e-05
-8.25515e-06
-1.51787e-05
-2.34552e-05
-1.69735e-05
-3.00687e-05
-1.65622e-05
-5.32004e-06
-1.99921e-06
-1.7599e-05
-6.87333e-06
-1.4403e-05
-1.51784e-05
-8.25546e-06
-2.34553e-05
-9.59775e-06
-9.59807e-06
-3.38573e-05
-1.10913e-05
-4.26671e-05
-1.78877e-05
-4.83988e-06
-1.93384e-05
-1.89048e-05
-1.69732e-05
-3.00689e-05
-1.1091e-05
-4.26672e-05
-5.46666e-05
-1.42744e-05
-1.42747e-05
1.98761e-05
-1.44731e-05
-1.80969e-05
1.18531e-05
-1.22561e-05
-2.06902e-05
6.41661e-06
-7.31101e-06
-2.37303e-05
-8.61513e-07
-2.59644e-05
-5.50514e-06
-1.80966e-05
-1.44735e-05
1.1853e-05
-1.88567e-05
-1.88571e-05
-8.49765e-07
-1.61856e-05
-2.19964e-05
-9.01813e-06
-1.00191e-05
-2.58097e-05
-1.84898e-05
-2.87357e-05
-2.61618e-05
-2.06899e-05
-1.22565e-05
6.41641e-06
-2.1996e-05
-1.6186e-05
-9.01825e-06
-1.92111e-05
-1.92115e-05
-2.03998e-05
-1.19902e-05
-2.2899e-05
-3.35868e-05
-2.59446e-05
-4.48585e-05
-2.37299e-05
-7.3113e-06
-8.62073e-07
-2.58093e-05
-1.00195e-05
-1.84901e-05
-2.28986e-05
-1.19906e-05
-3.35869e-05
-1.4949e-05
-1.49494e-05
-4.97564e-05
-1.68268e-05
-6.67413e-05
-2.59641e-05
-5.50569e-06
-2.87353e-05
-2.61622e-05
-2.59442e-05
-4.48588e-05
-1.68265e-05
-6.67415e-05
-8.83308e-05
-2.06025e-05
-2.06029e-05
3.04229e-05
-2.24579e-05
-2.76309e-05
2.13759e-05
-1.98707e-05
-3.28424e-05
1.35514e-05
-1.25271e-05
-3.78247e-05
3.01962e-06
-4.27228e-05
-4.56503e-06
-2.76305e-05
-2.24584e-05
2.13758e-05
-3.01257e-05
-3.01262e-05
4.14079e-06
-2.61592e-05
-3.68605e-05
-8.96657e-06
-1.69685e-05
-4.35953e-05
-2.191e-05
-5.12315e-05
-3.46287e-05
-3.2842e-05
-1.98712e-05
1.35512e-05
-3.686e-05
-2.61597e-05
-8.96671e-06
-3.33374e-05
-3.3338e-05
-2.74449e-05
-2.30712e-05
-4.01645e-05
-4.72837e-05
-4.93421e-05
-6.98269e-05
-3.78242e-05
-1.25276e-05
3.01885e-06
-4.35948e-05
-1.6969e-05
-2.19102e-05
-4.0164e-05
-2.30717e-05
-4.72839e-05
-2.83653e-05
-2.83658e-05
-7.33538e-05
-3.72034e-05
-0.000107249
-4.27223e-05
-4.56581e-06
-5.1231e-05
-3.46291e-05
-4.93416e-05
-6.98272e-05
-3.72029e-05
-0.000107249
-0.000162746
-2.6058e-05
-2.60584e-05
4.33837e-05
-2.79572e-05
-3.5193e-05
3.31134e-05
-2.45242e-05
-4.41333e-05
2.30007e-05
-1.56628e-05
-5.33471e-05
1.11141e-05
-6.23615e-05
-6.67623e-07
-3.51925e-05
-2.79577e-05
3.31133e-05
-4.04805e-05
-4.0481e-05
1.47168e-05
-3.66006e-05
-5.1246e-05
-5.73377e-06
-2.4997e-05
-6.37942e-05
-2.30665e-05
-7.70611e-05
-4.49382e-05
-4.41328e-05
-2.45247e-05
2.30004e-05
-5.12455e-05
-3.66011e-05
-5.73397e-06
-4.82414e-05
-4.8242e-05
-3.3453e-05
-3.30134e-05
-6.235e-05
-6.39559e-05
-7.76363e-05
-0.000102276
-5.33467e-05
-1.56634e-05
1.11135e-05
-6.37937e-05
-2.49975e-05
-2.30669e-05
-6.23494e-05
-3.3014e-05
-6.39562e-05
-4.68073e-05
-4.68079e-05
-0.000104438
-5.60993e-05
-0.000175602
-6.23609e-05
-6.68776e-07
-7.70605e-05
-4.49388e-05
-7.76357e-05
-0.000102276
-5.60987e-05
-0.000175603
-0.000274953
-3.67539e-05
-3.67546e-05
6.56845e-05
-4.26532e-05
-5.2286e-05
5.54069e-05
-3.92712e-05
-6.85226e-05
4.37384e-05
-2.77162e-05
-8.44711e-05
3.00653e-05
-0.000103937
1.28924e-05
-5.22854e-05
-4.26539e-05
5.54068e-05
-6.27138e-05
-6.27145e-05
3.55738e-05
-5.88222e-05
-8.62836e-05
8.13561e-06
-4.17724e-05
-0.000108283
-1.63041e-05
-0.000142592
-4.80614e-05
-6.85219e-05
-3.92719e-05
4.3738e-05
-8.62828e-05
-5.88229e-05
8.13535e-06
-8.64727e-05
-8.64735e-05
-3.30732e-05
-6.85157e-05
-0.000112784
-7.74121e-05
-0.000164091
-0.000149301
-8.44705e-05
-2.7717e-05
3.00647e-05
-0.000108283
-4.1773e-05
-1.63046e-05
-0.000112784
-6.85165e-05
-7.74124e-05
-9.2107e-05
-9.21079e-05
-0.000145791
-0.000149883
-0.000281917
-0.000103936
1.28907e-05
-0.000142592
-4.8062e-05
-0.000164091
-0.000149301
-0.000149882
-0.000281917
-0.000574731
-4.25288e-05
-4.25296e-05
9.03657e-05
-4.90693e-05
-6.23441e-05
8.21976e-05
-4.61008e-05
-8.56753e-05
6.9237e-05
-3.06672e-05
-0.000111569
5.71283e-05
-0.000147674
3.7584e-05
-6.23433e-05
-4.907e-05
8.21975e-05
-7.74038e-05
-7.74045e-05
6.56947e-05
-7.96333e-05
-0.000114461
3.91511e-05
-6.33748e-05
-0.000154813
1.06819e-05
-0.000218417
-4.07055e-05
-8.56744e-05
-4.61014e-05
6.92366e-05
-0.00011446
-7.96341e-05
3.91509e-05
-0.000122985
-0.000122986
-1.60232e-05
-9.57179e-05
-0.00018258
-7.69125e-05
-0.000265637
-0.000197806
-0.000111568
-3.06676e-05
5.71277e-05
-0.000154812
-6.33753e-05
1.06811e-05
-0.000182579
-9.5719e-05
-7.69131e-05
-0.000169176
-0.000169177
-0.000172597
-0.000218245
-0.000498494
-0.000147674
3.75823e-05
-0.000218416
-4.07068e-05
-0.000265636
-0.000197808
-0.000218244
-0.000498494
-0.00101121
-5.52381e-05
-5.52393e-05
0.000129736
-6.92471e-05
-8.6179e-05
0.000126754
-6.94266e-05
-0.000125639
0.000120673
-5.42789e-05
-0.000168597
0.000112515
-0.000238745
9.89224e-05
-8.6178e-05
-6.92482e-05
0.000126754
-0.000112104
-0.000112105
0.000117546
-0.000118095
-0.000180637
0.00010014
-9.50045e-05
-0.000255247
7.42421e-05
-0.000400467
2.60109e-05
-0.000125638
-6.94278e-05
0.000120672
-0.000180636
-0.000118096
0.00010014
-0.000217377
-0.000217378
5.74595e-05
-0.000199738
-0.000328433
-2.13661e-05
-0.000641066
-0.000156947
-0.000168595
-5.42803e-05
0.000112515
-0.000255246
-9.50056e-05
7.42419e-05
-0.000328431
-0.000199739
-2.13668e-05
-0.000318905
-0.000318906
-0.00019165
-0.00073681
-0.000721629
-0.000238744
9.89204e-05
-0.000400465
2.60102e-05
-0.000641065
-0.00015695
-0.000736809
-0.000721629
-0.000425308
-0.000599331
-0.000599332
-0.000860903
-5.25864e-05
-5.2588e-05
0.000165127
-6.60965e-05
-8.78093e-05
0.000174401
-6.93258e-05
-0.000137542
0.000178159
-5.32895e-05
-0.000196558
0.000187822
-0.000315344
0.000188995
-8.78079e-05
-6.60981e-05
0.0001744
-0.000119016
-0.000119017
0.000179961
-0.000142148
-0.000207219
0.00019295
-0.000136281
-0.000315657
0.000187474
-0.000646095
0.000220471
-0.00013754
-6.93273e-05
0.000178158
-0.000207218
-0.000142149
0.00019295
-0.000280357
-0.000280359
0.000203739
-0.000269785
-0.00056585
0.000218255
-0.00130217
0.000229356
-0.000196556
-5.3291e-05
0.000187821
-0.000315655
-0.000136282
0.000187475
-0.000565849
-0.000269788
0.000218255
-0.000728256
-0.000728256
0.000133164
-0.000299369
-1.61491e-05
-9.70716e-05
-0.000188605
-0.000344494
-0.000377651
-0.000592938
-0.000835809
-0.000315341
0.000188993
-0.000646093
0.000220472
-0.00130217
0.000229352
-0.000299369
-1.6149e-05
-0.000188605
-9.70712e-05
-0.000344494
-0.00037765
-0.000592937
-0.000835809
-0.000218645
-0.000218646
-0.000586756
-5.35619e-05
-5.35639e-05
0.000207638
-7.35845e-05
-9.76534e-05
0.000231193
-8.16377e-05
-0.000156799
0.000257398
-7.11248e-05
-0.000246012
0.000289221
-0.000377661
0.000330727
-9.76518e-05
-7.35865e-05
0.000231193
-0.000140706
-0.000140707
0.000266068
-0.000163725
-0.000258612
0.000317782
-0.000129533
-0.000469233
0.000376505
-0.00075425
0.000467532
-0.000156797
-8.164e-05
0.000257398
-0.00025861
-0.000163725
0.000317782
-0.000370899
-0.000370902
0.000428318
-0.000377624
-0.000823532
0.000579278
-0.000387916
0.000876188
-0.000535728
-0.000385871
-0.000469148
-0.00024601
-7.11273e-05
0.000289221
-0.000469231
-0.000129534
0.000376506
-0.000823531
-0.000377627
0.000579279
-0.000205363
-0.000205363
0.000251492
-0.000466241
-0.000232764
-0.000496917
-0.000466241
-0.000232764
-0.000496917
0.000295824
0.000295825
0.000445529
-0.000157973
-0.000640612
0.000189157
-0.000377658
0.000330725
-0.000754247
0.000467535
-0.000387915
0.000876183
-0.000535727
-0.00038587
-0.000469147
-0.000640611
-0.000157973
0.000189157
0.000219682
0.000219682
0.000129733
-0.000234612
-0.000234612
-9.98722e-05
-2.13771e-05
-2.13795e-05
0.000222281
-2.61146e-05
-4.30033e-05
0.000247439
-2.53264e-05
-5.40503e-05
0.000272392
-1.948e-05
-7.90685e-05
0.000298902
-8.65839e-05
0.000329755
-4.30013e-05
-2.61161e-05
0.000247438
-5.4123e-05
-5.41242e-05
0.000288311
-5.6826e-05
-6.49199e-05
0.000331355
-3.54789e-05
-0.000114846
0.000390935
-9.78848e-05
0.000443334
-5.40458e-05
-2.5329e-05
0.000272392
-6.49173e-05
-5.6825e-05
0.000331355
-5.68201e-05
-5.68229e-05
0.000412124
-3.4463e-05
-7.26553e-05
0.000510648
-0.00010153
9.40467e-06
9.62078e-05
-0.000149379
0.000667505
-0.000218541
0.000162175
0.000282237
-7.90645e-05
-1.94841e-05
0.000298903
-0.000114843
-3.54777e-05
0.000390937
-7.26552e-05
-3.44664e-05
0.000510652
-0.00010153
9.40483e-06
9.62082e-05
-7.69722e-05
-7.69721e-05
0.000260126
-0.000448539
6.60756e-05
-4.43531e-05
0.000490044
-1.09786e-05
-8.36061e-05
-0.000106348
-1.16741e-05
-8.65784e-05
0.000329752
-9.78812e-05
0.000443341
-0.000149377
0.000667488
-0.00021854
0.000162176
0.000282238
-0.000448539
6.6075e-05
-4.43515e-05
0.000490044
-1.09784e-05
-8.36059e-05
-0.000106348
-1.1674e-05
-0.000240035
0.000155201
0.000155201
-0.000202012
-0.000202013
0.000333658
-3.5851e-06
-3.58931e-06
0.000221922
-2.49906e-06
-6.6001e-06
0.000245764
3.44239e-06
4.09708e-06
0.000256011
7.37969e-06
2.13672e-05
0.000270851
6.69274e-05
0.000270682
-6.59702e-06
-2.50437e-06
0.000245763
-8.03436e-07
-8.06059e-07
0.000276723
9.21247e-06
3.06007e-05
0.000294835
1.22683e-05
8.46158e-05
0.000324631
0.000190863
0.000331656
4.10306e-06
3.43668e-06
0.00025601
3.06013e-05
9.21517e-06
0.000294835
8.58335e-05
8.58312e-05
0.000301661
0.000113169
0.000260218
0.000307711
0.000238043
0.000203309
0.000332973
7.80914e-05
0.000119227
2.13717e-05
7.3768e-06
0.000270849
8.46181e-05
1.22724e-05
0.000324633
0.000260221
0.000113165
0.000307714
0.00011553
0.000115536
0.000109547
-0.000153518
-0.000180552
-0.000180552
-0.000276893
0.000331865
4.41643e-05
0.000109637
0.00033187
4.41712e-05
0.000109633
-0.000218364
0.000107735
0.000480812
-1.66094e-05
6.69343e-05
0.000270682
0.000190876
0.000331664
0.000238041
0.000203301
0.000332977
7.80899e-05
0.000119221
-0.000218366
0.00048081
0.000107742
-1.66087e-05
1.97166e-05
-0.000227003
-0.000227005
0.000279397
0.000279397
-0.000124502
1.70174e-05
1.70126e-05
0.000215026
1.69007e-05
1.12239e-05
0.000240014
1.08029e-05
7.27674e-06
0.000262595
-5.90594e-08
-1.61841e-05
0.000287846
-5.48935e-05
0.000316818
1.12255e-05
1.68962e-05
0.000240015
7.1026e-06
7.10306e-06
0.000284967
-5.80439e-06
-1.03277e-05
0.000325346
-7.3297e-06
-7.50898e-05
0.000385062
-0.000163543
0.000432991
7.28477e-06
1.07952e-05
0.000262596
-1.03236e-05
-5.80165e-06
0.000325348
-6.13834e-05
-6.14033e-05
0.000403796
-9.82319e-05
-0.000234259
0.000503729
-6.18159e-05
0.000650886
-9.45751e-05
-0.000202353
-0.000350595
-1.6175e-05
-7.44946e-08
0.000287848
-7.50833e-05
-7.32336e-06