/*--------------------------------*- C++ -*----------------------------------*\
| =========                 |                                                 |
| \\      /  F ield         | OpenFOAM: The Open Source CFD Toolbox           |
|  \\    /   O peration     | Version:  5.x                                   |
|   \\  /    A nd           | Web:      www.OpenFOAM.org                      |
|    \\/     M anipulation  |                                                 |
\*---------------------------------------------------------------------------*/
FoamFile
{
    version     2.0;
    format      ascii;
    class       volScalarField;
    location    "0.018";
    object      phiIB;
}
// * * * * * * * * * * * * * * * * * * * * * * * * * * * * * * * * * * * * * //

dimensions      [0 2 -1 0 0 0 0];

internalField   nonuniform List<scalar> 
1560
(
-5.19501e-06
-5.19752e-06
-5.20189e-06
-5.20061e-06
-5.20124e-06
-5.19752e-06
-5.19501e-06
-5.19776e-06
-5.19631e-06
-5.19703e-06
-5.20189e-06
-5.19776e-06
-5.19921e-06
-5.19746e-06
-5.19808e-06
-5.20061e-06
-5.19631e-06
-5.19746e-06
-5.19552e-06
-5.19608e-06
-5.20124e-06
-5.19703e-06
-5.19808e-06
-5.19608e-06
-5.19664e-06
-9.69474e-06
-9.69083e-06
-9.69143e-06
-9.69001e-06
-9.69e-06
-9.69082e-06
-9.68781e-06
-9.68827e-06
-9.68715e-06
-9.68721e-06
-9.69143e-06
-9.68827e-06
-9.68841e-06
-9.68715e-06
-9.68713e-06
-9.69e-06
-9.68715e-06
-9.68715e-06
-9.68593e-06
-9.68588e-06
-9.69e-06
-9.68721e-06
-9.68713e-06
-9.68588e-06
-9.68581e-06
-2.41522e-05
-2.41455e-05
-2.4145e-05
-2.41422e-05
-2.41422e-05
-2.41455e-05
-2.41391e-05
-2.41388e-05
-2.4136e-05
-2.4136e-05
-2.4145e-05
-2.41388e-05
-2.41386e-05
-2.41357e-05
-2.41357e-05
-2.41422e-05
-2.4136e-05
-2.41357e-05
-2.41327e-05
-2.41327e-05
-2.41422e-05
-2.4136e-05
-2.41357e-05
-2.41327e-05
-2.41327e-05
-3.12542e-05
-3.12463e-05
-3.12456e-05
-3.12417e-05
-3.12414e-05
-3.12463e-05
-3.12388e-05
-3.12382e-05
-3.12344e-05
-3.12342e-05
-3.12456e-05
-3.12382e-05
-3.12376e-05
-3.12338e-05
-3.12336e-05
-3.12417e-05
-3.12344e-05
-3.12338e-05
-3.12301e-05
-3.12298e-05
-3.12414e-05
-3.12342e-05
-3.12336e-05
-3.12298e-05
-3.12295e-05
-4.38576e-05
-4.38472e-05
-4.38464e-05
-4.38412e-05
-4.38411e-05
-4.38472e-05
-4.38365e-05
-4.38357e-05
-4.38304e-05
-4.38303e-05
-4.38464e-05
-4.38357e-05
-4.3835e-05
-4.38296e-05
-4.38294e-05
-4.38412e-05
-4.38304e-05
-4.38296e-05
-4.38241e-05
-4.38239e-05
-4.38411e-05
-4.38303e-05
-4.38294e-05
-4.38239e-05
-4.38235e-05
-5.28796e-05
-5.28652e-05
-5.28641e-05
-5.28569e-05
-5.28567e-05
-5.28651e-05
-5.28505e-05
-5.28494e-05
-5.2842e-05
-5.28419e-05
-5.28641e-05
-5.28494e-05
-5.28484e-05
-5.28409e-05
-5.28407e-05
-5.28569e-05
-5.2842e-05
-5.28409e-05
-5.28333e-05
-5.2833e-05
-5.28567e-05
-5.28419e-05
-5.28407e-05
-5.2833e-05
-5.28327e-05
-6.38746e-05
-6.38545e-05
-6.38532e-05
-6.38432e-05
-6.38432e-05
-6.38545e-05
-6.38338e-05
-6.38324e-05
-6.3822e-05
-6.3822e-05
-6.38532e-05
-6.38324e-05
-6.3831e-05
-6.38205e-05
-6.38205e-05
-6.38432e-05
-6.3822e-05
-6.38205e-05
-6.38098e-05
-6.38097e-05
-6.38432e-05
-6.3822e-05
-6.38205e-05
-6.38097e-05
-6.38095e-05
-7.40342e-05
-7.40058e-05
-7.40041e-05
-7.39901e-05
-7.39903e-05
-7.40058e-05
-7.39764e-05
-7.39746e-05
-7.396e-05
-7.396e-05
-7.40041e-05
-7.39746e-05
-7.39727e-05
-7.3958e-05
-7.39581e-05
-7.39901e-05
-7.396e-05
-7.3958e-05
-7.39429e-05
-7.3943e-05
-7.39903e-05
-7.396e-05
-7.39581e-05
-7.3943e-05
-7.39429e-05
-8.41649e-05
-8.4125e-05
-8.41229e-05
-8.41036e-05
-8.4104e-05
-8.4125e-05
-8.40833e-05
-8.4081e-05
-8.40607e-05
-8.4061e-05
-8.41229e-05
-8.4081e-05
-8.40788e-05
-8.40583e-05
-8.40586e-05
-8.41036e-05
-8.40607e-05
-8.40583e-05
-8.4037e-05
-8.40371e-05
-8.4104e-05
-8.4061e-05
-8.40586e-05
-8.40372e-05
-8.40371e-05
-9.4725e-05
-9.46696e-05
-9.46682e-05
-9.46425e-05
-9.46439e-05
-9.46696e-05
-9.46112e-05
-9.46094e-05
-9.4582e-05
-9.45833e-05
-9.46682e-05
-9.46094e-05
-9.4608e-05
-9.45805e-05
-9.4582e-05
-9.46425e-05
-9.4582e-05
-9.45805e-05
-9.4552e-05
-9.45533e-05
-9.46439e-05
-9.45833e-05
-9.4582e-05
-9.45533e-05
-9.45545e-05
-0.000104443
-0.000104367
-0.000104369
-0.000104336
-0.000104339
-0.000104367
-0.000104286
-0.000104287
-0.000104252
-0.000104255
-0.000104369
-0.000104287
-0.00010429
-0.000104254
-0.000104258
-0.000104336
-0.000104252
-0.000104254
-0.000104216
-0.00010422
-0.000104339
-0.000104255
-0.000104258
-0.00010422
-0.000104224
-0.000114884
-0.000114783
-0.000114796
-0.00011476
-0.000114771
-0.000114783
-0.000114674
-0.000114689
-0.000114649
-0.000114661
-0.000114796
-0.000114689
-0.000114707
-0.000114671
-0.000114686
-0.00011476
-0.000114649
-0.000114671
-0.000114633
-0.000114648
-0.000114771
-0.000114661
-0.000114686
-0.000114648
-0.000114664
-0.000124192
-0.000124059
-0.000124098
-0.000124062
-0.000124088
-0.000124059
-0.000123917
-0.00012396
-0.00012392
-0.000123948
-0.000124098
-0.00012396
-0.000124017
-0.000123991
-0.000124031
-0.000124062
-0.00012392
-0.000123991
-0.000123992
-0.000124053
-0.000124088
-0.000123949
-0.000124031
-0.000124053
-0.000124128
-0.000133951
-0.000133789
-0.000133878
-0.000133862
-0.000133923
-0.000133789
-0.000133612
-0.000133722
-0.000133723
-0.000133801
-0.000133878
-0.000133722
-0.00013387
-0.00013391
-0.000134005
-0.000133862
-0.000133723
-0.00013391
-0.000133996
-0.000134123
-0.000133923
-0.000133801
-0.000134005
-0.000134123
-0.000134264
-0.000142256
-0.000141977
-0.000142089
-0.000142067
-0.000142158
-0.000141977
-0.000141711
-0.000141882
-0.000141956
-0.0001421
-0.000142089
-0.000141882
-0.000142127
-0.000142227
-0.000142354
-0.000142067
-0.000141956
-0.000142227
-0.000142217
-0.000142269
-0.000142158
-0.0001421
-0.000142354
-0.000142269
-0.000142286
-0.000150468
-0.000149953
-0.000149969
-0.000149808
-0.000149851
-0.000149953
-0.000149532
-0.000149648
-0.00014951
-0.000149525
-0.000149969
-0.000149648
-0.000149773
-0.000149494
-0.000149435
-0.000149808
-0.00014951
-0.000149494
-0.000149099
-0.000149001
-0.000149851
-0.000149525
-0.000149435
-0.000149001
-0.00014888
-0.000156374
-0.000155559
-0.000155354
-0.000154853
-0.000154819
-0.000155558
-0.000154876
-0.000154739
-0.000154039
-0.000153852
-0.000155354
-0.000154739
-0.000154443
-0.000153632
-0.000153393
-0.000154853
-0.000154039
-0.000153632
-0.000152875
-0.00015264
-0.000154818
-0.000153852
-0.000153393
-0.00015264
-0.000152384
-0.000161172
-0.000160047
-0.000159607
-0.000158875
-0.000158749
-0.000160047
-0.000158846
-0.000158322
-0.000157391
-0.000157138
-0.000159607
-0.000158322
-0.000157638
-0.000156565
-0.000156202
-0.000158874
-0.00015739
-0.000156565
-0.000155388
-0.000154929
-0.000158748
-0.000157137
-0.000156201
-0.000154929
-0.000154415
-0.000163636
-0.000162057
-0.000161346
-0.000160282
-0.000159939
-0.000162057
-0.000160187
-0.000159245
-0.000157887
-0.000157424
-0.000161345
-0.000159245
-0.000157997
-0.00015638
-0.000155755
-0.000160282
-0.000157887
-0.000156379
-0.000154506
-0.000153748
-0.000159938
-0.000157423
-0.000155754
-0.000153748
-0.000152922
-0.000166676
-0.000164405
-0.000163428
-0.000162009
-0.00016162
-0.000164405
-0.000161794
-0.000160582
-0.000158825
-0.000158242
-0.000163427
-0.000160582
-0.000159073
-0.000157015
-0.000156311
-0.000162008
-0.000158825
-0.000157015
-0.000154736
-0.000153932
-0.000161619
-0.000158241
-0.00015631
-0.000153932
-0.000153116
-0.000167466
-0.000164387
-0.000163022
-0.000161082
-0.000160501
-0.000164386
-0.000160545
-0.000158703
-0.000156267
-0.000155436
-0.000163022
-0.000158702
-0.00015647
-0.000153824
-0.000152891
-0.000161082
-0.000156266
-0.000153824
-0.000151119
-0.000150124
-0.0001605
-0.000155435
-0.00015289
-0.000150123
-0.000149031
-0.000170763
-0.000166813
-0.00016551
-0.000163415
-0.000162996
-0.000166813
-0.000162129
-0.000160255
-0.000157387
-0.000156501
-0.00016551
-0.000160255
-0.000157899
-0.000154606
-0.00015356
-0.000163415
-0.000157387
-0.000154606
-0.000151013
-0.000149676
-0.000162995
-0.0001565
-0.00015356
-0.000149676
-0.000148251
-0.000169471
-0.00016424
-0.000162481
-0.00015998
-0.000159009
-0.00016424
-0.000158009
-0.000155216
-0.000151553
-0.000150146
-0.00016248
-0.000155215
-0.000151755
-0.000147419
-0.00014538
-0.000159979
-0.000151553
-0.000147418
-0.000142432
-0.000139978
-0.000159008
-0.000150146
-0.00014538
-0.000139978
-0.000136954
-0.000173968
-0.000167425
-0.000166101
-0.000163094
-0.00016284
-0.000167425
-0.000159402
-0.000156362
-0.00015182
-0.000150041
-0.0001661
-0.000156362
-0.000152205
-0.000146191
-0.000143715
-0.000163094
-0.000151819
-0.00014619
-0.000139322
-0.000135628
-0.000162839
-0.00015004
-0.000143715
-0.000135628
-0.00013149
-0.000168226
-0.000159599
-0.000157061
-0.00015416
-0.00015279
-0.000159598
-0.000149348
-0.000145078
-0.00013898
-0.000135546
-0.000157061
-0.000145078
-0.00013745
-0.000129313
-0.000123309
-0.000154159
-0.000138979
-0.000129313
-0.000119693
-0.000112059
-0.000152789
-0.000135546
-0.000123309
-0.00011206
-0.000101008
-0.000175311
-0.000164272
-0.000161932
-0.00015648
-0.000156414
-0.000164271
-0.000149565
-0.000144588
-0.000137386
-0.00013251
-0.000161931
-0.000144588
-0.00013626
-0.000124823
-0.00011757
-0.000156478
-0.000137386
-0.000124823
-0.000112127
-9.9469e-05
-0.000156413
-0.000132509
-0.00011757
-9.94693e-05
-8.45526e-05
-0.000163048
-0.000150393
-0.000144458
-0.000138979
-0.000134545
-0.000150392
-0.000132086
-0.000122956
-0.000113767
-0.000104302
-0.000144457
-0.000122956
-0.000105864
-9.08308e-05
-7.09877e-05
-0.000138978
-0.000113766
-9.08308e-05
-7.22439e-05
-4.5282e-05
-0.000134544
-0.000104302
-7.09877e-05
-4.52827e-05
4.23424e-06
-0.000176467
-0.000161259
-0.000157358
-0.000148735
-0.000145228
-0.000161257
-0.000138176
-0.000122757
-0.000113205
-9.93636e-05
-0.000157356
-0.000122757
-0.00010508
-8.42363e-05
-6.09619e-05
-0.000148734
-0.000113206
-8.42367e-05
-6.39331e-05
-1.3232e-05
-0.000145226
-9.93641e-05
-6.09626e-05
-1.32328e-05
4.87781e-05
-0.000155939
-0.000141918
-0.000129794
-0.000122643
-0.000108882
-0.000141917
-0.000116033
-9.40837e-05
-7.70491e-05
-5.63436e-05
-0.000129792
-9.40838e-05
-5.2006e-05
-2.82498e-05
3.47691e-05
-0.000122644
-7.70511e-05
-2.82514e-05
8.87299e-06
0.000105994
-0.000108884
-5.63468e-05
3.47663e-05
0.000105993
0.000360598
-0.000177865
-0.000165249
-0.000162201
-0.000155106
-0.00015006
-0.000165247
-0.000145172
-0.000124209
-0.000109691
-6.80198e-05
-0.0001622
-0.00012421
-8.36811e-05
-3.62886e-05
4.30058e-05
-0.000155109
-0.000109696
-3.62912e-05
-8.18728e-06
0.000227933
-0.000150063
-6.80257e-05
4.30014e-05
0.00022793
0.00025301
-0.000150293
-0.000139888
-0.000125216
-0.000119353
-9.80412e-05
-0.000139887
-0.000118347
-9.50273e-05
-7.0348e-05
-5.48351e-05
-0.000125218
-9.50298e-05
-3.05924e-05
1.58562e-05
0.000138176
-0.000119361
-7.03574e-05
1.58501e-05
0.000138659
0.000172146
-9.80515e-05
-5.48478e-05
0.000138167
0.000172141
0.000508357
-0.000177929
-0.000178192
-0.000178211
-0.000184355
-0.000187285
-0.000178192
-0.000169955
-0.000170797
-0.000164629
-0.000174239
-0.000178215
-0.000170803
-0.000170477
-0.000179276
-0.000206911
-0.000184369
-0.000164645
-0.000179287
-9.88026e-05
-0.000107442
-0.000187301
-0.000174261
-0.000206928
-0.000107449
0.000189098
-0.000149303
-0.000146899
-0.000142422
-0.000141951
-0.000141198
-0.000146903
-0.000147355
-0.000142456
-0.000146759
-0.000149697
-0.000142431
-0.000142467
-0.000138043
-0.000144577
-0.000153403
-0.000141974
-0.000146784
-0.000144599
-0.000170039
-0.000192082
-0.000141229
-0.000149733
-0.000153449
-0.000192098
-0.000454189
-0.00017458
-0.000183424
-0.000181695
-0.000189577
-0.000185648
-0.000183427
-0.000187538
-0.000187863
-0.000183898
-0.000178436
-0.000181703
-0.000187874
-0.000178196
-0.000177329
-0.000142434
-0.000189604
-0.000183924
-0.000177356
-0.000111459
-7.06751e-05
-0.000185674
-0.000178469
-0.000142495
-7.07188e-05
0.000147933
-0.000140277
-0.000146742
-0.000148685
-0.000157205
-0.00016589
-0.000146743
-0.000163513
-0.000173468
-0.00019359
-0.00021146
-0.000148694
-0.000173475
-0.000192224
-0.000222016
-0.00031075
-0.000157228
-0.00019361
-0.000222034
-0.000178252
2.43912e-05
-0.00016592
-0.000211482
-0.000310761
2.43397e-05
0.000134833
-0.00018288
-0.00020152
-0.000211716
-0.000228706
-0.000245954
-0.00020152
-0.000226309
-0.000245908
-0.000272702
-0.000298089
-0.000211718
-0.000245911
-0.000289036
-0.000342349
-0.000436378
-0.000228715
-0.00027271
-0.000342352
-0.000407968
-0.000440337
-0.000245963
-0.000298097
-0.000436375
-0.000440347
-0.000834659
-0.000124594
-0.000137808
-0.000139472
-0.000151352
-0.000156245
-0.000137807
-0.000154712
-0.000170431
-0.000190278
-0.000221758
-0.000139472
-0.000170432
-0.000196992
-0.000245688
-0.000287844
-0.000151355
-0.000190281
-0.000245688
-0.000309024
-0.000469969
-0.000156251
-0.000221761
-0.000287843
-0.000469969
-0.000816377
-0.00017053
-0.000193486
-0.000200228
-0.000214591
-0.00022198
-0.000193483
-0.000223164
-0.000236662
-0.000257258
-0.000271238
-0.000200224
-0.000236662
-0.000258332
-0.000286137
-0.000322808
-0.00021459
-0.000257259
-0.000286136
-0.000338217
-0.000407158
-0.000221979
-0.00027124
-0.000322807
-0.000407159
-0.000522911
-7.61512e-05
-8.81356e-05
-8.98521e-05
-9.63139e-05
-9.75364e-05
-8.8134e-05
-0.000102273
-0.000108194
-0.00011191
-0.00011626
-8.98502e-05
-0.000108194
-0.000110252
-0.000118645
-0.000119867
-9.63137e-05
-0.000111912
-0.000118646
-0.000127041
-0.00014536
-9.75375e-05
-0.000116264
-0.00011987
-0.000145362
-0.000147064
-4.40323e-05
-6.09226e-05
-5.31228e-05
-6.14902e-05
-5.92099e-05
-6.09211e-05
-7.99704e-05
-7.77091e-05
-8.97525e-05
-9.6447e-05
-5.31211e-05
-7.77094e-05
-8.02491e-05
-0.000103341
-0.000120005
-6.14894e-05
-8.97528e-05
-0.000103341
-0.000133368
-0.000161991
-5.92093e-05
-9.64466e-05
-0.000120004
-0.000161991
-0.000196476
0.000281754
0.000544742
0.000867941
0.00011307
0.00018859
0.00041329
0.000241522
0.000544741
0.000281747
0.000867937
0.000113063
0.000413287
0.000188581
0.000241516
0.00109317
0.00109317
0.00328531
0.000423922
0.00182863
0.00182862
0.00231678
-0.000117748
-0.000117755
-0.000158788
-0.000142904
-0.000190439
-0.000190448
-0.000274749
-0.000110165
-4.80192e-05
-0.000141488
-0.000219666
-0.000260505
-0.00041433
-0.000786906
-4.8021e-05
-0.000110177
-0.000141497
-0.000219679
-0.000414335
-0.000260521
-0.000786922
0.000504312
0.000504307
0.000711528
-0.000371961
-0.00114618
-0.00114619
-0.00260215
-0.000237933
-0.000330823
-0.000433162
-0.000165514
-0.000175621
-0.000229028
-0.000211822
-0.000330825
-0.000237952
-0.000433185
-0.000165535
-0.000229041
-0.000175638
-0.000211848
-0.00106734
-0.00106736
-0.00260361
-0.000300964
-0.000334393
-0.0003344
-0.00028434
-5.25546e-05
-2.85726e-06
4.86633e-05
-3.63207e-05
1.20093e-05
-1.30877e-06
0.000322027
-2.88496e-06
-5.26083e-05
4.859e-05
-3.63564e-05
-1.30828e-06
1.19713e-05
0.000322047
0.000336224
0.000336224
0.000768772
0.00020799
0.000916213
0.000916153
0.00451469
-0.000185063
-0.000185075
-6.24053e-06
-0.000286711
-0.000343109
-0.000343115
-0.000422512
-9.56874e-05
5.84281e-05
0.000505884
-0.000369007
-0.000406579
-0.000615228
-0.000733933
5.84391e-05
-9.58215e-05
0.000505795
-0.000369025
-0.000615226
-0.000406619
-0.00073394
0.00128806
0.00128806
0.00269816
-0.000877324
-0.00243608
-0.00243607
-0.00145609
-0.000550869
-0.00078133
-0.00105605
-0.000424974
-0.000512106
-0.000690174
-0.00082155
-0.000781331
-0.00055088
-0.00105606
-0.000424975
-0.000690173
-0.000512103
-0.000821551
-0.00192492
-0.00192493
-0.00255688
-0.000547214
-0.000871981
-0.000871988
-0.00158788
-0.000954678
-0.000954683
-0.00108278
-0.000449347
-0.000544148
-0.000544151
-0.000650755
-0.00118749
-0.000125831
-0.000125832
-0.000351422
-9.18416e-05
-0.000518434
-0.000518436
-0.000734281
-0.000735205
-0.000735211
-0.000138195
-0.00103656
-0.000448469
-0.000448476
0.000611718
0.000493899
0.000493897
-2.5558e-05
0.0013751
-5.11657e-05
-5.11691e-05
-0.0018153
-0.0012179
-0.0012179
-0.000762859
-0.00218492
-0.00119373
-0.00119373
0.00160087
0.000542665
0.000445695
0.000445694
0.000848361
0.000848359
0.00145575
0.00210977
0.00137027
0.00113615
0.00108858
0.00086571
0.00122123
0.00273312
0.00210976
0.00137027
0.00113615
0.00108858
0.000865707
0.00122123
0.00273312
0.00316367
0.00451861
0.00201852
0.00201852
0.0017258
0.00433078
0.00433078
-0.000210073
6.91168e-05
-7.41668e-05
-0.000211788
-3.11662e-06
-0.000195627
-0.000290509
-0.000241706
0.000208636
-0.000158805
-0.000359823
0.000152791
-0.000312678
-0.000277702
-0.000364241
-0.000531193
-0.000412151
-0.000740115
-0.000573141
-0.000316938
-0.000453792
-0.000210078
6.9113e-05
-7.41707e-05
-0.00021179
-3.12235e-06
-0.000195631
-0.000290513
-0.000241714
-0.000158812
0.000208629
-0.000359833
0.000152783
-0.000312686
-0.00027771
-0.000364252
-0.000531205
-0.000740129
-0.000412167
-0.00057315
-0.000316952
-0.000453806
-0.000704296
0.000393574
0.000157286
-0.00158461
-0.000169899
-0.00116291
-0.000752194
-0.000704297
0.000393571
0.000157284
-0.00158462
-0.0001699
-0.00116291
-0.000752198
-0.000653756
0.000518451
0.000518449
-0.000507678
0.00029641
-0.000591546
-0.000591549
-0.00182089
-0.000490941
-0.000840122
-0.000840126
-0.000756313
-0.000756317
-0.00152179
-0.00150345
-0.00184915
-0.000829106
-0.00210281
-0.00129995
-0.00183285
-0.00144289
-0.00150346
-0.00184916
-0.000829113
-0.00210282
-0.00129996
-0.00183286
-0.0014429
-0.00155741
-0.00155931
-0.002541
-0.00254101
-0.00216202
-0.00156262
-0.00156263
-0.000764631
-0.000867255
-0.0016944
-0.000505177
-0.00143785
-0.000340594
-0.000873931
-0.000764632
-0.000867262
-0.00169442
-0.000505193
-0.00143786
-0.000340602
-0.000873941
-0.000679624
-0.00188112
-0.00188113
-0.00119646
-0.00165298
-0.000976316
-0.000976325
0.00113665
0.000710278
0.000724927
0.00203713
0.000448984
0.00183072
0.00158616
0.00113658
0.000710327
0.000724953
0.00203708
0.000449023
0.00183079
0.00158612
0.00179099
0.00245247
0.00300629
0.00300626
0.00202355
0.00220941
0.00220941
-7.87796e-05
0.000131974
0.000385717
-0.000259106
-2.77351e-05
-0.0002532
5.68121e-05
-0.000528066
-0.000537757
-0.000584898
-0.0006674
-0.000430773
-0.000470561
-0.000634228
-0.000369763
-0.000451198
-0.000788368
-0.000728559
-0.000502949
-0.000729311
-0.000381174
-7.88295e-05
0.000385668
0.000132052
-0.000259133
-2.77892e-05
-0.000253234
5.68306e-05
-0.000528088
-0.000537759
-0.000584908
-0.000667406
-0.000430793
-0.000470575
-0.000634241
-0.000369796
-0.000451206
-0.000728567
-0.000788355
-0.000502964
-0.000729325
-0.000381159
0.00025086
0.000616619
0.00193108
0.0013951
0.00168354
0.000721615
0.000248057
0.000250841
0.000616582
0.00193101
0.0013951
0.00168353
0.000721602
0.000247981
0.000655515
0.00252157
0.0025215
0.000986987
0.00234333
0.000794496
0.000794433
-0.0010812
-0.000450845
-0.000975845
-0.000975851
-0.000703463
-0.000703466
-0.00192146
-0.00075949
-0.000910027
-0.00197824
-0.00138413
-0.000738965
-0.00151081
-0.000657517
-0.000759495
-0.000909984
-0.00197824
-0.00138416
-0.000738962
-0.00151081
-0.000657558
-0.000551336
-0.000339072
-0.00146411
-0.00146414
-0.00152267
-0.000443505
-0.00044355
-0.000684127
-0.000803552
-0.00105515
-0.00115158
-0.00072068
-0.00110333
-0.000772168
-0.000684133
-0.00105516
-0.000803546
-0.00115158
-0.000720689
-0.00110334
-0.000772169
-0.00212606
-0.0015968
-0.00222388
-0.0014114
-0.00235235
-0.00130194
-0.00233186
-0.00212607
-0.00159681
-0.0022239
-0.00141141
-0.00235235
-0.00130194
-0.00233189
-0.00222942
-0.00250055
-0.00250058
-0.00359794
-0.00250093
-0.00294811
-0.00294814
-0.00134266
-0.000824397
-0.000844256
-0.000844257
-0.00106946
-0.00106946
-0.00109227
-0.00152402
-0.00135472
-0.000765924
-0.00128869
-0.0012223
-0.00118143
-0.00176761
-0.00152402
-0.00135473
-0.000765927
-0.0012887
-0.00122231
-0.00118144
-0.00176763
-0.00191631
-0.00227307
-0.00135252
-0.00135253
-0.00113407
-0.00209942
-0.00209943
0.000437362
0.000437361
0.000713795
0.000669703
0.00102277
0.00102277
0.00149233
0.00295554
0.00265749
0.00265749
0.00447285
0.00200173
0.00328389
0.00328389
0.000392788
0.000831234
0.000517999
0.000434172
0.000770825
0.000372544
0.000503159
0.000392783
0.000831229
0.000434168
0.000517992
0.000770821
0.000372538
0.000503152
0.00237589
0.000868873
0.0018411
0.00151692
0.00154785
0.00127308
0.00272715
0.00237589
0.000868871
0.0018411
0.00151691
0.00154785
0.00127308
0.00272715
0.00086181
3.04205e-05
0.000540171
0.000540151
0.000426205
0.000426195
0.00124328
0.00158206
0.000789531
0.00078953
0.000703661
0.00121188
0.00103084
0.00103084
-0.00032945
-0.000191254
0.000749871
-0.000306021
-0.000191339
-0.000223055
7.99549e-05
-0.000329492
-0.000191286
0.000749852
-0.000306011
-0.000191381
-0.000223086
7.99422e-05
)
;

boundaryField
{
    inlet
    {
        type            fixedValue;
        value           uniform 0;
    }
    wall
    {
        type            zeroGradient;
    }
    outlet
    {
        type            fixedValue;
        value           uniform 0;
    }
    procBoundary0to1
    {
        type            processor;
        value           nonuniform List<scalar> 
320
(
-5.20135e-06
-5.19712e-06
-5.19811e-06
-5.19611e-06
-5.19666e-06
-9.6898e-06
-9.68715e-06
-9.68705e-06
-9.68582e-06
-9.68579e-06
-2.41421e-05
-2.4136e-05
-2.41357e-05
-2.41326e-05
-2.41326e-05
-3.12411e-05
-3.1234e-05
-3.12334e-05
-3.12297e-05
-3.12294e-05
-4.38409e-05
-4.38301e-05
-4.38293e-05
-4.38237e-05
-4.38235e-05
-5.28565e-05
-5.28417e-05
-5.28406e-05
-5.28329e-05
-5.28327e-05
-6.38432e-05
-6.38219e-05
-6.38205e-05
-6.38097e-05
-6.38096e-05
-7.39902e-05
-7.39599e-05
-7.39581e-05
-7.3943e-05
-7.39432e-05
-8.4104e-05
-8.4061e-05
-8.40586e-05
-8.40372e-05
-8.40375e-05
-9.46439e-05
-9.45833e-05
-9.45821e-05
-9.45535e-05
-9.45551e-05
-0.00010434
-0.000104255
-0.000104258
-0.00010422
-0.000104224
-0.000114771
-0.000114661
-0.000114686
-0.000114649
-0.000114665
-0.000124088
-0.000123949
-0.000124031
-0.000124054
-0.000124128
-0.000133923
-0.000133801
-0.000134005
-0.000134123
-0.000134265
-0.000142159
-0.0001421
-0.000142354
-0.000142269
-0.000142287
-0.000149851
-0.000149526
-0.000149436
-0.000149002
-0.000148881
-0.000154819
-0.000153853
-0.000153394
-0.00015264
-0.000152384
-0.000158751
-0.00015714
-0.000156204
-0.00015493
-0.000154416
-0.000159942
-0.000157426
-0.000155757
-0.00015375
-0.000152923
-0.000161623
-0.000158245
-0.000156314
-0.000153935
-0.000153118
-0.000160505
-0.000155439
-0.000152895
-0.000150127
-0.000149034
-0.000163
-0.000156505
-0.000153564
-0.000149679
-0.000148253
-0.000159013
-0.00015015
-0.000145385
-0.000139981
-0.000136957
-0.00016284
-0.000150043
-0.000143716
-0.000135629
-0.000131489
-0.000152797
-0.000135549
-0.000123313
-0.000112059
-0.000101012
-0.000156406
-0.000132507
-0.000117562
-9.9468e-05
-8.4548e-05
-0.000134536
-0.000104298
-7.09856e-05
-4.52795e-05
4.23956e-06
-0.000145184
-9.93531e-05
-6.09412e-05
-1.32342e-05
4.87723e-05
-0.000108867
-5.63452e-05
3.47778e-05
0.000105998
0.000360651
-0.000149996
-6.80345e-05
4.3025e-05
0.000227898
0.000437377
-9.80052e-05
-5.4857e-05
0.000138158
0.000281693
0.00109299
-0.000187197
-0.000174286
-0.000206992
-0.000110171
0.000504171
-0.000141139
-0.000149695
-0.000153444
-0.000237896
-0.00106731
-0.00018554
-0.000178421
-0.000142403
-5.26317e-05
0.000336439
-0.000165797
-0.000211427
-0.000310379
-9.62907e-05
0.00128786
-0.000245905
-0.000297999
-0.000436398
-0.000550934
-0.0019249
-0.000156179
-0.000221705
-0.000287801
-0.00046987
-0.000954535
-0.000221912
-0.000271195
-0.000322791
-0.000407176
-0.000522914
-9.74947e-05
-0.000116243
-0.000119853
-0.000145352
-0.000147073
-5.91602e-05
-9.64374e-05
-0.000119979
-0.000162
-0.000196456
0.000867857
0.000241602
0.000188588
0.00328517
0.00231675
0.00182874
-0.000141585
-0.000786492
-0.000259822
0.000711583
-0.00260223
-0.00114611
-0.00043372
-0.000211977
-0.000175538
-0.00260396
-0.000284313
-0.000334163
4.87129e-05
0.000321453
1.20897e-05
0.000768994
0.00451498
0.000916677
0.000504643
-0.00073402
-0.00040666
0.00269826
-0.00145614
-0.00243607
-0.00105607
-0.000821637
-0.000512015
-0.00255694
-0.00158788
-0.000871861
-0.00108275
-0.000650885
-0.000544042
0.000157308
-0.000752199
-0.00158462
-0.00169437
-0.000874223
-0.000505194
0.00193183
0.0002483
0.00139501
-0.00222391
-0.00233155
-0.00141127
0.00201847
0.00433029
0.00451837
0.0013701
0.00273288
0.00108864
-0.000359782
-0.000277957
0.000208437
-0.000412689
-0.00045405
-0.000531489
-0.000507594
-0.000591478
0.000518506
-0.00254106
-0.0015626
-0.00155925
-0.00184924
-0.00144308
-0.00210337
-0.00119672
-0.000976486
-0.00188129
0.00300653
0.00220945
0.00245253
0.000710177
0.00158632
0.00203747
-0.00025938
5.65498e-05
0.000132131
-0.000788378
-0.00038122
-0.000451478
0.000987009
0.000794597
0.00252175
-0.00146414
-0.000443498
-0.000339098
-0.000910275
-0.000657493
-0.00138414
-0.00115164
-0.000772094
-0.000803535
-0.00359799
-0.00294805
-0.0025006
-0.00135254
-0.00209941
-0.00227311
-0.00135463
-0.00176758
-0.00128861
0.000713751
0.00149232
0.00102281
0.00447237
0.00328336
0.00265738
0.00184108
0.00272682
0.00151692
0.000517917
0.000503042
0.000831239
)
;
    }
    procBoundary0to2
    {
        type            processor;
        value           nonuniform List<scalar> 
320
(
-5.20135e-06
-5.19712e-06
-5.19811e-06
-5.19611e-06
-5.19666e-06
-9.6898e-06
-9.68715e-06
-9.68706e-06
-9.68582e-06
-9.68579e-06
-2.41421e-05
-2.4136e-05
-2.41357e-05
-2.41326e-05
-2.41326e-05
-3.12411e-05
-3.1234e-05
-3.12334e-05
-3.12297e-05
-3.12294e-05
-4.38409e-05
-4.38301e-05
-4.38293e-05
-4.38237e-05
-4.38235e-05
-5.28565e-05
-5.28417e-05
-5.28406e-05
-5.28329e-05
-5.28327e-05
-6.38432e-05
-6.38219e-05
-6.38205e-05
-6.38096e-05
-6.38096e-05
-7.39902e-05
-7.39599e-05
-7.39581e-05
-7.3943e-05
-7.39432e-05
-8.4104e-05
-8.4061e-05
-8.40586e-05
-8.40372e-05
-8.40375e-05
-9.4644e-05
-9.45833e-05
-9.45821e-05
-9.45535e-05
-9.45551e-05
-0.00010434
-0.000104256
-0.000104258
-0.00010422
-0.000104224
-0.000114771
-0.000114661
-0.000114686
-0.000114649
-0.000114665
-0.000124088
-0.000123949
-0.000124031
-0.000124054
-0.000124128
-0.000133924
-0.000133801
-0.000134006
-0.000134123
-0.000134265
-0.000142159
-0.0001421
-0.000142355
-0.000142269
-0.000142287
-0.000149851
-0.000149526
-0.000149436
-0.000149002
-0.000148881
-0.000154819
-0.000153852
-0.000153394
-0.00015264
-0.000152384
-0.00015875
-0.000157139
-0.000156203
-0.00015493
-0.000154415
-0.000159941
-0.000157425
-0.000155756
-0.000153749
-0.000152923
-0.000161622
-0.000158245
-0.000156313
-0.000153934
-0.000153118
-0.000160504
-0.000155438
-0.000152894
-0.000150126
-0.000149034
-0.000162999
-0.000156504
-0.000153563
-0.000149679
-0.000148253
-0.000159013
-0.00015015
-0.000145385
-0.000139981
-0.000136956
-0.000162839
-0.000150043
-0.000143715
-0.000135629
-0.000131489
-0.000152796
-0.000135549
-0.000123313
-0.000112059
-0.000101011
-0.000156405
-0.000132507
-0.000117562
-9.94678e-05
-8.45472e-05
-0.000134534
-0.000104297
-7.09853e-05
-4.52785e-05
4.24083e-06
-0.00014518
-9.93524e-05
-6.09411e-05
-1.32339e-05
4.87732e-05
-0.000108864
-5.63449e-05
3.47773e-05
0.000105997
0.000360651
-0.000149995
-6.80352e-05
4.30242e-05
0.000227895
0.000437376
-9.80082e-05
-5.48624e-05
0.00013815
0.000281687
0.00109299
-0.000187207
-0.0001743
-0.000207014
-0.00011018
0.000504165
-0.000141167
-0.000149721
-0.000153503
-0.00023792
-0.00106733
-0.000185572
-0.00017843
-0.000142471
-5.27052e-05
0.000336358
-0.00016584
-0.000211445
-0.00031024
-9.63807e-05
0.00128775
-0.000245924
-0.000298015
-0.000436387
-0.000550931
-0.00192492
-0.000156187
-0.000221712
-0.000287807
-0.000469881
-0.000954551
-0.000221912
-0.000271199
-0.000322793
-0.000407183
-0.00052292
-9.74951e-05
-0.000116248
-0.000119857
-0.000145355
-0.000147074
-5.91597e-05
-9.64368e-05
-0.000119978
-0.000161999
-0.000196455
0.000188579
0.000241595
0.000867853
0.00182873
0.00231675
0.00328517
-0.000259839
-0.000786507
-0.000141594
-0.00114612
-0.00260223
0.000711581
-0.00017555
-0.000211961
-0.000433738
-0.000334185
-0.000284347
-0.00260396
1.20281e-05
0.000321678
4.86677e-05
0.000916457
0.00451482
0.000768938
-0.000406634
-0.000734014
0.000504805
-0.00243606
-0.0014562
0.00269812
-0.000512008
-0.000821633
-0.00105607
-0.000871871
-0.0015879
-0.00255699
-0.000544051
-0.000650892
-0.00108277
-0.00158463
-0.000752205
0.000157304
-0.000505208
-0.000874235
-0.00169438
0.00139496
0.000248047
0.00193138
-0.0014113
-0.0023316
-0.00222399
0.00108863
0.00273288
0.0013701
0.00451837
0.00433029
0.00201847
-0.000531501
-0.000454063
-0.000412706
0.000208429
-0.000277968
-0.000359793
-0.00210338
-0.00144309
-0.00184925
-0.00155925
-0.00156261
-0.00254107
0.000518502
-0.000591483
-0.000507597
-0.0018813
-0.0009765
-0.00119673
0.00203716
0.00158614
0.000710158
0.00245246
0.00220934
0.00300631
-0.000451467
-0.000381107
-0.00078831
0.000132565
5.67779e-05
-0.000259271
-0.00138423
-0.000657619
-0.000910212
-0.000339179
-0.000443629
-0.00146424
0.00252151
0.000794402
0.000986898
-0.000803509
-0.000772089
-0.00115165
-0.00128863
-0.00176762
-0.00135465
-0.00227314
-0.00209945
-0.00135256
-0.00250068
-0.00294812
-0.00359804
0.00102281
0.00149232
0.00071375
0.00265738
0.00328336
0.00447237
0.00151692
0.00272681
0.00184108
0.000831234
0.000503035
0.000517909
)
;
    }
}


// ************************************************************************* //
