/*--------------------------------*- C++ -*----------------------------------*\
| =========                 |                                                 |
| \\      /  F ield         | OpenFOAM: The Open Source CFD Toolbox           |
|  \\    /   O peration     | Version:  5.x                                   |
|   \\  /    A nd           | Web:      www.OpenFOAM.org                      |
|    \\/     M anipulation  |                                                 |
\*---------------------------------------------------------------------------*/
FoamFile
{
    version     2.0;
    format      ascii;
    class       volVectorField;
    location    "0.018";
    object      U;
}
// * * * * * * * * * * * * * * * * * * * * * * * * * * * * * * * * * * * * * //

dimensions      [0 1 -1 0 0 0 0];

internalField   nonuniform List<vector> 
1560
(
(-5.52644e-07 -5.52943e-07 0.000363106)
(-6.02469e-07 -7.33067e-07 0.000363627)
(-4.96551e-07 -7.72981e-07 0.000364057)
(-4.81171e-07 -8.09115e-07 0.00036371)
(-6.64772e-08 -8.22879e-07 0.000363763)
(-7.32768e-07 -6.02998e-07 0.000363626)
(-8.19409e-07 -8.19933e-07 0.000363149)
(-5.71474e-07 -8.61858e-07 0.000363396)
(-5.30744e-07 -9.11462e-07 0.000363092)
(-7.80066e-08 -9.24256e-07 0.000363155)
(-7.72677e-07 -4.97115e-07 0.000364057)
(-8.61329e-07 -5.72029e-07 0.000363396)
(-5.88158e-07 -5.88715e-07 0.000363554)
(-5.43614e-07 -6.06933e-07 0.000363229)
(-7.93851e-08 -6.11907e-07 0.000363291)
(-8.08806e-07 -4.8183e-07 0.00036371)
(-9.10931e-07 -5.31401e-07 0.000363092)
(-6.06378e-07 -5.44279e-07 0.000363229)
(-5.53937e-07 -5.54594e-07 0.000362936)
(-7.88193e-08 -5.61141e-07 0.000363)
(-8.22572e-07 -6.7155e-08 0.000363762)
(-9.23732e-07 -7.8686e-08 0.000363155)
(-6.1135e-07 -8.00584e-08 0.000363291)
(-5.60475e-07 -7.94926e-08 0.000363)
(-8.05628e-08 -8.12456e-08 0.000363061)
(-1.0895e-06 -1.08975e-06 -7.60222e-05)
(-1.38298e-06 -7.32333e-07 -7.63499e-05)
(-8.37773e-07 -6.69597e-07 -7.64561e-05)
(-6.87574e-07 -5.77653e-07 -7.65976e-05)
(-2.26733e-07 -5.55567e-07 -7.66405e-05)
(-7.32085e-07 -1.38346e-06 -7.63499e-05)
(-9.70497e-07 -9.70967e-07 -7.65637e-05)
(-6.86074e-07 -8.90005e-07 -7.66463e-05)
(-5.75535e-07 -7.76138e-07 -7.67729e-05)
(-1.80259e-07 -7.46925e-07 -7.68116e-05)
(-6.69347e-07 -8.38313e-07 -7.64562e-05)
(-8.89533e-07 -6.86612e-07 -7.66463e-05)
(-6.43015e-07 -6.43555e-07 -7.67263e-05)
(-5.44542e-07 -5.84549e-07 -7.68469e-05)
(-1.64161e-07 -5.65217e-07 -7.68871e-05)
(-5.77403e-07 -6.88211e-07 -7.65977e-05)
(-7.75667e-07 -5.76172e-07 -7.6773e-05)
(-5.8401e-07 -5.45184e-07 -7.68469e-05)
(-4.97198e-07 -4.97834e-07 -7.697e-05)
(-1.38239e-07 -4.80412e-07 -7.70094e-05)
(-5.55317e-07 -2.27412e-07 -7.66407e-05)
(-7.46457e-07 -1.80938e-07 -7.68117e-05)
(-5.64676e-07 -1.64839e-07 -7.68872e-05)
(-4.79771e-07 -1.38913e-07 -7.70095e-05)
(-1.27221e-07 -1.27901e-07 -7.70496e-05)
(-9.00049e-07 -9.00384e-07 0.00019805)
(-1.05494e-06 -9.58137e-07 0.000197711)
(-7.53756e-07 -9.72545e-07 0.00019772)
(-6.72361e-07 -9.93242e-07 0.000197379)
(-9.75855e-08 -1.00257e-06 0.000197368)
(-9.57803e-07 -1.05553e-06 0.000197711)
(-1.12655e-06 -1.12715e-06 0.000197114)
(-7.88622e-07 -1.14143e-06 0.000197079)
(-7.02311e-07 -1.16943e-06 0.000196686)
(-1.06338e-07 -1.17955e-06 0.000196663)
(-9.72206e-07 -7.54389e-07 0.00019772)
(-1.14083e-06 -7.89251e-07 0.000197078)
(-7.96064e-07 -7.96701e-07 0.000197028)
(-7.10507e-07 -8.10895e-07 0.000196621)
(-1.08413e-07 -8.16619e-07 0.000196593)
(-9.92903e-07 -6.73123e-07 0.000197379)
(-1.16884e-06 -7.03061e-07 0.000196685)
(-8.10266e-07 -7.11271e-07 0.00019662)
(-7.2223e-07 -7.22986e-07 0.000196197)
(-1.09969e-07 -7.29262e-07 0.000196165)
(-1.00222e-06 -9.83464e-08 0.000197368)
(-1.17896e-06 -1.07113e-07 0.000196663)
(-8.15989e-07 -1.09181e-07 0.000196593)
(-7.28495e-07 -1.10727e-07 0.000196165)
(-1.11583e-07 -1.12368e-07 0.000196129)
(-1.4291e-06 -1.42947e-06 7.54028e-05)
(-1.71261e-06 -1.33502e-06 7.45371e-05)
(-1.1696e-06 -1.31789e-06 7.43739e-05)
(-1.03935e-06 -1.27915e-06 7.38493e-05)
(-2.29545e-07 -1.26895e-06 7.37626e-05)
(-1.33465e-06 -1.71327e-06 7.4537e-05)
(-1.60303e-06 -1.60369e-06 7.36879e-05)
(-1.11479e-06 -1.58166e-06 7.35268e-05)
(-9.91326e-07 -1.53501e-06 7.30007e-05)
(-2.00229e-07 -1.52183e-06 7.29156e-05)
(-1.31751e-06 -1.17031e-06 7.43737e-05)
(-1.58101e-06 -1.1155e-06 7.35267e-05)
(-1.10094e-06 -1.10165e-06 7.3364e-05)
(-9.79539e-07 -1.07273e-06 7.28382e-05)
(-1.91814e-07 -1.0633e-06 7.27523e-05)
(-1.27878e-06 -1.04019e-06 7.38489e-05)
(-1.53435e-06 -9.92166e-07 7.30005e-05)
(-1.07202e-06 -9.8038e-07 7.28381e-05)
(-9.52983e-07 -9.53821e-07 7.23073e-05)
(-1.72074e-07 -9.45211e-07 7.22216e-05)
(-1.26857e-06 -2.30425e-07 7.37621e-05)
(-1.52117e-06 -2.01114e-07 7.29153e-05)
(-1.06259e-06 -1.927e-07 7.27521e-05)
(-9.44369e-07 -1.7295e-07 7.22214e-05)
(-1.64442e-07 -1.65323e-07 7.21351e-05)
(-1.77621e-06 -1.77667e-06 8.92306e-05)
(-2.08382e-06 -1.81774e-06 8.80561e-05)
(-1.4416e-06 -1.8299e-06 8.78637e-05)
(-1.28372e-06 -1.85208e-06 8.71046e-05)
(-1.79453e-07 -1.85981e-06 8.70066e-05)
(-1.81728e-06 -2.08462e-06 8.80559e-05)
(-2.13671e-06 -2.13751e-06 8.67715e-05)
(-1.47573e-06 -2.15141e-06 8.65564e-05)
(-1.31349e-06 -2.18051e-06 8.57469e-05)
(-1.85485e-07 -2.18981e-06 8.56373e-05)
(-1.82944e-06 -1.44245e-06 8.78634e-05)
(-2.15061e-06 -1.47658e-06 8.65562e-05)
(-1.48461e-06 -1.48546e-06 8.63349e-05)
(-1.32213e-06 -1.50429e-06 8.55134e-05)
(-1.87634e-07 -1.51068e-06 8.54005e-05)
(-1.85163e-06 -1.28475e-06 8.71041e-05)
(-2.17971e-06 -1.31452e-06 8.57466e-05)
(-1.50345e-06 -1.32315e-06 8.55132e-05)
(-1.33871e-06 -1.33974e-06 8.46646e-05)
(-1.89669e-07 -1.34648e-06 8.45447e-05)
(-1.85936e-06 -1.80473e-07 8.70059e-05)
(-2.189e-06 -1.86502e-07 8.56368e-05)
(-1.50983e-06 -1.88672e-07 8.54001e-05)
(-1.34546e-06 -1.90681e-07 8.45445e-05)
(-1.90657e-07 -1.91675e-07 8.44222e-05)
(-2.61726e-06 -2.6178e-06 0.000149612)
(-3.07947e-06 -2.63479e-06 0.000147747)
(-2.12106e-06 -2.64089e-06 0.000147407)
(-1.89653e-06 -2.65311e-06 0.000146246)
(-3.04501e-07 -2.65476e-06 0.000146068)
(-2.63424e-06 -3.08042e-06 0.000147746)
(-3.10259e-06 -3.10355e-06 0.000145833)
(-2.13938e-06 -3.11052e-06 0.000145481)
(-1.91044e-06 -3.12627e-06 0.000144287)
(-2.94889e-07 -3.12797e-06 0.000144102)
(-2.64034e-06 -2.12207e-06 0.000147407)
(-3.10957e-06 -2.1404e-06 0.000145481)
(-2.14379e-06 -2.14481e-06 0.000145127)
(-1.91399e-06 -2.15508e-06 0.000143925)
(-2.92194e-07 -2.15585e-06 0.000143739)
(-2.65257e-06 -1.89774e-06 0.000146246)
(-3.12532e-06 -1.91165e-06 0.000144286)
(-2.15406e-06 -1.9152e-06 0.000143925)
(-1.92148e-06 -1.92269e-06 0.000142701)
(-2.83951e-07 -1.92355e-06 0.000142511)
(-2.65421e-06 -3.05755e-07 0.000146067)
(-3.12702e-06 -2.9615e-07 0.000144101)
(-2.15483e-06 -2.93453e-07 0.000143738)
(-1.92234e-06 -2.8521e-07 0.000142511)
(-2.79498e-07 -2.80765e-07 0.000142321)
(-3.66447e-06 -3.66515e-06 4.8911e-05)
(-4.2883e-06 -3.75548e-06 4.62581e-05)
(-2.94176e-06 -3.77994e-06 4.57855e-05)
(-2.62336e-06 -3.83599e-06 4.41251e-05)
(-3.51954e-07 -3.84988e-06 4.38805e-05)
(-3.75481e-06 -4.28948e-06 4.62579e-05)
(-4.40199e-06 -4.40317e-06 4.3479e-05)
(-3.02149e-06 -4.43216e-06 4.29757e-05)
(-2.69267e-06 -4.50227e-06 4.12366e-05)
(-3.63911e-07 -4.51876e-06 4.09742e-05)
(-3.77927e-06 -2.94299e-06 4.5785e-05)
(-4.43099e-06 -3.02273e-06 4.29755e-05)
(-3.04086e-06 -3.0421e-06 4.24654e-05)
(-2.70996e-06 -3.09011e-06 4.07076e-05)
(-3.66969e-07 -3.10125e-06 4.04418e-05)
(-3.83532e-06 -2.62487e-06 4.41243e-05)
(-4.50109e-06 -2.69419e-06 4.12361e-05)
(-3.08887e-06 -2.71146e-06 4.07073e-05)
(-2.75182e-06 -2.75334e-06 3.88998e-05)
(-3.73116e-07 -2.76434e-06 3.86229e-05)
(-3.84923e-06 -3.5343e-07 4.38794e-05)
(-4.51758e-06 -3.65386e-07 4.09734e-05)
(-3.10001e-06 -3.68455e-07 4.04412e-05)
(-2.76284e-06 -3.74607e-07 3.86226e-05)
(-3.7338e-07 -3.7487e-07 3.83437e-05)
(-5.30368e-06 -5.30451e-06 0.000169723)
(-6.20513e-06 -5.44897e-06 0.000165822)
(-4.25415e-06 -5.48612e-06 0.000165111)
(-3.80152e-06 -5.57792e-06 0.000162674)
(-5.2614e-07 -5.59759e-06 0.000162298)
(-5.44814e-06 -6.20656e-06 0.000165822)
(-6.38496e-06 -6.38639e-06 0.000161756)
(-4.3818e-06 -6.43073e-06 0.000161002)
(-3.91189e-06 -6.54389e-06 0.00015846)
(-5.39717e-07 -6.56687e-06 0.000158061)
(-5.48529e-06 -4.25567e-06 0.000165111)
(-6.4293e-06 -4.38333e-06 0.000161002)
(-4.41165e-06 -4.41317e-06 0.000160239)
(-3.93766e-06 -4.49191e-06 0.000157672)
(-5.42276e-07 -4.50718e-06 0.000157269)
(-5.5771e-06 -3.80332e-06 0.000162673)
(-6.54245e-06 -3.91369e-06 0.000158459)
(-4.49039e-06 -3.93945e-06 0.000157671)
(-4.00591e-06 -4.00775e-06 0.00015504)
(-5.48914e-07 -4.02161e-06 0.000154623)
(-5.59676e-06 -5.28e-07 0.000162297)
(-6.56544e-06 -5.41597e-07 0.00015806)
(-4.5057e-06 -5.44145e-07 0.000157268)
(-4.01982e-06 -5.50776e-07 0.000154623)
(-5.47159e-07 -5.48983e-07 0.000154204)
(-7.61566e-06 -7.61668e-06 5.00902e-05)
(-8.90065e-06 -7.87363e-06 4.45113e-05)
(-6.0903e-06 -7.94205e-06 4.34969e-05)
(-5.43652e-06 -8.10381e-06 4.00148e-05)
(-7.17016e-07 -8.14149e-06 3.94806e-05)
(-7.87261e-06 -8.90242e-06 4.45108e-05)
(-9.22243e-06 -9.22421e-06 3.86314e-05)
(-6.31793e-06 -9.30478e-06 3.75393e-05)
(-5.63385e-06 -9.50463e-06 3.38602e-05)
(-7.53001e-07 -9.5484e-06 3.32813e-05)
(-7.94104e-06 -6.09217e-06 4.34961e-05)
(-9.30301e-06 -6.3198e-06 3.75389e-05)
(-6.37071e-06 -6.37257e-06 3.64313e-05)
(-5.68014e-06 -6.50968e-06 3.27072e-05)
(-7.60218e-07 -6.53838e-06 3.21207e-05)
(-8.10279e-06 -5.43875e-06 4.00136e-05)
(-9.50283e-06 -5.6361e-06 3.38594e-05)
(-6.5078e-06 -5.68238e-06 3.27067e-05)
(-5.79966e-06 -5.80193e-06 2.88549e-05)
(-7.80792e-07 -5.82921e-06 2.82423e-05)
(-8.14049e-06 -7.1928e-07 3.94789e-05)
(-9.54664e-06 -7.55277e-07 3.328e-05)
(-6.53654e-06 -7.62488e-07 3.21197e-05)
(-5.82696e-06 -7.8308e-07 2.82417e-05)
(-7.83207e-07 -7.85481e-07 2.76247e-05)
(-1.09563e-05 -1.09576e-05 0.000165219)
(-1.27988e-05 -1.14058e-05 0.000157152)
(-8.75061e-06 -1.15218e-05 0.000155648)
(-7.81779e-06 -1.18127e-05 0.000150609)
(-1.03872e-06 -1.18777e-05 0.000149808)
(-1.14045e-05 -1.2801e-05 0.000157152)
(-1.33569e-05 -1.33591e-05 0.00014861)
(-9.15309e-06 -1.34967e-05 0.000146975)
(-8.16988e-06 -1.3852e-05 0.000141638)
(-1.10033e-06 -1.39273e-05 0.000140764)
(-1.15205e-05 -8.75292e-06 0.000155647)
(-1.34945e-05 -9.15541e-06 0.000146974)
(-9.24343e-06 -9.24573e-06 0.000145314)
(-8.24837e-06 -9.49726e-06 0.000139902)
(-1.11178e-06 -9.54626e-06 0.000139014)
(-1.18114e-05 -7.82057e-06 0.000150608)
(-1.38497e-05 -8.17268e-06 0.000141637)
(-9.49494e-06 -8.25115e-06 0.000139902)
(-8.47041e-06 -8.47323e-06 0.000134307)
(-1.14713e-06 -8.51767e-06 0.000133373)
(-1.18765e-05 -1.04154e-06 0.000149806)
(-1.39251e-05 -1.10316e-06 0.000140762)
(-9.54398e-06 -1.11461e-06 0.000139013)
(-8.51488e-06 -1.14998e-06 0.000133372)
(-1.15058e-06 -1.1534e-06 0.000132426)
(-1.57909e-05 -1.57925e-05 7.01601e-05)
(-1.84719e-05 -1.65291e-05 5.86766e-05)
(-1.26333e-05 -1.6731e-05 5.65296e-05)
(-1.1277e-05 -1.71939e-05 4.93829e-05)
(-1.50223e-06 -1.7305e-05 4.82384e-05)
(-1.65276e-05 -1.84747e-05 5.86759e-05)
(-1.94e-05 -1.94028e-05 4.63651e-05)
(-1.32905e-05 -1.96396e-05 4.3997e-05)
(-1.18449e-05 -2.02124e-05 3.62982e-05)
(-1.61181e-06 -2.03424e-05 3.5026e-05)
(-1.67294e-05 -1.26361e-05 5.65284e-05)
(-1.96369e-05 -1.32934e-05 4.39965e-05)
(-1.34429e-05 -1.34457e-05 4.15996e-05)
(-1.19797e-05 -1.38402e-05 3.37982e-05)
(-1.63338e-06 -1.3929e-05 3.25209e-05)
(-1.71924e-05 -1.12805e-05 4.9381e-05)
(-2.02097e-05 -1.18484e-05 3.62969e-05)
(-1.38373e-05 -1.19832e-05 3.37976e-05)
(-1.23282e-05 -1.23318e-05 2.56453e-05)
(-1.7014e-06 -1.24177e-05 2.43021e-05)
(-1.73035e-05 -1.50572e-06 4.82356e-05)
(-2.03397e-05 -1.61532e-06 3.50238e-05)
(-1.39262e-05 -1.63687e-06 3.25193e-05)
(-1.24142e-05 -1.70495e-06 2.43011e-05)
(-1.71689e-06 -1.72037e-06 2.29562e-05)
(-2.25977e-05 -2.25996e-05 0.00015656)
(-2.643e-05 -2.38846e-05 0.000140034)
(-1.80443e-05 -2.42246e-05 0.000136804)
(-1.61091e-05 -2.5074e-05 0.000126475)
(-2.15811e-06 -2.52684e-05 0.00012472)
(-2.38827e-05 -2.64334e-05 0.000140033)
(-2.80367e-05 -2.80401e-05 0.000122172)
(-1.92201e-05 -2.84276e-05 0.000118546)
(-1.7141e-05 -2.94376e-05 0.000107369)
(-2.34963e-06 -2.96457e-05 0.000105391)
(-2.42227e-05 -1.80478e-05 0.000136802)
(-2.84242e-05 -1.92236e-05 0.000118545)
(-1.94417e-05 -1.94452e-05 0.000114857)
(-1.73271e-05 -2.01502e-05 0.000103482)
(-2.36755e-06 -2.02702e-05 0.000101485)
(-2.50721e-05 -1.61134e-05 0.000126473)
(-2.94341e-05 -1.71454e-05 0.000107367)
(-2.01466e-05 -1.73314e-05 0.000103481)
(-1.7966e-05 -1.79704e-05 9.17049e-05)
(-2.47061e-06 -1.80824e-05 8.96592e-05)
(-2.52666e-05 -2.16246e-06 0.000124716)
(-2.96423e-05 -2.35402e-06 0.000105389)
(-2.02668e-05 -2.37191e-06 0.000101483)
(-1.8078e-05 -2.47505e-06 8.96579e-05)
(-2.47776e-06 -2.4821e-06 8.76159e-05)
(-3.25486e-05 -3.2551e-05 9.91792e-05)
(-3.823e-05 -3.46378e-05 7.58813e-05)
(-2.61922e-05 -3.52405e-05 7.12697e-05)
(-2.33605e-05 -3.65606e-05 5.67568e-05)
(-3.23169e-06 -3.68967e-05 5.4269e-05)
(-3.46354e-05 -3.82342e-05 7.58803e-05)
(-4.08888e-05 -4.08932e-05 5.02508e-05)
(-2.80933e-05 -4.15874e-05 4.50241e-05)
(-2.4999e-05 -4.32069e-05 2.90148e-05)
(-3.56513e-06 -4.35788e-05 2.62068e-05)
(-3.52381e-05 -2.61966e-05 7.12677e-05)
(-4.15832e-05 -2.80977e-05 4.50231e-05)
(-2.85058e-05 -2.85102e-05 3.97673e-05)
(-2.53517e-05 -2.95039e-05 2.35965e-05)
(-3.60733e-06 -2.96612e-05 2.07877e-05)
(-3.65582e-05 -2.3366e-05 5.67539e-05)
(-4.32025e-05 -2.50046e-05 2.90128e-05)
(-2.94995e-05 -2.53573e-05 2.35956e-05)
(-2.61501e-05 -2.61557e-05 6.04123e-06)
(-3.7257e-06 -2.62866e-05 2.74036e-06)
(-3.68945e-05 -3.23708e-06 5.42644e-05)
(-4.35745e-05 -3.57059e-06 2.62032e-05)
(-2.96569e-05 -3.6127e-06 2.07851e-05)
(-2.62811e-05 -3.73118e-06 2.73845e-06)
(-3.74007e-06 -3.74539e-06 -6.3685e-07)
(-4.62301e-05 -4.62331e-05 0.000156213)
(-5.43413e-05 -4.98762e-05 0.000122297)
(-3.71687e-05 -5.08406e-05 0.000114997)
(-3.31097e-05 -5.32042e-05 9.36496e-05)
(-4.60946e-06 -5.37237e-05 8.95216e-05)
(-4.98732e-05 -5.43467e-05 0.000122296)
(-5.88948e-05 -5.89002e-05 8.49029e-05)
(-4.04561e-05 -5.9932e-05 7.64082e-05)
(-3.59583e-05 -6.26001e-05 5.25994e-05)
(-5.12386e-06 -6.31291e-05 4.76817e-05)
(-5.08377e-05 -3.71742e-05 0.000114994)
(-5.99267e-05 -4.04616e-05 7.64068e-05)
(-4.08684e-05 -4.08737e-05 6.77503e-05)
(-3.63067e-05 -4.31237e-05 4.2811e-05)
(-5.14483e-06 -4.37367e-05 3.77536e-05)
(-5.32013e-05 -3.31168e-05 9.36458e-05)
(-6.25945e-05 -3.59653e-05 5.25967e-05)
(-4.31182e-05 -3.63136e-05 4.28099e-05)
(-3.88213e-05 -3.88285e-05 1.69863e-05)
(-5.73949e-06 -3.9507e-05 1.17624e-05)
(-5.37208e-05 -4.61623e-06 8.95155e-05)
(-6.31236e-05 -5.13072e-06 4.76766e-05)
(-4.37315e-05 -5.15162e-06 3.77501e-05)
(-3.95e-05 -5.74669e-06 1.17599e-05)
(-5.82515e-06 -5.83205e-06 6.39157e-06)
(-6.69529e-05 -6.69565e-05 0.000139083)
(-7.94486e-05 -7.25632e-05 9.26985e-05)
(-5.48398e-05 -7.43766e-05 8.20818e-05)
(-4.88356e-05 -7.81854e-05 5.18166e-05)
(-7.31592e-06 -7.93205e-05 4.57572e-05)
(-7.25596e-05 -7.94554e-05 9.26969e-05)
(-8.67794e-05 -8.67863e-05 3.96302e-05)
(-6.03967e-05 -8.88367e-05 2.72067e-05)
(-5.37255e-05 -9.40485e-05 -7.63552e-06)
(-8.44053e-06 -9.53498e-05 -1.46256e-05)
(-7.43731e-05 -5.48467e-05 8.20786e-05)
(-8.883e-05 -6.04038e-05 2.7205e-05)
(-6.21016e-05 -6.21084e-05 1.38586e-05)
(-5.53484e-05 -6.5117e-05 -2.0857e-05)
(-8.62354e-06 -6.55805e-05 -2.80631e-05)
(-7.81819e-05 -4.88446e-05 5.18119e-05)
(-9.40414e-05 -5.37348e-05 -7.63856e-06)
(-6.51099e-05 -5.53575e-05 -2.08583e-05)
(-5.71976e-05 -5.72067e-05 -5.74586e-05)
(-8.91115e-06 -5.76487e-05 -6.49698e-05)
(-7.93173e-05 -7.32455e-06 4.57496e-05)
(-9.5343e-05 -8.44934e-06 -1.46314e-05)
(-6.55735e-05 -8.63216e-06 -2.80672e-05)
(-5.76396e-05 -8.91986e-06 -6.49726e-05)
(-9.07474e-06 -9.08303e-06 -7.26019e-05)
(-9.3315e-05 -9.33196e-05 0.000175653)
(-0.000111346 -0.000103717 0.000107167)
(-7.80506e-05 -0.000106517 9.10937e-05)
(-6.94344e-05 -0.000113506 4.64827e-05)
(-1.06079e-05 -0.000114973 3.63737e-05)
(-0.000103712 -0.000111355 0.000107165)
(-0.000124389 -0.000124398 3.06377e-05)
(-8.77217e-05 -0.00012816 1.08413e-05)
(-7.77906e-05 -0.000135278 -3.62744e-05)
(-1.20592e-05 -0.000136954 -4.7075e-05)
(-0.000106513 -7.80591e-05 9.10896e-05)
(-0.000128151 -8.77303e-05 1.08393e-05)
(-8.89302e-05 -8.89386e-05 -8.24076e-06)
(-7.82284e-05 -9.29467e-05 -5.72574e-05)
(-1.22996e-05 -9.40808e-05 -6.89922e-05)
(-0.000113502 -6.94458e-05 4.64765e-05)
(-0.000135269 -7.78017e-05 -3.62779e-05)
(-9.29381e-05 -7.82394e-05 -5.72591e-05)
(-8.29328e-05 -8.29441e-05 -0.000111033)
(-1.32042e-05 -8.40458e-05 -0.000124272)
(-0.000114968 -1.06186e-05 3.6363e-05)
(-0.000136945 -1.207e-05 -4.70822e-05)
(-9.40726e-05 -1.23105e-05 -6.89977e-05)
(-8.40348e-05 -1.32155e-05 -0.000124276)
(-1.34153e-05 -1.34259e-05 -0.000137981)
(-0.000136447 -0.000136452 0.000212976)
(-0.000164014 -0.000150226 0.000115374)
(-0.000115524 -0.000155814 9.1945e-05)
(-0.000103556 -0.000162205 2.83939e-05)
(-1.73413e-05 -0.000164057 1.39415e-05)
(-0.00015022 -0.000164025 0.000115371)
(-0.00018311 -0.000183121 6.6623e-06)
(-0.000127309 -0.000188178 -2.18229e-05)
(-0.000111642 -0.000197796 -9.19668e-05)
(-1.91755e-05 -0.000200723 -0.0001092)
(-0.000155809 -0.000115535 9.19398e-05)
(-0.000188167 -0.000127319 -2.18252e-05)
(-0.000130198 -0.000130209 -5.19351e-05)
(-0.0001161 -0.000139876 -0.000127067)
(-2.02945e-05 -0.000142777 -0.000145697)
(-0.000162199 -0.000103571 2.83854e-05)
(-0.000197784 -0.000111656 -9.19722e-05)
(-0.000139865 -0.000116114 -0.00012707)
(-0.000124211 -0.000124226 -0.000207597)
(-2.20906e-05 -0.000126638 -0.000228196)
(-0.00016405 -1.73555e-05 1.39302e-05)
(-0.000200711 -1.91891e-05 -0.000109209)
(-0.000142767 -2.03078e-05 -0.000145703)
(-0.000126623 -2.21042e-05 -0.0002282)
(-2.27266e-05 -2.27391e-05 -0.000249703)
(-0.000192344 -0.000192351 0.000249242)
(-0.000232385 -0.000214049 0.000107373)
(-0.00016503 -0.000221988 6.84197e-05)
(-0.000147438 -0.000235694 -2.41321e-05)
(-2.49664e-05 -0.000239983 -4.60931e-05)
(-0.000214041 -0.000232399 0.000107369)
(-0.000261592 -0.000261606 -5.03531e-05)
(-0.00018635 -0.000272049 -9.57555e-05)
(-0.000165168 -0.00029075 -0.000201276)
(-2.92071e-05 -0.000296603 -0.000229455)
(-0.000221981 -0.000165044 6.84137e-05)
(-0.000272036 -0.000186364 -9.57582e-05)
(-0.000194172 -0.000194185 -0.000147448)
(-0.00017199 -0.000208576 -0.000258871)
(-3.08489e-05 -0.000213076 -0.000290625)
(-0.000235686 -0.000147455 -2.41407e-05)
(-0.000290735 -0.000165186 -0.000201282)
(-0.000208562 -0.000172008 -0.000258874)
(-0.000184059 -0.000184078 -0.000378058)
(-3.37279e-05 -0.000188052 -0.000414037)
(-0.000239976 -2.49831e-05 -4.61045e-05)
(-0.00029659 -2.92246e-05 -0.000229465)
(-0.000213063 -3.08662e-05 -0.000290632)
(-0.000188034 -3.37461e-05 -0.000414042)
(-3.485e-05 -3.4866e-05 -0.000453178)
(-0.000280424 -0.000280434 0.000354362)
(-0.000344848 -0.000310318 0.000163984)
(-0.000247029 -0.000322498 0.000109927)
(-0.000218068 -0.000342028 -1.53307e-05)
(-3.91916e-05 -0.000350169 -4.78997e-05)
(-0.000310309 -0.000344865 0.00016398)
(-0.000386248 -0.000386266 -5.76222e-05)
(-0.000278231 -0.000404061 -0.000128395)
(-0.000245342 -0.000432551 -0.000274687)
(-4.72665e-05 -0.000445272 -0.000317982)
(-0.000322489 -0.000247045 0.000109919)
(-0.000404044 -0.000278248 -0.000128399)
(-0.00029331 -0.000293326 -0.000206624)
(-0.000259277 -0.000316657 -0.000364578)
(-5.19616e-05 -0.000327359 -0.000413566)
(-0.00034202 -0.00021809 -1.53433e-05)
(-0.000432533 -0.000245363 -0.000274695)
(-0.00031664 -0.000259298 -0.000364582)
(-0.000279375 -0.000279397 -0.000537326)
(-5.80077e-05 -0.000289191 -0.000595336)
(-0.000350161 -3.9213e-05 -4.79188e-05)
(-0.000445255 -4.72881e-05 -0.000317996)
(-0.000327344 -5.19828e-05 -0.000413576)
(-0.000289169 -5.80297e-05 -0.000595343)
(-6.17927e-05 -6.1812e-05 -0.000657556)
(-0.000385665 -0.000385677 0.000405458)
(-0.000476837 -0.000439054 0.000136655)
(-0.000344344 -0.000463945 4.19743e-05)
(-0.000305265 -0.000498986 -0.000137822)
(-5.73557e-05 -0.00051414 -0.000197826)
(-0.000439042 -0.00047686 0.00013665)
(-0.000553987 -0.00055401 -0.000185963)
(-0.000403413 -0.000588623 -0.000306978)
(-0.000354755 -0.000640021 -0.00052516)
(-7.23412e-05 -0.000662295 -0.000604599)
(-0.000463933 -0.000344366 4.19639e-05)
(-0.000588601 -0.000403435 -0.000306983)
(-0.000430349 -0.00043037 -0.000450898)
(-0.000378933 -0.000471213 -0.000691264)
(-7.96804e-05 -0.000490429 -0.000789434)
(-0.000498973 -0.000305293 -0.000137838)
(-0.000639997 -0.000354783 -0.000525171)
(-0.000471191 -0.000378961 -0.000691269)
(-0.000414814 -0.000414844 -0.00096098)
(-9.15872e-05 -0.000432043 -0.00107605)
(-0.000514128 -5.73837e-05 -0.000197849)
(-0.000662272 -7.23692e-05 -0.000604618)
(-0.000490409 -7.97079e-05 -0.000789448)
(-0.000432015 -9.1616e-05 -0.00107606)
(-9.69259e-05 -9.69516e-05 -0.00120832)
(-0.000553432 -0.000553447 0.000655659)
(-0.000708358 -0.000637978 0.000294887)
(-0.000521505 -0.000676866 0.000169502)
(-0.00045787 -0.000735313 -7.28047e-05)
(-9.89406e-05 -0.000763199 -0.000153805)
(-0.000637963 -0.000708385 0.000294879)
(-0.000829907 -0.000829935 -0.000144359)
(-0.000617425 -0.000896967 -0.000321829)
(-0.000542963 -0.00098603 -0.000621485)
(-0.000126518 -0.00103692 -0.000742087)
(-0.000676852 -0.000521532 0.000169487)
(-0.00089694 -0.000617453 -0.000321835)
(-0.000677589 -0.000677616 -0.00052753)
(-0.000597814 -0.000752475 -0.000872011)
(-0.000149924 -0.000798811 -0.00101532)
(-0.000735299 -0.000457903 -7.28259e-05)
(-0.000986002 -0.000542998 -0.000621498)
(-0.000752447 -0.00059785 -0.000872018)
(-0.00066416 -0.000664197 -0.00126109)
(-0.000172942 -0.000708075 -0.00144286)
(-0.000763187 -9.89739e-05 -0.000153836)
(-0.00103689 -0.000126553 -0.000742111)
(-0.000798786 -0.000149959 -0.00101534)
(-0.00070804 -0.000172978 -0.00144287)
(-0.000193871 -0.000193904 -0.00164151)
(-0.000752199 -0.000752218 0.000765613)
(-0.000963031 -0.000885293 0.000267593)
(-0.000712031 -0.000963113 3.89736e-05)
(-0.000628572 -0.00105641 -0.000313787)
(-0.000138027 -0.00111178 -0.000472276)
(-0.000885273 -0.000963068 0.000267583)
(-0.00117074 -0.00117078 -0.000382495)
(-0.000880533 -0.00128571 -0.000697118)
(-0.000775014 -0.00143928 -0.00115191)
(-0.000192642 -0.00152387 -0.00138123)
(-0.000963094 -0.000712067 3.89543e-05)
(-0.00128567 -0.000880569 -0.000697127)
(-0.000980518 -0.000980553 -0.00109948)
(-0.000866722 -0.00111081 -0.0016309)
(-0.000222705 -0.00119119 -0.00194493)
(-0.00105639 -0.000628617 -0.000313816)
(-0.00143925 -0.000775059 -0.00115193)
(-0.00111078 -0.000866767 -0.00163091)
(-0.000985653 -0.0009857 -0.00224353)
(-0.000273072 -0.00105824 -0.00262745)
(-0.00111177 -0.00013807 -0.000472319)
(-0.00152383 -0.000192686 -0.00138126)
(-0.00119116 -0.000222749 -0.00194495)
(-0.00105819 -0.000273117 -0.00262747)
(-0.00029535 -0.000295392 -0.00311459)
(-0.00105954 -0.00105957 0.00130968)
(-0.00143505 -0.00129845 0.000665366)
(-0.00110288 -0.00142484 0.000383348)
(-0.000969124 -0.00158702 -6.91459e-05)
(-0.000256929 -0.00168695 -0.000266457)
(-0.00129843 -0.0014351 0.000665354)
(-0.00179467 -0.00179472 -0.000168068)
(-0.00138683 -0.0020355 -0.000612116)
(-0.00122708 -0.00230324 -0.00122353)
(-0.000355502 -0.00250967 -0.00157421)
(-0.00142482 -0.00110293 0.000383325)
(-0.00203546 -0.00138688 -0.000612126)
(-0.00161136 -0.0016114 -0.00116637)
(-0.00144326 -0.00184409 -0.00194035)
(-0.000463509 -0.00204503 -0.00238465)
(-0.001587 -0.000969181 -6.91796e-05)
(-0.00230319 -0.00122714 -0.00122355)
(-0.00184404 -0.00144332 -0.00194036)
(-0.00166071 -0.00166077 -0.00284668)
(-0.000556636 -0.00187775 -0.00348007)
(-0.00168693 -0.000256981 -0.000266509)
(-0.00250962 -0.000355558 -0.00157425)
(-0.00204499 -0.000463565 -0.00238468)
(-0.00187769 -0.000556694 -0.00348009)
(-0.000680563 -0.000680617 -0.00418928)
(-0.00140725 -0.00140728 0.0015763)
(-0.00188943 -0.00173246 0.000715621)
(-0.00144652 -0.00197511 0.000186771)
(-0.00127837 -0.00222996 -0.00046439)
(-0.000334785 -0.00244104 -0.000901268)
(-0.00173243 -0.00188949 0.000715603)
(-0.0024483 -0.00244836 -0.00048629)
(-0.00193598 -0.00283553 -0.00127674)
(-0.00173711 -0.00331061 -0.00219667)
(-0.00054283 -0.00364222 -0.00286288)
(-0.00197508 -0.00144658 0.000186735)
(-0.00283547 -0.00193603 -0.00127675)
(-0.00230871 -0.00230877 -0.00238517)
(-0.002085 -0.00273393 -0.00357339)
(-0.000666649 -0.00309703 -0.00464803)
(-0.00222993 -0.00127844 -0.000464442)
(-0.00331055 -0.00173718 -0.0021967)
(-0.00273388 -0.00208508 -0.00357341)
(-0.00252537 -0.00252545 -0.00503261)
(-0.000906036 -0.00286288 -0.00641736)
(-0.00244101 -0.000334849 -0.000901346)
(-0.00364216 -0.000542897 -0.00286293)
(-0.00309698 -0.000666719 -0.00464807)
(-0.00286281 -0.000906108 -0.00641738)
(-0.00100443 -0.0010045 -0.00847523)
(-0.00193487 -0.00193491 0.002718)
(-0.00282468 -0.00252043 0.00167388)
(-0.00228289 -0.00291341 0.00109277)
(-0.00205718 -0.00334921 0.000271961)
(-0.000692968 -0.00368256 -0.000197612)
(-0.00252038 -0.00282476 0.00167386)
(-0.00378714 -0.00378722 0.000237485)
(-0.00309719 -0.00460762 -0.000840455)
(-0.00281322 -0.00541247 -0.00204017)
(-0.00102126 -0.00625669 -0.0031003)
(-0.00291336 -0.00228297 0.00109273)
(-0.00460754 -0.00309726 -0.000840472)
(-0.00390801 -0.00390809 -0.00228608)
(-0.00370616 -0.00468007 -0.00409515)
(-0.00153731 -0.00559962 -0.00554909)
(-0.00334916 -0.00205728 0.000271907)
(-0.00541238 -0.00281332 -0.00204021)
(-0.00467999 -0.00370626 -0.00409517)
(-0.00450471 -0.00450481 -0.00628843)
(-0.00194125 -0.00570505 -0.008762)
(-0.00368251 -0.000693054 -0.000197704)
(-0.00625661 -0.00102135 -0.00310037)
(-0.00559955 -0.0015374 -0.00554914)
(-0.00570496 -0.00194134 -0.00876202)
(-0.00273739 -0.00273748 -0.0115786)
(-0.00246962 -0.00246968 0.00339952)
(-0.00351476 -0.00319376 0.00213545)
(-0.00284839 -0.00394131 0.00104262)
(-0.00256873 -0.0045823 -1.78797e-05)
(-0.000803814 -0.00539301 -0.00112885)
(-0.00319371 -0.00351487 0.00213542)
(-0.00496276 -0.00496286 0.000178522)
(-0.00421358 -0.00621459 -0.00157629)
(-0.00399693 -0.00767795 -0.00337929)
(-0.00160233 -0.00899393 -0.00522945)
(-0.00394125 -0.00284848 0.00104256)
(-0.00621449 -0.00421368 -0.00157631)
(-0.00556329 -0.00556339 -0.00447051)
(-0.00534792 -0.00698215 -0.00715821)
(-0.00212059 -0.00875872 -0.0108926)
(-0.00458225 -0.00256885 -1.79626e-05)
(-0.00767786 -0.00399705 -0.00337934)
(-0.00698206 -0.00534804 -0.00715824)
(-0.00719205 -0.00719217 -0.0108378)
(-0.0033793 -0.00889204 -0.0161102)
(-0.00539295 -0.000803916 -0.00112899)
(-0.00899383 -0.00160244 -0.00522953)
(-0.00875863 -0.00212071 -0.0108927)
(-0.00889191 -0.00337941 -0.0161102)
(-0.00382332 -0.00382343 -0.0260975)
(-0.00322224 -0.00322231 0.00561255)
(-0.00518175 -0.00451212 0.00430496)
(-0.00443624 -0.00557926 0.00327172)
(-0.00422862 -0.00677159 0.00196367)
(-0.00180252 -0.00785932 0.000944043)
(-0.00451204 -0.00518189 0.00430492)
(-0.00749907 -0.00749921 0.00225951)
(-0.00665505 -0.0101211 7.84332e-05)
(-0.00646648 -0.0125534 -0.00203123)
(-0.00287129 -0.0160213 -0.00514864)
(-0.00557917 -0.00443637 0.00327164)
(-0.010121 -0.00665517 7.8411e-05)
(-0.00949022 -0.00949035 -0.00331708)
(-0.0101284 -0.0121392 -0.00751665)
(-0.00527066 -0.0164814 -0.0123799)
(-0.00677151 -0.0042288 0.00196356)
(-0.0125533 -0.00646664 -0.00203128)
(-0.0121391 -0.0101285 -0.0075167)
(-0.0134562 -0.0134564 -0.0128282)
(-0.00721625 -0.0209114 -0.0237252)
(-0.00785922 -0.00180266 0.000943866)
(-0.0160212 -0.00287143 -0.00514874)
(-0.0164813 -0.0052708 -0.0123801)
(-0.0209112 -0.00721638 -0.0237252)
(-0.0127253 -0.0127255 -0.0361139)
(-0.00380139 -0.00380149 0.00724219)
(-0.00585561 -0.00527767 0.00603758)
(-0.00518958 -0.00719163 0.00439246)
(-0.0048964 -0.00865164 0.00298286)
(-0.00182358 -0.0115929 0.000732731)
(-0.00527757 -0.00585579 0.00603752)
(-0.00918942 -0.00918958 0.00363205)
(-0.00850424 -0.0128034 0.000743567)
(-0.00922343 -0.0171579 -0.00239147)
(-0.00471909 -0.0223165 -0.00662656)
(-0.00719151 -0.00518973 0.00439236)
(-0.0128032 -0.00850438 0.000743541)
(-0.013158 -0.0131581 -0.00520445)
(-0.0144085 -0.0177791 -0.0110596)
(-0.00698736 -0.0273342 -0.0227354)
(-0.00865153 -0.00489662 0.00298273)
(-0.0171577 -0.00922363 -0.00239152)
(-0.017779 -0.0144087 -0.0110597)
(-0.0233962 -0.0233964 -0.0210027)
(-0.0142824 -0.0326122 -0.0410567)
(-0.0115928 -0.00182373 0.000732488)
(-0.0223164 -0.00471925 -0.00662668)
(-0.0273341 -0.00698754 -0.0227356)
(-0.032612 -0.0142826 -0.0410568)
(-0.0162703 -0.0162705 -0.0962475)
(-0.00445264 -0.00445277 0.0109706)
(-0.00803194 -0.00696387 0.010416)
(-0.00749131 -0.00930137 0.00951361)
(-0.00788843 -0.0122511 0.00839975)
(-0.0040523 -0.0153698 0.00669942)
(-0.00696374 -0.00803219 0.010416)
(-0.0127937 -0.0127939 0.00904404)
(-0.0126793 -0.0197189 0.00636502)
(-0.0138361 -0.0265969 0.00406784)
(-0.00711021 -0.0394916 -0.00302289)
(-0.00930121 -0.00749152 0.00951344)
(-0.0197187 -0.0126794 0.00636499)
(-0.0212954 -0.0212956 0.0011964)
(-0.0276594 -0.0307557 -0.00657879)
(-0.0169583 -0.0509209 -0.0220735)
(-0.0122509 -0.00788875 0.00839954)
(-0.0265967 -0.0138364 0.00406777)
(-0.0307555 -0.0276598 -0.00657887)
(-0.0434522 -0.0434524 -0.0173676)
(-0.0273681 -0.0949265 -0.0715002)
(-0.0153696 -0.0040525 0.006699)
(-0.0394913 -0.00711039 -0.00302304)
(-0.0509207 -0.0169585 -0.0220738)
(-0.0949262 -0.0273683 -0.0715003)
(-0.0689116 -0.0689119 -0.130853)
(-0.00437013 -0.0043703 0.0139987)
(-0.00731244 -0.00668175 0.0144289)
(-0.00720546 -0.010405 0.013948)
(-0.00770959 -0.0130819 0.0136114)
(-0.00352775 -0.0215048 0.0119293)
(-0.00668158 -0.00731279 0.0144288)
(-0.0132396 -0.0132399 0.013841)
(-0.0134795 -0.0211191 0.0126823)
(-0.0186077 -0.0321339 0.00934551)
(-0.011816 -0.051069 0.00721682)
(-0.0104048 -0.00720574 0.0139478)
(-0.0211187 -0.0134797 0.0126823)
(-0.0261014 -0.0261016 0.00832164)
(-0.0376613 -0.0391857 0.000637138)
(-0.022573 -0.0958856 -0.0154771)
(-0.0130816 -0.00771006 0.0136112)
(-0.0321336 -0.018608 0.00934546)
(-0.0391855 -0.0376618 0.000637081)
(-0.0890635 -0.0890639 -0.0275304)