/*--------------------------------*- C++ -*----------------------------------*\
| =========                 |                                                 |
| \\      /  F ield         | OpenFOAM: The Open Source CFD Toolbox           |
|  \\    /   O peration     | Version:  5.x                                   |
|   \\  /    A nd           | Web:      www.OpenFOAM.org                      |
|    \\/     M anipulation  |                                                 |
\*---------------------------------------------------------------------------*/
FoamFile
{
    version     2.0;
    format      ascii;
    class       volScalarField;
    location    "0.09";
    object      p;
}
// * * * * * * * * * * * * * * * * * * * * * * * * * * * * * * * * * * * * * //

dimensions      [0 2 -2 0 0 0 0];

internalField   nonuniform List<scalar> 
160
(
2.78278e-06
2.74927e-06
2.64461e-06
2.70226e-06
2.75698e-06
2.73283e-06
2.65213e-06
2.63573e-06
2.57337e-06
2.54221e-06
2.47192e-06
2.52439e-06
2.53487e-06
2.51068e-06
2.48305e-06
2.46911e-06
2.4612e-06
2.43867e-06
2.40976e-06
2.41623e-06
2.4346e-06
2.41771e-06
2.40371e-06
2.39468e-06
2.40351e-06
2.38908e-06
2.37783e-06
2.37166e-06
2.38983e-06
2.37895e-06
2.37173e-06
2.36383e-06
2.37742e-06
2.36835e-06
2.3625e-06
2.35617e-06
2.37134e-06
2.36405e-06
2.35971e-06
2.35395e-06
2.74927e-06
8.14792e-07
1.53299e-06
1.57087e-06
2.73283e-06
1.47699e-06
1.95251e-06
1.85805e-06
2.54221e-06
1.91651e-06
2.07869e-06
2.02581e-06
2.51068e-06
2.18933e-06
2.24338e-06
2.1618e-06
2.43867e-06
2.2518e-06
2.2664e-06
2.22473e-06
2.41771e-06
2.32307e-06
2.32286e-06
2.27502e-06
2.38908e-06
2.33248e-06
2.32648e-06
2.2981e-06
2.37895e-06
2.34798e-06
2.34057e-06
2.32032e-06
2.36835e-06
2.34858e-06
2.34158e-06
2.32889e-06
2.36405e-06
2.35218e-06
2.3466e-06
2.33722e-06
2.64461e-06
1.53299e-06
1.59356e-06
1.76562e-06
2.65213e-06
1.95251e-06
2.01991e-06
1.99413e-06
2.47192e-06
2.07869e-06
2.05272e-06
2.094e-06
2.48305e-06
2.24338e-06
2.23337e-06
2.18021e-06
2.40976e-06
2.2664e-06
2.24904e-06
2.22281e-06
2.40371e-06
2.32286e-06
2.31117e-06
2.26417e-06
2.37783e-06
2.32648e-06
2.31288e-06
2.2877e-06
2.37173e-06
2.34057e-06
2.33023e-06
2.30939e-06
2.3625e-06
2.34158e-06
2.33314e-06
2.31931e-06
2.35971e-06
2.3466e-06
2.34014e-06
2.32971e-06
2.70226e-06
1.57087e-06
1.76562e-06
1.68008e-06
2.63573e-06
1.85805e-06
1.99413e-06
1.79274e-06
2.52439e-06
2.02581e-06
2.094e-06
1.89797e-06
2.46911e-06
2.1618e-06
2.18021e-06
2.0318e-06
2.41623e-06
2.22473e-06
2.22281e-06
2.12053e-06
2.39468e-06
2.27502e-06
2.26417e-06
2.19559e-06
2.37166e-06
2.2981e-06
2.2877e-06
2.24089e-06
2.36383e-06
2.32032e-06
2.30939e-06
2.2785e-06
2.35617e-06
2.32889e-06
2.31931e-06
2.29822e-06
2.35395e-06
2.33722e-06
2.32971e-06
2.31584e-06
)
;

boundaryField
{
    inlet
    {
        type            zeroGradient;
    }
    outlet
    {
        type            totalPressure;
        rho             rho;
        psi             none;
        gamma           1;
        p0              nonuniform 0();
        value           nonuniform 0();
    }
    walls
    {
        type            zeroGradient;
    }
    procBoundary1to0
    {
        type            processor;
        value           nonuniform List<scalar> 
16
(
2.91917e-06
3.03783e-06
2.9268e-06
2.82945e-06
3.03783e-06
1.77284e-07
1.3437e-06
1.32479e-06
2.9268e-06
1.3437e-06
1.7173e-06
1.79537e-06
2.82945e-06
1.32479e-06
1.79537e-06
1.62249e-06
)
;
    }
}


// ************************************************************************* //
