/*--------------------------------*- C++ -*----------------------------------*\
| =========                 |                                                 |
| \\      /  F ield         | OpenFOAM: The Open Source CFD Toolbox           |
|  \\    /   O peration     | Version:  5.x                                   |
|   \\  /    A nd           | Web:      www.OpenFOAM.org                      |
|    \\/     M anipulation  |                                                 |
\*---------------------------------------------------------------------------*/
FoamFile
{
    version     2.0;
    format      ascii;
    class       surfaceScalarField;
    location    "0.09";
    object      phi;
}
// * * * * * * * * * * * * * * * * * * * * * * * * * * * * * * * * * * * * * //

dimensions      [0 3 -1 0 0 0 0];

internalField   nonuniform List<scalar> 
384
(
5.13264e-11
1.96902e-11
5.13264e-11
9.97593e-12
-2.17922e-11
4.10306e-10
-4.5839e-11
-1.74257e-11
3.39076e-10
1.32689e-11
1.06043e-10
1.68773e-11
1.59211e-11
1.68773e-11
6.4076e-12
-7.68391e-12
1.48815e-10
-1.05835e-11
-1.04824e-11
1.11528e-10
1.08273e-11
5.79432e-11
1.44285e-11
9.22039e-12
1.44285e-11
4.58417e-12
3.68086e-13
8.88073e-11
-1.33413e-11
-2.96453e-12
7.24875e-11
7.93943e-12
4.17661e-11
5.2902e-12
6.566e-12
5.2902e-12
2.67307e-12
9.90714e-13
3.4295e-11
-2.98916e-12
-1.55295e-12
2.85937e-11
5.77075e-12
2.21763e-11
4.60706e-12
4.01467e-12
4.60706e-12
1.88709e-12
1.75921e-12
1.8997e-11
-3.12593e-12
4.38281e-13
1.68737e-11
3.65761e-12
1.45925e-11
2.01112e-12
2.69732e-12
2.01112e-12
1.2554e-12
1.19279e-12
8.71956e-12
-3.3459e-13
2.85653e-13
8.32375e-12
2.29758e-12
8.10801e-12
1.66675e-12
1.68086e-12
1.66675e-12
9.80711e-13
9.77248e-13
4.59322e-12
-3.77333e-13
5.47041e-13
4.59204e-12
1.29798e-12
4.97868e-12
8.95855e-13
1.04492e-12
8.95855e-13
7.10424e-13
5.59445e-13
2.48607e-12
2.51714e-13
2.77981e-13
2.67023e-12
6.9973e-13
2.86124e-12
7.14908e-13
5.5642e-13
7.14908e-13
5.68259e-13
3.05829e-13
1.40396e-12
2.02524e-13
1.70088e-13
1.55727e-12
3.13054e-13
1.76856e-12
4.36633e-13
4.36633e-13
4.25439e-13
8.03617e-13
3.05075e-13
9.21642e-13
1.00195e-12
4.10306e-10
-2.17922e-11
9.97593e-12
-3.75065e-11
-5.75038e-10
-3.75065e-11
-3.18147e-10
-3.64693e-10
2.55024e-11
-6.77597e-11
8.95713e-12
1.48815e-10
-7.68391e-12
6.4076e-12
-9.01247e-13
-2.75606e-10
-9.01247e-13
-7.81277e-11
-1.88233e-10
1.22946e-11
-4.3565e-11
1.24359e-11
8.88073e-11
3.68086e-13
4.58417e-12
4.33828e-12
-1.06668e-10
4.33828e-12
-4.91669e-11
-7.34866e-11
1.12465e-11
-2.56663e-11
1.13724e-11
3.4295e-11
9.90714e-13
2.67307e-12
5.63645e-12
-4.93507e-11
5.63645e-12
-1.00796e-11
-3.66719e-11
7.49503e-12
-1.48405e-11
9.48731e-12
1.8997e-11
1.75921e-12
1.88709e-12
4.19527e-12
-1.97471e-11
4.19527e-12
-5.38166e-12
-1.55735e-11
5.35227e-12
-7.85632e-12
7.10648e-12
8.71956e-12
1.19279e-12
1.2554e-12
3.17892e-12
-8.66586e-12
3.17892e-12
-4.33945e-13
-7.46172e-12
3.8248e-12
-4.38239e-12
4.91518e-12
4.59322e-12
9.77248e-13
9.80711e-13
2.03873e-12
-3.55688e-12
2.03873e-12
5.85652e-14
-3.38698e-12
2.49746e-12
-2.37456e-12
3.30533e-12
2.48607e-12
5.59445e-13
7.10424e-13
1.46161e-12
-1.50798e-12
1.46161e-12
5.98804e-13
-1.62472e-12
1.77077e-12
-1.30665e-12
2.17405e-12
1.40396e-12
3.05829e-13
5.68259e-13
9.68732e-13
-6.37534e-13
9.68732e-13
5.05447e-13
-7.78977e-13
1.17481e-12
-7.04278e-13
1.46445e-12
8.03617e-13
4.25439e-13
6.69181e-13
6.69181e-13
4.62159e-13
7.96123e-13
9.19881e-13
3.39076e-10
-1.74257e-11
-4.5839e-11
2.55024e-11
-3.64693e-10
-3.18147e-10
-2.9416e-10
-3.54724e-10
-2.9416e-10
-4.21215e-11
-4.39431e-11
1.11528e-10
-1.04824e-11
-1.05835e-11
1.22946e-11
-1.88233e-10
-7.81277e-11
-6.8184e-11
-1.93767e-10
-6.8184e-11
-2.74452e-11
-6.92566e-12
7.24875e-11
-2.96453e-12
-1.33413e-11
1.12465e-11
-7.34866e-11
-4.91669e-11
-4.92269e-11
-7.28204e-11
-4.92269e-11
-1.57976e-11
-2.77028e-12
2.85937e-11
-1.55295e-12
-2.98916e-12
7.49503e-12
-3.66719e-11
-1.00796e-11
-9.92567e-12
-3.7979e-11
-9.92567e-12
-1.03959e-11
4.72561e-12
1.68737e-11
4.38281e-13
-3.12593e-12
5.35227e-12
-1.55735e-11
-5.38166e-12
-5.56139e-12
-1.61516e-11
-5.56139e-12
-6.3377e-12
3.56471e-12
8.32375e-12
2.85653e-13
-3.3459e-13
3.8248e-12
-7.46172e-12
-4.33945e-13
-1.74943e-13
-8.15215e-12
-1.74943e-13
-4.16431e-12
3.50597e-12
4.59204e-12
5.47041e-13
-3.77333e-13
2.49746e-12
-3.38698e-12
5.85652e-14
3.95224e-13
-3.94767e-12
3.95224e-13
-2.60995e-12
2.35634e-12
2.67023e-12
2.77981e-13
2.51714e-13
1.77077e-12
-1.62472e-12
5.98804e-13
8.10416e-13
-2.02695e-12
8.10416e-13
-1.6398e-12
1.69954e-12
1.55727e-12
1.70088e-13
2.02524e-13
1.17481e-12
-7.78977e-13
5.05447e-13
6.802e-13
-1.03774e-12
6.802e-13
-9.65014e-13
1.15293e-12
9.21642e-13
3.05075e-13
7.96123e-13
4.62159e-13
5.62917e-13
5.62917e-13
7.5965e-13
1.06043e-10
1.32689e-11
8.95713e-12
-6.77597e-11
-4.39431e-11
-4.21215e-11
1.28652e-12
5.79432e-11
1.08273e-11
1.24359e-11
-4.3565e-11
-6.92566e-12
-2.74452e-11
-6.96184e-12
4.17661e-11
7.93943e-12
1.13724e-11
-2.56663e-11
-2.77028e-12
-1.57976e-11
-1.06585e-11
2.21763e-11
5.77075e-12
9.48731e-12
-1.48405e-11
4.72561e-12
-1.03959e-11
-9.59113e-12
1.45925e-11
3.65761e-12
7.10648e-12
-7.85632e-12
3.56471e-12
-6.3377e-12
-7.58045e-12
8.10801e-12
2.29758e-12
4.91518e-12
-4.38239e-12
3.50597e-12
-4.16431e-12
-5.40877e-12
4.97868e-12
1.29798e-12
3.30533e-12
-2.37456e-12
2.35634e-12
-2.60995e-12
-3.6217e-12
2.86124e-12
6.9973e-13
2.17405e-12
-1.30665e-12
1.69954e-12
-1.6398e-12
-2.31421e-12
1.76856e-12
3.13054e-13
1.46445e-12
-7.04278e-13
1.15293e-12
-9.65014e-13
-1.35381e-12
1.00195e-12
9.19881e-13
7.5965e-13
)
;

boundaryField
{
    inlet
    {
        type            calculated;
        value           nonuniform List<scalar> 
16
(
2.17996e-13
5.14926e-14
-2.1718e-14
1.04364e-13
5.14926e-14
-3.68663e-13
-4.46438e-13
-3.99454e-13
-2.1718e-14
-4.46438e-13
-5.71325e-13
-5.45433e-13
1.04364e-13
-3.99454e-13
-5.45433e-13
-7.22459e-13
)
;
    }
    outlet
    {
        type            calculated;
        value           nonuniform 0();
    }
    walls
    {
        type            calculated;
        value           nonuniform List<scalar> 
160
(
-4.37808e-11
-1.49928e-11
-1.10782e-11
-3.96301e-12
-3.33139e-12
-1.35244e-12
-1.15851e-12
-5.77883e-13
-4.70662e-13
-2.67423e-13
-4.22185e-10
-1.52453e-10
-8.7015e-11
-3.23005e-11
-1.70455e-11
-7.39741e-12
-3.69164e-12
-1.88284e-12
-1.0037e-12
-5.38088e-13
-2.9229e-10
-1.0148e-10
-6.20799e-11
-2.43431e-11
-1.38519e-11
-6.58112e-12
-3.49539e-12
-1.94246e-12
-1.08364e-12
-6.09474e-13
-1.01958e-10
-5.41273e-11
-3.79916e-11
-1.91257e-11
-1.20609e-11
-6.32273e-12
-3.71359e-12
-2.03199e-12
-1.20609e-12
-6.48004e-13
-4.59457e-11
-1.19578e-11
-1.42279e-11
-3.87111e-12
-3.54432e-12
-7.59835e-13
-6.42824e-13
2.07122e-14
2.67307e-14
1.59813e-13
-2.31052e-10
-5.68151e-11
-3.66718e-11
-8.21643e-12
-4.87982e-12
-7.15054e-13
-2.75917e-13
2.18086e-13
2.07187e-13
2.3941e-13
-2.76166e-10
-6.34988e-11
-4.67319e-11
-1.05656e-11
-6.07782e-12
-9.39117e-13
-2.10143e-13
3.14788e-13
3.16925e-13
3.03571e-13
-3.26262e-11
-2.80148e-12
-9.21961e-13
4.19195e-12
2.55937e-12
2.42013e-12
1.46281e-12
1.04579e-12
6.72735e-13
4.43974e-13
-4.37808e-11
-1.49928e-11
-1.10782e-11
-3.96301e-12
-3.33139e-12
-1.35244e-12
-1.15851e-12
-5.77883e-13
-4.70662e-13
-2.67423e-13
-4.22185e-10
-1.52453e-10
-8.7015e-11
-3.23005e-11
-1.70455e-11
-7.39741e-12
-3.69164e-12
-1.88284e-12
-1.0037e-12
-5.38088e-13
-2.9229e-10
-1.0148e-10
-6.20799e-11
-2.43431e-11
-1.38519e-11
-6.58112e-12
-3.49539e-12
-1.94246e-12
-1.08364e-12
-6.09474e-13
-1.01958e-10
-5.41273e-11
-3.79916e-11
-1.91257e-11
-1.20609e-11
-6.32273e-12
-3.71359e-12
-2.03199e-12
-1.20609e-12
-6.48004e-13
-4.59457e-11
-1.19578e-11
-1.42279e-11
-3.87111e-12
-3.54432e-12
-7.59835e-13
-6.42824e-13
2.07122e-14
2.67307e-14
1.59813e-13
-2.31052e-10
-5.68151e-11
-3.66718e-11
-8.21643e-12
-4.87982e-12
-7.15054e-13
-2.75917e-13
2.18086e-13
2.07187e-13
2.3941e-13
-2.76166e-10
-6.34988e-11
-4.67319e-11
-1.05656e-11
-6.07782e-12
-9.39117e-13
-2.10143e-13
3.14788e-13
3.16925e-13
3.03571e-13
-3.26262e-11
-2.80148e-12
-9.21961e-13
4.19195e-12
2.55937e-12
2.42013e-12
1.46281e-12
1.04579e-12
6.72735e-13
4.43974e-13
)
;
    }
    procBoundary1to0
    {
        type            processor;
        value           nonuniform List<scalar> 
16
(
-3.47815e-11
7.50218e-11
2.6454e-11
-1.72473e-11
7.50218e-11
1.47066e-09
9.58907e-10
7.77501e-11
2.6454e-11
9.58907e-10
9.94048e-10
7.7028e-11
-1.72473e-11
7.77501e-11
7.7028e-11
-2.39204e-11
)
;
    }
}


// ************************************************************************* //
