/*--------------------------------*- C++ -*----------------------------------*\
| =========                 |                                                 |
| \\      /  F ield         | OpenFOAM: The Open Source CFD Toolbox           |
|  \\    /   O peration     | Version:  5.x                                   |
|   \\  /    A nd           | Web:      www.OpenFOAM.org                      |
|    \\/     M anipulation  |                                                 |
\*---------------------------------------------------------------------------*/
FoamFile
{
    version     2.0;
    format      ascii;
    class       volVectorField;
    location    "0.09";
    object      U;
}
// * * * * * * * * * * * * * * * * * * * * * * * * * * * * * * * * * * * * * //

dimensions      [0 1 -1 0 0 0 0];

internalField   nonuniform List<vector> 
160
(
(7.01154e-06 4.26379e-06 7.01154e-06)
(8.933e-06 -3.95195e-06 6.79323e-05)
(-6.15548e-06 -1.14151e-06 4.69862e-05)
(-7.3627e-06 2.41047e-06 1.65367e-05)
(2.40361e-06 2.30291e-06 2.40361e-06)
(3.21504e-06 -3.43428e-06 2.46409e-05)
(-1.38672e-06 -4.10534e-06 1.63752e-05)
(-1.91e-06 1.59877e-06 8.81394e-06)
(1.77866e-06 2.17321e-06 1.77866e-06)
(2.75722e-06 4.7266e-07 1.40461e-05)
(-1.51085e-06 1.83175e-07 1.00106e-05)
(-2.28683e-06 1.4759e-06 6.17712e-06)
(6.3886e-07 9.67214e-07 6.3886e-07)
(1.07162e-06 -3.06815e-07 5.23164e-06)
(-2.82743e-07 -9.2567e-07 3.94229e-06)
(-6.16625e-07 8.93719e-07 3.12079e-06)
(5.37472e-07 9.19147e-07 5.37472e-07)
(8.4406e-07 5.43556e-07 2.76425e-06)
(-3.11234e-07 2.99389e-07 2.24466e-06)
(-5.68368e-07 7.7576e-07 1.96757e-06)
(2.19725e-07 4.12799e-07 2.19725e-07)
(3.80619e-07 6.64633e-08 1.20231e-06)
(8.94903e-09 -1.16771e-07 1.06897e-06)
(-1.19791e-07 3.62184e-07 1.03526e-06)
(1.88211e-07 3.73712e-07 1.88211e-07)
(2.98137e-07 2.65619e-07 6.01856e-07)
(-3.75009e-09 1.84313e-07 5.69418e-07)
(-1.01632e-07 3.0068e-07 6.08699e-07)
(9.46106e-08 1.75487e-07 9.46106e-08)
(1.64633e-07 7.01762e-08 3.0738e-07)
(6.54901e-08 1.41596e-08 3.16957e-07)
(4.87292e-09 1.20366e-07 3.3371e-07)
(7.70959e-08 1.32911e-07 7.70959e-08)
(1.27623e-07 9.16924e-08 1.64503e-07)
(5.24307e-08 6.21625e-08 1.77521e-07)
(5.52695e-09 8.22614e-08 1.98362e-07)
(4.42242e-08 3.60779e-08 4.42242e-08)
(7.84801e-08 9.08808e-09 8.84391e-08)
(5.90788e-08 -2.92403e-09 1.00105e-07)
(2.67057e-08 1.71358e-08 1.06979e-07)
(6.79323e-05 -3.95195e-06 8.933e-06)
(4.98329e-05 -0.000115793 4.98329e-05)
(-5.88919e-05 -7.05996e-05 5.19878e-05)
(-3.69758e-05 -1.19229e-05 1.31476e-05)
(2.46409e-05 -3.43428e-06 3.21504e-06)
(1.74276e-05 -6.43041e-05 1.74276e-05)
(-1.72601e-05 -4.69559e-05 1.61042e-05)
(-9.07174e-06 -9.51565e-06 7.21043e-06)
(1.40461e-05 4.7266e-07 2.75722e-06)
(1.11922e-05 -2.02211e-05 1.11922e-05)
(-9.29582e-06 -1.32723e-05 1.10446e-05)
(-5.85704e-06 -4.33086e-06 5.42981e-06)
(5.23164e-06 -3.06815e-07 1.07162e-06)
(4.47763e-06 -1.24515e-05 4.47763e-06)
(-2.26568e-06 -9.44927e-06 4.29678e-06)
(-1.29849e-06 -3.48759e-06 3.02064e-06)
(2.76425e-06 5.43556e-07 8.4406e-07)
(2.59782e-06 -3.70578e-06 2.59782e-06)
(-1.00741e-06 -2.77416e-06 2.60319e-06)
(-7.72529e-07 -1.33355e-06 2.08817e-06)
(1.20231e-06 6.64633e-08 3.80619e-07)
(1.26177e-06 -2.23986e-06 1.26177e-06)
(-8.85107e-08 -1.92705e-06 1.31655e-06)
(-1.04948e-07 -1.03566e-06 1.21515e-06)
(6.01856e-07 2.65619e-07 2.98137e-07)
(6.93522e-07 -6.69468e-07 6.93522e-07)
(4.72299e-08 -6.09975e-07 7.44921e-07)
(-3.85342e-08 -4.09509e-07 7.75187e-07)
(3.0738e-07 7.01762e-08 1.64633e-07)
(3.97414e-07 -3.89388e-07 3.97414e-07)
(1.2105e-07 -4.01946e-07 4.4683e-07)
(3.88976e-08 -2.98174e-07 4.65036e-07)
(1.64503e-07 9.16924e-08 1.27623e-07)
(2.33547e-07 -1.26168e-07 2.33547e-07)
(1.04827e-07 -1.551e-07 2.66779e-07)
(3.56589e-08 -1.39448e-07 2.96953e-07)
(8.84391e-08 9.08808e-09 7.84801e-08)
(1.38377e-07 -5.96983e-08 1.38377e-07)
(8.91906e-08 -7.24237e-08 1.60876e-07)
(4.01578e-08 -6.55577e-08 1.72162e-07)
(4.69862e-05 -1.14151e-06 -6.15548e-06)
(5.19878e-05 -7.05996e-05 -5.88919e-05)
(-4.27944e-05 -5.99696e-05 -4.27944e-05)
(-4.42206e-05 -7.10258e-06 -9.36893e-06)
(1.63752e-05 -4.10534e-06 -1.38672e-06)
(1.61042e-05 -4.69559e-05 -1.72601e-05)
(-1.1392e-05 -4.98e-05 -1.1392e-05)
(-1.01547e-05 -6.59877e-06 -2.29673e-06)
(1.00106e-05 1.83175e-07 -1.51085e-06)
(1.10446e-05 -1.32723e-05 -9.29582e-06)
(-7.03513e-06 -1.22465e-05 -7.03513e-06)
(-7.48527e-06 -2.687e-06 -1.06974e-06)
(3.94229e-06 -9.2567e-07 -2.82743e-07)
(4.29678e-06 -9.44927e-06 -2.26568e-06)
(-1.55968e-06 -9.87953e-06 -1.55968e-06)
(-1.67999e-06 -2.48997e-06 5.09027e-07)
(2.24466e-06 2.99389e-07 -3.11234e-07)
(2.60319e-06 -2.77416e-06 -1.00741e-06)
(-6.9557e-07 -2.77792e-06 -6.9557e-07)
(-9.67264e-07 -9.93813e-07 5.05997e-07)
(1.06897e-06 -1.16771e-07 8.94903e-09)
(1.31655e-06 -1.92705e-06 -8.85107e-08)
(4.99049e-08 -2.06916e-06 4.99049e-08)
(-1.40962e-07 -9.51526e-07 5.54362e-07)
(5.69418e-07 1.84313e-07 -3.75008e-09)
(7.44921e-07 -6.09975e-07 4.72299e-08)
(1.32369e-07 -7.01637e-07 1.32369e-07)
(-2.86431e-08 -4.35455e-07 4.02795e-07)
(3.16957e-07 1.41596e-08 6.54901e-08)
(4.4683e-07 -4.01946e-07 1.2105e-07)
(1.70809e-07 -4.79447e-07 1.70809e-07)
(5.44891e-08 -3.55077e-07 2.98164e-07)
(1.77521e-07 6.21625e-08 5.24307e-08)
(2.66779e-07 -1.551e-07 1.04827e-07)
(1.39747e-07 -2.1199e-07 1.39747e-07)
(5.34438e-08 -1.92608e-07 2.0983e-07)
(1.00105e-07 -2.92403e-09 5.90788e-08)
(1.60876e-07 -7.24237e-08 8.91906e-08)
(1.0837e-07 -9.2797e-08 1.0837e-07)
(5.06318e-08 -8.93232e-08 1.37756e-07)
(1.65367e-05 2.41047e-06 -7.3627e-06)
(1.31476e-05 -1.19229e-05 -3.69758e-05)
(-9.36893e-06 -7.10258e-06 -4.42206e-05)
(-5.20331e-06 1.12874e-06 -5.20331e-06)
(8.81394e-06 1.59877e-06 -1.91e-06)
(7.21043e-06 -9.51565e-06 -9.07174e-06)
(-2.29673e-06 -6.59877e-06 -1.01547e-05)
(-4.08468e-07 -7.57514e-07 -4.08468e-07)
(6.17712e-06 1.4759e-06 -2.28683e-06)
(5.42981e-06 -4.33086e-06 -5.85704e-06)
(-1.06974e-06 -2.687e-06 -7.48527e-06)
(-1.08803e-07 -1.42507e-06 -1.08803e-07)
(3.12079e-06 8.93719e-07 -6.16625e-07)
(3.02064e-06 -3.48759e-06 -1.29849e-06)
(5.09027e-07 -2.48997e-06 -1.67999e-06)
(7.00017e-07 -1.73462e-06 7.00017e-07)
(1.96757e-06 7.7576e-07 -5.68368e-07)
(2.08817e-06 -1.33355e-06 -7.72529e-07)
(5.05997e-07 -9.93813e-07 -9.67264e-07)
(4.29697e-07 -1.21189e-06 4.29697e-07)
(1.03526e-06 3.62184e-07 -1.19791e-07)
(1.21515e-06 -1.03566e-06 -1.04948e-07)
(5.54362e-07 -9.51526e-07 -1.40962e-07)
(4.00763e-07 -1.05269e-06 4.00763e-07)
(6.08699e-07 3.0068e-07 -1.01632e-07)
(7.75187e-07 -4.09509e-07 -3.85342e-08)
(4.02795e-07 -4.35455e-07 -2.86431e-08)
(2.43292e-07 -6.24508e-07 2.43292e-07)
(3.3371e-07 1.20366e-07 4.87293e-09)
(4.65036e-07 -2.98174e-07 3.88976e-08)
(2.98164e-07 -3.55077e-07 5.44891e-08)
(1.73427e-07 -4.57466e-07 1.73427e-07)
(1.98362e-07 8.22614e-08 5.52695e-09)
(2.96953e-07 -1.39448e-07 3.56589e-08)
(2.0983e-07 -1.92608e-07 5.34438e-08)
(1.11803e-07 -2.72414e-07 1.11803e-07)
(1.06979e-07 1.71358e-08 2.67057e-08)
(1.72162e-07 -6.55577e-08 4.01578e-08)
(1.37756e-07 -8.93232e-08 5.06318e-08)
(7.37705e-08 -1.19068e-07 7.37705e-08)
)
;

boundaryField
{
    inlet
    {
        type            fixedValue;
        value           uniform (0 0 0);
    }
    outlet
    {
        type            zeroGradient;
    }
    walls
    {
        type            fixedValue;
        value           uniform (0 0 0);
    }
    procBoundary1to0
    {
        type            processor;
        value           nonuniform List<vector> 
16
(
(6.75918e-06 5.60824e-06 6.75918e-06)
(5.95502e-06 -2.21393e-05 9.59371e-05)
(-3.7112e-06 -8.49107e-06 5.50058e-05)
(-2.40839e-06 2.56709e-06 1.9885e-05)
(9.59371e-05 -2.21393e-05 5.95502e-06)
(5.39576e-05 -0.000337405 5.39576e-05)
(-8.14032e-05 -0.00022917 3.85313e-05)
(-3.54589e-05 -1.49919e-05 1.27591e-05)
(5.50058e-05 -8.49107e-06 -3.7112e-06)
(3.85313e-05 -0.00022917 -8.14032e-05)
(-4.57923e-05 -0.000245136 -4.57923e-05)
(-2.67078e-05 -1.98978e-05 -1.24733e-05)
(1.9885e-05 2.56709e-06 -2.40839e-06)
(1.27591e-05 -1.49919e-05 -3.54589e-05)
(-1.24733e-05 -1.98978e-05 -2.67078e-05)
(-4.73493e-06 5.68593e-06 -4.73493e-06)
)
;
    }
}


// ************************************************************************* //
