/*--------------------------------*- C++ -*----------------------------------*\
| =========                 |                                                 |
| \\      /  F ield         | OpenFOAM: The Open Source CFD Toolbox           |
|  \\    /   O peration     | Version:  5.x                                   |
|   \\  /    A nd           | Web:      www.OpenFOAM.org                      |
|    \\/     M anipulation  |                                                 |
\*---------------------------------------------------------------------------*/
FoamFile
{
    version     2.0;
    format      ascii;
    class       volVectorField;
    location    "0.09";
    object      Us;
}
// * * * * * * * * * * * * * * * * * * * * * * * * * * * * * * * * * * * * * //

dimensions      [0 1 -1 0 0 0 0];

internalField   uniform (0 0 0);

boundaryField
{
    inlet
    {
        type            zeroGradient;
    }
    outlet
    {
        type            zeroGradient;
    }
    walls
    {
        type            zeroGradient;
    }
    procBoundary1to0
    {
        type            processor;
        value           nonuniform List<vector> 
16
(
(-1.28465e-15 -3.08711e-12 -1.28465e-15)
(-4.71664e-14 -1.13345e-10 -4.71664e-14)
(-4.9019e-14 -1.17797e-10 -4.9019e-14)
(-3.33915e-15 -8.02426e-12 -3.33915e-15)
(-4.71664e-14 -1.13345e-10 -4.71664e-14)
(-1.71018e-12 -4.10971e-09 -1.71018e-12)
(-1.77613e-12 -4.26818e-09 -1.77613e-12)
(-1.19442e-13 -2.87028e-10 -1.19442e-13)
(-4.9019e-14 -1.17797e-10 -4.9019e-14)
(-1.77613e-12 -4.26818e-09 -1.77613e-12)
(-1.84603e-12 -4.43616e-09 -1.84603e-12)
(-1.25685e-13 -3.02031e-10 -1.25685e-13)
(-3.33915e-15 -8.02426e-12 -3.33915e-15)
(-1.19442e-13 -2.87028e-10 -1.19442e-13)
(-1.25685e-13 -3.02031e-10 -1.25685e-13)
(-1.02755e-14 -2.46928e-11 -1.02755e-14)
)
;
    }
}


// ************************************************************************* //
