ITEM: TIMESTEP
0
ITEM: NUMBER OF ATOMS
2
ITEM: BOX BOUNDS ff ff ff
0 1
0 1
0 4
ITEM: ATOMS id type x y z ix iy iz vx vy vz fx fy fz omegax omegay omegaz radius 
2 1 0.5 0.5 3.16 0 0 0 0 0 0 0 0 -3.58846 0 0 0 0.0835 
1 1 0.5 0.5 3.5 0 0 0 0 0 0 0 0 -3.58846 0 0 0 0.0835 
ITEM: TIMESTEP
100
ITEM: NUMBER OF ATOMS
2
ITEM: BOX BOUNDS ff ff ff
0 1
0 1
0 4
ITEM: ATOMS id type x y z ix iy iz vx vy vz fx fy fz omegax omegay omegaz radius 
1 1 0.5 0.5 3.49814 0 0 0 3.13192e-06 3.13192e-06 -0.93409 -0.00010229 -0.00010229 -0.759394 0 0 0 0.0835 
2 1 0.5 0.5 3.15848 0 0 0 4.58038e-06 4.58038e-06 -0.822107 -3.76239e-05 -3.76239e-05 -0.78701 0 0 0 0.0835 
ITEM: TIMESTEP
200
ITEM: NUMBER OF ATOMS
2
ITEM: BOX BOUNDS ff ff ff
0 1
0 1
0 4
ITEM: ATOMS id type x y z ix iy iz vx vy vz fx fy fz omegax omegay omegaz radius 
1 1 0.5 0.5 3.4944 0 0 0 -1.43067e-06 -1.43067e-06 -1.55776 -1.10398e-06 -1.10398e-06 -0.726683 0 0 0 0.0835 
2 1 0.5 0.5 3.15504 0 0 0 1.06933e-06 1.06933e-06 -1.45584 -8.01813e-06 -8.01813e-06 -0.711733 0 0 0 0.0835 
