ITEM: TIMESTEP
0
ITEM: NUMBER OF ATOMS
2
ITEM: BOX BOUNDS ff ff ff
0 1
0 1
0 4
ITEM: ATOMS id type x y z ix iy iz vx vy vz fx fy fz omegax omegay omegaz radius 
2 1 0.5 0.5 3.16 0 0 0 0 0 0 0 0 -3.58846 0 0 0 0.0835 
1 1 0.5 0.5 3.5 0 0 0 0 0 0 0 0 -3.58846 0 0 0 0.0835 
ITEM: TIMESTEP
100
ITEM: NUMBER OF ATOMS
2
ITEM: BOX BOUNDS ff ff ff
0 1
0 1
0 4
ITEM: ATOMS id type x y z ix iy iz vx vy vz fx fy fz omegax omegay omegaz radius 
1 1 0.5 0.5 3.49814 0 0 0 3.13192e-06 3.13192e-06 -0.93409 -0.00010229 -0.00010229 -0.759394 0 0 0 0.0835 
2 1 0.5 0.5 3.15848 0 0 0 4.58038e-06 4.58038e-06 -0.822107 -3.76239e-05 -3.76239e-05 -0.78701 0 0 0 0.0835 
ITEM: TIMESTEP
200
ITEM: NUMBER OF ATOMS
2
ITEM: BOX BOUNDS ff ff ff
0 1
0 1
0 4
ITEM: ATOMS id type x y z ix iy iz vx vy vz fx fy fz omegax omegay omegaz radius 
1 1 0.5 0.5 3.4944 0 0 0 -1.43067e-06 -1.43067e-06 -1.55776 -1.10398e-06 -1.10398e-06 -0.726683 0 0 0 0.0835 
2 1 0.5 0.5 3.15504 0 0 0 1.06933e-06 1.06933e-06 -1.45584 -8.01813e-06 -8.01813e-06 -0.711733 0 0 0 0.0835 
ITEM: TIMESTEP
300
ITEM: NUMBER OF ATOMS
2
ITEM: BOX BOUNDS ff ff ff
0 1
0 1
0 4
ITEM: ATOMS id type x y z ix iy iz vx vy vz fx fy fz omegax omegay omegaz radius 
2 1 0.5 0.5 3.14978 0 0 0 -2.07458e-06 -2.07458e-06 -2.04644 6.6029e-06 6.6029e-06 -0.697999 0 0 0 0.0835 
1 1 0.5 0.5 3.48884 0 0 0 3.48671e-06 3.48671e-06 -2.13617 4.78169e-05 4.78169e-05 -0.675626 0 0 0 0.0835 
ITEM: TIMESTEP
400
ITEM: NUMBER OF ATOMS
2
ITEM: BOX BOUNDS ff ff ff
0 1
0 1
0 4
ITEM: ATOMS id type x y z ix iy iz vx vy vz fx fy fz omegax omegay omegaz radius 
2 1 0.5 0.5 3.1428 0 0 0 -1.09582e-05 -1.06993e-05 -2.60419 4.41654e-05 4.37692e-05 -0.674927 0 0 0 0.0835 
1 1 0.5 0.5 3.48161 0 0 0 2.73154e-05 2.64623e-05 -2.68267 0.000305775 0.000305775 -0.66788 0 0 0 0.0835 
ITEM: TIMESTEP
500
ITEM: NUMBER OF ATOMS
2
ITEM: BOX BOUNDS ff ff ff
0 1
0 1
0 4
ITEM: ATOMS id type x y z ix iy iz vx vy vz fx fy fz omegax omegay omegaz radius 
2 1 0.5 0.5 3.13418 0 0 0 -1.93741e-05 -1.9363e-05 -3.13123 -9.40466e-06 -9.76806e-06 -0.621154 0 0 0 0.0835 
1 1 0.5 0.5 3.47277 0 0 0 2.8913e-06 1.7627e-06 -3.20399 1.29149e-06 9.51662e-07 -0.616589 0 0 0 0.0835 
ITEM: TIMESTEP
600
ITEM: NUMBER OF ATOMS
2
ITEM: BOX BOUNDS ff ff ff
0 1
0 1
0 4
ITEM: ATOMS id type x y z ix iy iz vx vy vz fx fy fz omegax omegay omegaz radius 
2 1 0.5 0.5 3.12403 0 0 0 -2.63938e-05 -2.67579e-05 -3.63589 8.59441e-06 6.27051e-06 -0.596645 0 0 0 0.0835 
1 1 0.5 0.5 3.4624 0 0 0 -2.34931e-06 -7.06296e-06 -3.69485 -8.74166e-05 -0.000131451 -0.546067 0 0 0 0.0835 
ITEM: TIMESTEP
700
ITEM: NUMBER OF ATOMS
2
ITEM: BOX BOUNDS ff ff ff
0 1
0 1
0 4
ITEM: ATOMS id type x y z ix iy iz vx vy vz fx fy fz omegax omegay omegaz radius 
2 1 0.5 0.5 3.11239 0 0 0 -3.00555e-05 -3.04609e-05 -4.11206 -9.09809e-06 -9.46578e-06 -0.546903 0 0 0 0.0835 
1 1 0.5 0.5 3.45063 0 0 0 -3.00587e-05 -3.19865e-05 -4.13823 -0.000124013 -0.000124789 -0.48712 0 0 0 0.0835 
ITEM: TIMESTEP
800
ITEM: NUMBER OF ATOMS
2
ITEM: BOX BOUNDS ff ff ff
0 1
0 1
0 4
ITEM: ATOMS id type x y z ix iy iz vx vy vz fx fy fz omegax omegay omegaz radius 
2 1 0.5 0.5 3.09941 0 0 0 2.92372e-05 2.68687e-05 -4.53535 -0.000179563 -0.000179948 -0.521251 0 0 0 0.0835 
1 1 0.5 0.5 3.43758 0 0 0 -0.000249421 -0.00025175 -4.56136 0.00109898 0.00109904 -0.451481 0 0 0 0.0835 
ITEM: TIMESTEP
900
ITEM: NUMBER OF ATOMS
2
ITEM: BOX BOUNDS ff ff ff
0 1
0 1
0 4
ITEM: ATOMS id type x y z ix iy iz vx vy vz fx fy fz omegax omegay omegaz radius 
2 1 0.5 0.5 3.08521 0 0 0 -0.000259738 -0.000262069 -4.92707 -0.000363555 -0.000363708 -0.448433 0 0 0 0.0835 
1 1 0.499999 0.499999 3.42331 0 0 0 -7.38398e-05 -7.63055e-05 -4.95357 9.04222e-05 9.04318e-05 -0.453863 0 0 0 0.0835 
ITEM: TIMESTEP
1000
ITEM: NUMBER OF ATOMS
2
ITEM: BOX BOUNDS ff ff ff
0 1
0 1
0 4
ITEM: ATOMS id type x y z ix iy iz vx vy vz fx fy fz omegax omegay omegaz radius 
2 1 0.499999 0.499999 3.06984 0 0 0 -0.000169732 -0.000186692 -5.31933 0.000150949 0.000151726 -0.484298 0 0 0 0.0835 
1 1 0.499999 0.499999 3.40788 0 0 0 2.21642e-05 1.8664e-05 -5.31636 0.000989364 0.00099951 -0.371988 0 0 0 0.0835 
ITEM: TIMESTEP
1100
ITEM: NUMBER OF ATOMS
2
ITEM: BOX BOUNDS ff ff ff
0 1
0 1
0 4
ITEM: ATOMS id type x y z ix iy iz vx vy vz fx fy fz omegax omegay omegaz radius 
2 1 0.499999 0.499999 3.05334 0 0 0 -0.000167919 -0.00018758 -5.66947 -0.000671695 -0.000672626 -0.427941 0 0 0 0.0835 
1 1 0.499999 0.499999 3.39146 0 0 0 0.000223378 0.000219853 -5.60659 0.00101867 0.00101797 -0.414432 0 0 0 0.0835 
ITEM: TIMESTEP
1200
ITEM: NUMBER OF ATOMS
2
ITEM: BOX BOUNDS ff ff ff
0 1
0 1
0 4
ITEM: ATOMS id type x y z ix iy iz vx vy vz fx fy fz omegax omegay omegaz radius 
2 1 0.499998 0.499998 3.03591 0 0 0 -0.000509088 -0.000528746 -5.95837 -0.000410307 -0.000408987 -0.362554 0 0 0 0.0835 
1 1 0.499998 0.499998 3.37415 0 0 0 -0.000676334 -0.000683565 -5.93438 -0.000230385 -0.00022928 -0.373385 0 0 0 0.0835 
ITEM: TIMESTEP
1300
ITEM: NUMBER OF ATOMS
2
ITEM: BOX BOUNDS ff ff ff
0 1
0 1
0 4
ITEM: ATOMS id type x y z ix iy iz vx vy vz fx fy fz omegax omegay omegaz radius 
2 1 0.499996 0.499996 3.01756 0 0 0 -0.000460652 -0.000481139 -6.2806 0.000108232 0.000107585 -0.394333 0 0 0 0.0835 
1 1 0.499996 0.499996 3.35588 0 0 0 -0.000679897 -0.000689102 -6.2294 -0.000689925 -0.000690629 -0.300805 0 0 0 0.0835 
ITEM: TIMESTEP
1400
ITEM: NUMBER OF ATOMS
2
ITEM: BOX BOUNDS ff ff ff
0 1
0 1
0 4
ITEM: ATOMS id type x y z ix iy iz vx vy vz fx fy fz omegax omegay omegaz radius 
2 1 0.499995 0.499995 2.99831 0 0 0 -8.44314e-05 -0.000108799 -6.52443 -0.000855651 -0.000855572 -0.238077 0 0 0 0.0835 
1 1 0.499994 0.499994 3.33686 0 0 0 -0.00107751 -0.00108754 -6.43973 -0.00223993 -0.00223852 -0.281102 0 0 0 0.0835 
ITEM: TIMESTEP
1500
ITEM: NUMBER OF ATOMS
2
ITEM: BOX BOUNDS ff ff ff
0 1
0 1
0 4
ITEM: ATOMS id type x y z ix iy iz vx vy vz fx fy fz omegax omegay omegaz radius 
2 1 0.499993 0.499993 2.97842 0 0 0 -0.00200978 -0.00207084 -6.74555 -0.0109101 -0.0109487 -0.312269 0 0 0 0.0835 
1 1 0.499992 0.499991 3.31718 0 0 0 -0.000441613 -0.000453239 -6.69074 0.000796787 0.000793483 -0.328639 0 0 0 0.0835 
ITEM: TIMESTEP
1600
ITEM: NUMBER OF ATOMS
2
ITEM: BOX BOUNDS ff ff ff
0 1
0 1
0 4
ITEM: ATOMS id type x y z ix iy iz vx vy vz fx fy fz omegax omegay omegaz radius 
2 1 0.49999 0.49999 2.95782 0 0 0 -0.00107094 -0.00112947 -6.98309 -0.000171369 -0.000183311 -0.212375 0 0 0 0.0835 
1 1 0.499991 0.49999 3.29678 0 0 0 0.000123382 0.00011041 -6.8919 -0.000652924 -0.000656323 -0.185044 0 0 0 0.0835 
ITEM: TIMESTEP
1700
ITEM: NUMBER OF ATOMS
2
ITEM: BOX BOUNDS ff ff ff
0 1
0 1
0 4
ITEM: ATOMS id type x y z ix iy iz vx vy vz fx fy fz omegax omegay omegaz radius 
2 1 0.499987 0.499986 2.93662 0 0 0 -0.00127969 -0.00134249 -7.1563 0.000694264 0.000728501 -0.287504 0 0 0 0.0835 
1 1 0.499988 0.499988 3.27588 0 0 0 -0.00150401 -0.00151885 -7.06774 0.0105113 0.0105167 -0.301482 0 0 0 0.0835 
ITEM: TIMESTEP
1800
ITEM: NUMBER OF ATOMS
2
ITEM: BOX BOUNDS ff ff ff
0 1
0 1
0 4
ITEM: ATOMS id type x y z ix iy iz vx vy vz fx fy fz omegax omegay omegaz radius 
2 1 0.499983 0.499982 2.91483 0 0 0 -0.0011747 -0.00123611 -7.36899 0.00433046 0.00433462 -0.276687 0 0 0 0.0835 
1 1 0.499984 0.499984 3.25433 0 0 0 -0.00119222 -0.0012079 -7.28784 -0.00252419 -0.0025232 -0.278632 0 0 0 0.0835 
ITEM: TIMESTEP
1900
ITEM: NUMBER OF ATOMS
2
ITEM: BOX BOUNDS ff ff ff
0 1
0 1
0 4
ITEM: ATOMS id type x y z ix iy iz vx vy vz fx fy fz omegax omegay omegaz radius 
2 1 0.49998 0.499979 2.89251 0 0 0 -0.00116116 -0.0012233 -7.49667 -0.00103682 -0.00100732 -0.0701292 0 0 0 0.0835 
1 1 0.499979 0.499979 3.23227 0 0 0 -0.00136713 -0.0013828 -7.41868 0.00113983 0.00114056 -0.252612 0 0 0 0.0835 
ITEM: TIMESTEP
2000
ITEM: NUMBER OF ATOMS
2
ITEM: BOX BOUNDS ff ff ff
0 1
0 1
0 4
ITEM: ATOMS id type x y z ix iy iz vx vy vz fx fy fz omegax omegay omegaz radius 
2 1 0.499977 0.499976 2.86982 0 0 0 -0.000731279 -0.000839063 -7.64358 -0.000740648 -0.000737295 -0.203076 0 0 0 0.0835 
1 1 0.499976 0.499976 3.20972 0 0 0 -0.000594048 -0.000610585 -7.62084 0.00118121 0.0011818 -0.236441 0 0 0 0.0835 
ITEM: TIMESTEP
2100
ITEM: NUMBER OF ATOMS
2
ITEM: BOX BOUNDS ff ff ff
0 1
0 1
0 4
ITEM: ATOMS id type x y z ix iy iz vx vy vz fx fy fz omegax omegay omegaz radius 
2 1 0.499973 0.499971 2.84666 0 0 0 -0.00156986 -0.00168416 -7.75379 -0.00115533 -0.00115382 -0.0690707 0 0 0 0.0835 
1 1 0.499975 0.499974 3.18665 0 0 0 -0.000400124 -0.000419333 -7.74286 0.0027377 0.00273332 -0.0654669 0 0 0 0.0835 
ITEM: TIMESTEP
2200
ITEM: NUMBER OF ATOMS
2
ITEM: BOX BOUNDS ff ff ff
0 1
0 1
0 4
ITEM: ATOMS id type x y z ix iy iz vx vy vz fx fy fz omegax omegay omegaz radius 
2 1 0.499969 0.499967 2.82318 0 0 0 -0.00112885 -0.00124906 -7.90123 0.000237175 0.000264418 -0.163288 0 0 0 0.0835 
1 1 0.499974 0.499973 3.16313 0 0 0 -0.00111135 -0.0011302 -7.95582 0.00401699 0.00414076 -0.285372 0 0 0 0.0835 
ITEM: TIMESTEP
2300
ITEM: NUMBER OF ATOMS
2
ITEM: BOX BOUNDS ff ff ff
0 1
0 1
0 4
ITEM: ATOMS id type x y z ix iy iz vx vy vz fx fy fz omegax omegay omegaz radius 
2 1 0.499967 0.499965 2.79927 0 0 0 -0.000648143 -0.000771493 -8.00629 0.00727387 0.00725978 0.145051 0 0 0 0.0835 
1 1 0.499972 0.499971 3.13901 0 0 0 -0.00107957 -0.00109911 -8.10037 -0.0313733 -0.0313846 -0.23155 0 0 0 0.0835 
ITEM: TIMESTEP
2400
ITEM: NUMBER OF ATOMS
2
ITEM: BOX BOUNDS ff ff ff
0 1
0 1
0 4
ITEM: ATOMS id type x y z ix iy iz vx vy vz fx fy fz omegax omegay omegaz radius 
2 1 0.499966 0.499964 2.77516 0 0 0 -0.000422449 -0.000437673 -8.08734 0.0037051 0.00533421 -0.139707 0 0 0 0.0835 
1 1 0.49997 0.49997 3.11452 0 0 0 0.000134945 0.000120967 -8.26216 -0.00131093 -0.00135924 -0.293555 0 0 0 0.0835 
ITEM: TIMESTEP
2500
ITEM: NUMBER OF ATOMS
2
ITEM: BOX BOUNDS ff ff ff
0 1
0 1
0 4
ITEM: ATOMS id type x y z ix iy iz vx vy vz fx fy fz omegax omegay omegaz radius 
2 1 0.499964 0.499962 2.75071 0 0 0 -0.000853691 -0.000706088 -8.20273 0.00157639 0.00143475 -0.194653 0 0 0 0.0835 
1 1 0.499972 0.499971 3.08949 0 0 0 7.44839e-05 -3.02123e-05 -8.39957 -0.0357185 -0.0358248 -0.257548 0 0 0 0.0835 
ITEM: TIMESTEP
2600
ITEM: NUMBER OF ATOMS
2
ITEM: BOX BOUNDS ff ff ff
0 1
0 1
0 4
ITEM: ATOMS id type x y z ix iy iz vx vy vz fx fy fz omegax omegay omegaz radius 
2 1 0.499962 0.49996 2.72607 0 0 0 -0.000779996 -0.000498171 -8.26726 0.00249174 0.00441877 -0.163664 0 0 0 0.0835 
1 1 0.499974 0.499973 3.06401 0 0 0 -0.000188709 -0.000299433 -8.60456 -0.00445663 -0.00442159 -0.307265 0 0 0 0.0835 
ITEM: TIMESTEP
2700
ITEM: NUMBER OF ATOMS
2
ITEM: BOX BOUNDS ff ff ff
0 1
0 1
0 4
ITEM: ATOMS id type x y z ix iy iz vx vy vz fx fy fz omegax omegay omegaz radius 
2 1 0.49996 0.49996 2.7011 0 0 0 -0.000705239 -0.000442046 -8.36844 -0.000607057 -0.000789847 -0.0930353 0 0 0 0.0835 
1 1 0.499973 0.499972 3.03794 0 0 0 -0.000274301 -0.000378676 -8.74333 -0.00198792 -0.00198961 -0.0838216 0 0 0 0.0835 
ITEM: TIMESTEP
2800
ITEM: NUMBER OF ATOMS
2
ITEM: BOX BOUNDS ff ff ff
0 1
0 1
0 4
ITEM: ATOMS id type x y z ix iy iz vx vy vz fx fy fz omegax omegay omegaz radius 
2 1 0.49996 0.49996 2.67601 0 0 0 -0.000384318 -0.000233829 -8.39768 0.00315319 0.00303548 -0.128508 0 0 0 0.0835 
1 1 0.499974 0.499973 3.01147 0 0 0 0.00104092 0.000930927 -8.92419 0.00127003 0.00137676 -0.273877 0 0 0 0.0835 
ITEM: TIMESTEP
2900
ITEM: NUMBER OF ATOMS
2
ITEM: BOX BOUNDS ff ff ff
0 1
0 1
0 4
ITEM: ATOMS id type x y z ix iy iz vx vy vz fx fy fz omegax omegay omegaz radius 
2 1 0.499958 0.499958 2.65067 0 0 0 -0.00101512 -0.000883852 -8.48974 -0.00236379 -0.00248854 -0.155354 0 0 0 0.0835 
1 1 0.499978 0.499976 2.98449 0 0 0 0.00142335 0.00131358 -9.04369 0.00425888 0.00425584 -0.24282 0 0 0 0.0835 
ITEM: TIMESTEP
3000
ITEM: NUMBER OF ATOMS
2
ITEM: BOX BOUNDS ff ff ff
0 1
0 1
0 4
ITEM: ATOMS id type x y z ix iy iz vx vy vz fx fy fz omegax omegay omegaz radius 
2 1 0.499953 0.499954 2.6252 0 0 0 -0.00201863 -0.00189487 -8.54063 -0.00059931 -0.000573626 -0.155529 0 0 0 0.0835 
1 1 0.499981 0.499979 2.95702 0 0 0 0.00029002 0.000210865 -9.26716 0.00508467 0.00542327 -0.184776 0 0 0 0.0835 
ITEM: TIMESTEP
3100
ITEM: NUMBER OF ATOMS
2
ITEM: BOX BOUNDS ff ff ff
0 1
0 1
0 4
ITEM: ATOMS id type x y z ix iy iz vx vy vz fx fy fz omegax omegay omegaz radius 
2 1 0.499948 0.49995 2.59944 0 0 0 -0.00163937 -0.00151739 -8.62397 -0.000591209 -0.000590198 -0.135487 0 0 0 0.0835 
1 1 0.499982 0.49998 2.92902 0 0 0 0.000367324 0.000320166 -9.39715 0.00249036 0.00253842 -0.279464 0 0 0 0.0835 
ITEM: TIMESTEP
3200
ITEM: NUMBER OF ATOMS
2
ITEM: BOX BOUNDS ff ff ff
0 1
0 1
0 4
ITEM: ATOMS id type x y z ix iy iz vx vy vz fx fy fz omegax omegay omegaz radius 
2 1 0.499944 0.499945 2.57361 0 0 0 -0.00154483 -0.00145875 -8.64114 0.0212487 0.0213632 -0.0873391 0 0 0 0.0835 
1 1 0.499984 0.499982 2.90054 0 0 0 0.000574511 0.000714614 -9.58543 -0.000425299 -0.000457626 -0.294324 0 0 0 0.0835 
ITEM: TIMESTEP
3300
ITEM: NUMBER OF ATOMS
2
ITEM: BOX BOUNDS ff ff ff
0 1
0 1
0 4
ITEM: ATOMS id type x y z ix iy iz vx vy vz fx fy fz omegax omegay omegaz radius 
2 1 0.49994 0.499941 2.54757 0 0 0 -0.00168939 -0.00198325 -8.67994 0.000375885 0.000665707 0.495858 0 0 0 0.0835 
1 1 0.499988 0.499986 2.87163 0 0 0 0.0014867 0.00164809 -9.72396 -0.000345691 -0.000309914 -0.255143 0 0 0 0.0835 
