/*--------------------------------*- C++ -*----------------------------------*\
| =========                 |                                                 |
| \\      /  F ield         | OpenFOAM: The Open Source CFD Toolbox           |
|  \\    /   O peration     | Version:  5.x                                   |
|   \\  /    A nd           | Web:      www.OpenFOAM.org                      |
|    \\/     M anipulation  |                                                 |
\*---------------------------------------------------------------------------*/
FoamFile
{
    version     2.0;
    format      ascii;
    class       volScalarField;
    location    "0.054";
    object      interFace;
}
// * * * * * * * * * * * * * * * * * * * * * * * * * * * * * * * * * * * * * //

dimensions      [0 0 0 0 0 0 0];

internalField   nonuniform List<scalar> 
1560
(
0
0
0
0
0
0
0
0
0
0
0
0
0
0
0
0
0
0
0
0
0
0
0
0
0
0
0
0
0
0
0
0
0
0
0
0
0
0
0
0
0
0
0
0
0
0
0
0
0
0
0
0
0
0
0
0
0
0
0
0
0
0
0
0
0
0
0
0
0
0
0
0
0
0
0
0
0
0
0
0
0
0
0
0
0
0
0
0
0
0
0
0
0
0
0
0
0
0
0
0
0
0
0
0
0
0
0
0
0
0
0
0
0
0
0
0
0
0
0
0
0
0
0
0
0
0
0
0
0
0
0
0
0
0
0
0
0
0
0
0
0
0
0
0
0
0
0
0
0
0
0
0
0
0
0
0
0
0
0
0
0
0
0
0
0
0
0
0
0
0
0
0
0
0
0
0
0
0
0
0
0
0
0
0
0
0
0
0
0
0
0
0
0
0
0
0
0
0
0
0
0
0
0
0
0
0
0
0
0
0
0
0
0
0
0
0
0
0
0
0
0
0
0
0
0
0
0
0
0
0
0
0
0
0
0
0
0
0
0
0
0
0
0
0
0
0
0
0
0
0
0
0
0
0
0
0
0
0
0
0
0
0
0
0
0
0
0
0
0
0
0
0
0
0
0
0
0
0
0
0
0
0
0
0
0
0
0
0
0
0
0
0
0
0
0
0
0
0
0
0
0
0
0
0
0
0
0
0
0
0
0
0
0
0
0
0
0
0
0
0
0
0
0
0
0
0
0
0
0
0
0
0
0
0
0
0
0
0
0
0
0
0
0
0
0
0
0
0
0
0
0
0
0
0
0
0
0
0
0
0
0
0
0
0
0
0
0
0
0
0
0
0
0
0
0
0
0
0
0
0
0
0
0
0
0
0
0
0
0
0
0
0
0
0
0
0
0
0
0
0
0
0
0
0
0
0
0
0
0
0
0
0
0
0
0
0
0
0
0
0
0
0
0
0
0
0
0
0
0
0
0
0
0
0
0
0
0
0
0
0
0
0
0
0
0
0
0
0
0
0
0
0
0
0
0
0
0
0
0
0
0
0
0
0
0
0
0
0
0
0
0
0
0
0
0
0
0
0
0
0
0
0
0
0
0
0
0
0
0
0
0
0
0
0
0
0
0
0
0
0
0
0
0
0
0
0
0
0
0
0
0
0
0
0
0
0
0
0
0
0
0
0
0
0
0
0
0
0
0
0
0
0
0
0
0
0
0
0
0
0
0
0
0
0
0
0
0
0
0
0
0
0
0
0
0
0
0
0
0
0
0
0
0
0
0
0
0
0
0
0
0
0
0
0
0
0
0
0
0
0
0
0
0
0
0
0
0
0
0
0
0
0
0
0
0
0
0
0
0
0
0
0
0
0
0
0
0
0
0
0
0
0
0
0
0
0
0
0
0
0
0
0
0
0
0
0
0
0
0
0
0
0
0
0
0
0
0
0
0
0
0
0
0
0
0
0
0
0
0
0
0
0
0
0
0
0
0
0
0
0
0
0
0
0
0
0
0
0
0
0
0
0
0
0
0
0
0
0
0
0
0
0
0
0
0
0
0
0
0
0
0
0
0
0
0
0
0
0
0
0
0
0
0
0
0.65392
0
0
0
0
0
0
0
0
0
0
0
0
0
0
0
0
0
0
0
0
0
0
0
0
0.280199
0
0
0
0
0.728532
0
0
0
0
0
0
0
0
0
0
0
0
0
0
0
0
0
0
0
0.623606
0
0
0
0
0
0
0
0
0
0
0
0
0
0
0
0
0
0
0
0
0
0
0
0
0.821801
0
0
0
0
0
0
0
0
0
0
0
0
0
0
0
0
0
0
0
0
0
0
0
0
0.34214
0
0
0
0
0.790462
0
0
0
0
0
0
0
0
0
0
0
0
0
0
0
0
0
0
0
0.402269
0
0
0
0
0.942174
0
0
0
0
0
0
0
0
0
0
0
0
0
0
0
0
0
0
0
0
0
0
0
0
0
0
0
0
0
0
0
0
0
0
0
0
0
0
0
0
0
0
0
0
0
0
0
0
0
0
0
0
0
0
0
0
0
0
0
0
0
0
0
0
0
0
0
0
0
0
0
0
0
0
0
0
0
0
0
0
0
0
0
0
0
0
0
0
0
0
0
0
0
0
0
0
0
0
0
0
0
0
0
0
0
0
0
0
0
0
0
0
0
0
0
0
0
0
0
0
0
0
0
0
0
0
0
0
0
0
0
0
0
0
0
0
0
0
0
0
0
0
0
0
0
0
0
0
0
0
0
0
0
0
0
0
0
0
0
0
0
0
0
0
0
0
0
0
0
0
0
0
0.354773
0.892625
0.623792
0
0.967186
0
0
0
0
0
0
0
0
0
0.730304
0
0.821917
0.43916
0.170322
0.70817
0.439333
0.0733031
0.611151
0.342314
0.320006
0.0511685
0.589016
0.320179
0.581522
0
0.942058
0
0
0
0
0.133431
0.671279
0.402442
0.91798
0.649143
0.927359
0.918154
0.581753
0
0
0
0
0
0
0
0
0
0
0
0
0
0.611673
0.701256
0.783547
0.96283
0.746106
0.828397
0.566823
0.52206
0.432419
0.693935
0.693993
0.738785
0.47721
0.477268
0.61173
0.701429
0.783663
0.962946
0.746221
0.828455
0.566939
0.0113662
0.549218
0.280385
0.470523
0.201691
0.739542
0.47071
0.642319
0.399564
0.399626
0.552676
0.444416
0.597467
0.597529
0.73193
0.489174
0.668458
0.821509
0.534027
0.866361
0.687077
0.731992
0.489299
0.668583
0.821695
0.534089
0.866486
0.687202
0.821603
0.758131
0.758193
0
0.6237
0.956034
0.956096
0.350156
0.178223
0.178281
0.260515
0.223073
0.305307
0.305364
0.439769
0.267836
0.447118
0.529352
0.312685
0.574202
0.394919
0.439826
0.267951
0.447234
0.529525
0.312743
0.574317
0.395035
0.246481
0.246543
0.291333
0.183071
0.0934286
0.138219
0.138281
0.459451
0
0.72847
0
0.649775
0
0.892645
0.459699
0
0
0.892769
0.650024
0
0
0.336092
0.515376
0.380944
0.272682
0.362261
0.407114
0.22783
0.336216
0.5155
0.381006
0.272744
0.362448
0.407238
0.227954
0.529439
0.536788
0.536846
0.798363
0.402356
0.663872
0.66393
0.605049
0.605111
0.470617
0.362355
0.63128
0.496787
0.496849
0.103368
0.0137261
0.0959603
0.0960181
0.14081
0.058518
0.0585758
0.521394
0
0.790405
0
0.499259
0
0.76827
0.521625
0
0
0.768328
0.49949
0
0
0.19298
0.282563
0.185573
0.364855
0.327413
0.230422
0.14813
0.193038
0.282737
0.185688
0.364971
0.327529
0.23048
0.148246
0.977529
0.805596
0.626372
0.708605
0.850446
0.753455
0.932679
0.97776
0.626545
0.805885
0.708837
0.850677
0.753629
0.932968
0.385088
0.922939
0.654107
0.306398
0.0375657
0.575417
0.306585
0.11963
0.0561565
0.0562186
0.0299871
0.101009
0.0747774
0.0748396
0.209241
0.145767
0.325051
0.29882
0.19062
0.343672
0.164388
0.209303
0.145892
0.325175
0.299006
0.190682
0.343796
0.164513
0.873848
0.694628
0.9187
0.541513
0.586365
0.810438
0.765585
0.694814
0.874158
0.918949
0.541762
0.586552
0.810687
0.765896
0.28265
0.551574
0.454526
0.454583
0.417083
0.417141
0.320093
0.298914
0.414724
0.414786
0.567839
0.280293
0.433345
0.433407
0.110746
0.118095
0.118153
0.0211044
0.162945
0.0658962
0.0659541
0
0
0
0
0
0
0
0.461817
0.723333
0.544109
0.506667
0.768183
0.730741
0.685891
0.462048
0.544282
0.723622
0.50684
0.768414
0.730972
0.68618
0.200358
0.207707
0.38699
0.289942
0.252557
0.334791
0.155509
0.200416
0.207823
0.387106
0.290115
0.252615
0.334907
0.155624
0.082356
0.0824182
0.127208
0.198229
0.108586
0.153376
0.153438
0.870496
0
0
0
0.48565
0
0.818161
0.870745
0
0
0.818285
0.485899
0
0
0.504303
0.478072
0.522924
0.746996
0.683523
0.728375
0.702144
0.50449
0.47832
0.52311
0.747245
0.683834
0.728624
0.702455
0.290029
0.47666
0.476718
0.558952
0.342227
0.424462
0.424519
0.171967
0.351251
0.216819
0.287839
0.377418
0.422271
0.242987
0.172091
0.351375
0.216881
0.287902
0.377605
0.422395
0.243111
0.440924
0.440986
0.306492
0.377512
0.646437
0.511944
0.512006
0
0
0
0
0
0
0
0.730828
0.633779
0.992344
0.596337
0.857853
0.820411
0.954902
0.730885
0.633895
0.99246
0.596452
0.858027
0.820584
0.955017
0.401804
0.312162
0.215114
0.215172
0.259964
0.356954
0.357012
0.5941
0.747153
0.612721
0.836856
0.952666
0.818235
0.971287
0.593976
0.74709
0.612597
0.836669
0.952542
0.818048
0.971163
0
0
0
0
0.806987
0
0.986328
0
0
0
0.986443
0.807218
0
0
0.491416
0.581
0.304727
0.484009
0.625849
0.349576
0.446567
0.491474
0.581173
0.304842
0.484125
0.625965
0.349634
0.446682
0.745468
0.566244
0.469195
0.790318
0.514045
0.738119
0.693269
0.566417
0.745757
0.469426
0.790549
0.514218
0.73835
0.693558
0
0
0
0.922956
0.743734
0
0.92308
0.314069
0.429878
0.42994
0.224427
0.47473
0.269217
0.269279
0.40368
0.519489
0.698773
0.493259
0.564341
0.538111
0.358828
0.403742
0.519613
0.698897
0.493445
0.564403
0.538236
0.358952
0.530503
0.709723
0.754575
0.55667
0.601523
0.825595
0.780743
0.530689
0.710033
0.754824
0.556919
0.601709
0.825844
0.781054
0.581086
0.85001
0.57368
0.573737
0.715519
0.715577
0.439247
0.493353
0.788446
0.788508
0.762278
0.654014
0.627784
0.627847
0.656029
0
0.738264
0.880161
0.603831
0.827962
0.962395
0.655914
0
0.738206
0.879988
0.603715
0.827789
0.96228
0.588464
0.775095
0.775153
0.498823
0.819945
0.543615
0.543672
)
;

boundaryField
{
    inlet
    {
        type            calculated;
        value           uniform 0;
    }
    wall
    {
        type            calculated;
        value           uniform 0;
    }
    outlet
    {
        type            calculated;
        value           uniform 0;
    }
    procBoundary2to0
    {
        type            processor;
        value           uniform 0;
    }
    procBoundary2to3
    {
        type            processor;
        value           uniform 0;
    }
}


// ************************************************************************* //
