/*--------------------------------*- C++ -*----------------------------------*\
| =========                 |                                                 |
| \\      /  F ield         | OpenFOAM: The Open Source CFD Toolbox           |
|  \\    /   O peration     | Version:  5.x                                   |
|   \\  /    A nd           | Web:      www.OpenFOAM.org                      |
|    \\/     M anipulation  |                                                 |
\*---------------------------------------------------------------------------*/
FoamFile
{
    version     2.0;
    format      ascii;
    class       surfaceScalarField;
    location    "0.012";
    object      phi;
}
// * * * * * * * * * * * * * * * * * * * * * * * * * * * * * * * * * * * * * //

dimensions      [0 3 -1 0 0 0 0];

internalField   nonuniform List<scalar> 
4297
(
-3.11067e-09
8.42253e-10
-1.62366e-10
-2.69844e-09
9.00457e-10
-1.53453e-09
-2.36367e-09
9.03214e-10
-1.47223e-09
-1.25671e-09
9.66752e-10
-2.24567e-09
9.75682e-10
-2.26368e-09
-3.11012e-09
1.92028e-09
-1.57466e-10
-2.69687e-09
1.99016e-09
-1.50712e-09
-2.34889e-09
1.99716e-09
-1.44947e-09
-1.24659e-09
2.0572e-09
-2.20963e-09
2.07498e-09
-2.23134e-09
-3.04453e-09
2.28634e-09
5.43942e-10
-2.6334e-09
2.35422e-09
-7.7726e-10
-2.29087e-09
2.36518e-09
-7.12361e-10
-1.19633e-09
2.41998e-09
-1.46266e-09
2.43299e-09
-1.47714e-09
-3.02859e-09
2.70458e-09
4.872e-10
-2.62141e-09
2.76756e-09
-8.23036e-10
-2.27519e-09
2.78012e-09
-7.6319e-10
-1.18397e-09
2.83381e-09
-1.50796e-09
2.84711e-09
-1.526e-09
-2.96796e-09
1.73434e-09
-2.56264e-09
4.4933e-10
-2.2266e-09
5.19536e-10
-1.14206e-09
-2.13265e-10
-2.24249e-10
-2.48486e-09
6.74159e-10
-7.5093e-10
-2.57633e-09
7.90061e-10
-2.66368e-09
-2.15337e-09
8.41396e-10
-3.09657e-09
-1.2651e-09
9.20204e-10
-4.30481e-09
9.72195e-10
-4.53817e-09
-2.4276e-09
1.70595e-09
-4.88894e-10
-2.51769e-09
1.77208e-09
-2.40159e-09
-2.09813e-09
1.8045e-09
-2.83622e-09
-1.21393e-09
1.85542e-09
-4.04426e-09
1.88974e-09
-4.27957e-09
-2.37732e-09
2.21283e-09
7.24458e-10
-2.46639e-09
2.25911e-09
-1.17781e-09
-2.05112e-09
2.28319e-09
-1.60809e-09
-1.17372e-09
2.31993e-09
-2.81018e-09
2.34299e-09
-3.04325e-09
-2.35518e-09
2.21939e-09
1.16191e-09
-2.44089e-09
2.25083e-09
-7.32035e-10
-2.02742e-09
2.26562e-09
-1.16151e-09
-1.15208e-09
2.29178e-09
-2.35854e-09
2.30467e-09
-2.59199e-09
-2.32719e-09
3.04618e-09
-2.41214e-09
1.17857e-09
-2.00093e-09
7.58669e-10
-1.13311e-09
-4.22473e-10
-6.50991e-10
-3.98478e-09
1.38751e-09
-1.2778e-09
-3.6682e-09
1.42689e-09
-4.52987e-09
-3.0586e-09
1.42523e-09
-5.26807e-09
-1.6609e-09
1.46565e-09
-7.28407e-09
1.47021e-09
-7.68843e-09
-3.98689e-09
2.75752e-09
-8.61113e-10
-3.6705e-09
2.81319e-09
-4.10582e-09
-3.05767e-09
2.81948e-09
-4.84537e-09
-1.65627e-09
2.86473e-09
-6.85519e-09
2.87346e-09
-7.26072e-09
-3.93259e-09
3.36621e-09
1.10366e-09
-3.62007e-09
3.42911e-09
-2.10786e-09
-3.01227e-09
3.44137e-09
-2.83862e-09
-1.61836e-09
3.48814e-09
-4.83128e-09
3.49826e-09
-5.23167e-09
-3.91801e-09
3.68646e-09
1.8285e-09
-3.6076e-09
3.74864e-09
-1.36384e-09
-3.00156e-09
3.76449e-09
-2.09206e-09
-1.61048e-09
3.81101e-09
-4.07469e-09
3.82283e-09
-4.4756e-09
-3.85561e-09
4.96983e-09
-3.5478e-09
1.83391e-09
-2.94887e-09
1.12474e-09
-1.57285e-09
-8.23476e-10
-1.21488e-09
-5.20632e-09
1.67841e-09
-2.17632e-09
-4.89546e-09
1.80253e-09
-6.98848e-09
-4.09092e-09
1.84588e-09
-8.22001e-09
-2.23856e-09
1.93504e-09
-1.12791e-08
1.97485e-09
-1.19451e-08
-5.15168e-09
3.58204e-09
-1.50288e-09
-4.84104e-09
3.68944e-09
-6.30361e-09
-4.04146e-09
3.73068e-09
-7.53024e-09
-2.19825e-09
3.8134e-09
-1.05834e-08
3.84774e-09
-1.12475e-08
-5.06438e-09
4.43236e-09
1.49206e-09
-4.75455e-09
4.52965e-09
-3.2582e-09
-3.96335e-09
4.56657e-09
-4.46537e-09
-2.14185e-09
4.64035e-09
-7.48156e-09
4.66963e-09
-8.13849e-09
-5.02696e-09
4.8062e-09
2.68406e-09
-4.71569e-09
4.89138e-09
-2.03735e-09
-3.92747e-09
4.92225e-09
-3.23612e-09
-2.11603e-09
4.98581e-09
-6.23238e-09
5.00844e-09
-6.88442e-09
-4.9448e-09
7.35256e-09
-4.63533e-09
2.72207e-09
-3.85751e-09
1.55322e-09
-2.07048e-09
-1.38549e-09
-2.02211e-09
-7.75225e-09
2.88028e-09
-3.31055e-09
-7.09583e-09
2.94282e-09
-1.06704e-08
-5.85943e-09
2.94602e-09
-1.2491e-08
-3.11694e-09
2.98838e-09
-1.7079e-08
2.99275e-09
-1.80636e-08
-7.73904e-09
5.55212e-09
-2.32545e-09
-7.08609e-09
5.65076e-09
-9.66318e-09
-5.85184e-09
5.66683e-09
-1.14841e-08
-3.11251e-09
5.7274e-09
-1.60648e-08
5.73869e-09
-1.70499e-08
-7.65278e-09
6.74849e-09
2.12579e-09
-7.0129e-09
6.86891e-09
-5.11503e-09
-5.79187e-09
6.89544e-09
-6.9133e-09
-3.07307e-09
6.96657e-09
-1.14393e-08
6.98151e-09
-1.24159e-08
-7.61661e-09
7.37626e-09
3.88053e-09
-6.98557e-09
7.50474e-09
-3.30327e-09
-5.77297e-09
7.54093e-09
-5.09305e-09
-3.06401e-09
7.62208e-09
-9.59615e-09
7.64095e-09
-1.05723e-08
-7.48827e-09
1.0925e-08
-6.86787e-09
3.91533e-09
-5.67831e-09
2.18324e-09
-3.00743e-09
-2.21768e-09
-3.16719e-09
-1.11883e-08
4.06839e-09
-5.05868e-09
-1.0319e-08
4.20395e-09
-1.59543e-08
-8.54634e-09
4.24591e-09
-1.8696e-08
-4.55941e-09
4.35124e-09
-2.55427e-08
4.38354e-09
-2.70299e-08
-1.11264e-08
7.96757e-09
-3.62322e-09
-1.02601e-08
8.1482e-09
-1.44712e-08
-8.49767e-09
8.20277e-09
-1.72008e-08
-4.5264e-09
8.34107e-09
-2.40262e-08
8.38006e-09
-2.55089e-08
-1.0966e-08
9.70447e-09
2.94938e-09
-1.00979e-08
9.90341e-09
-7.73594e-09
-8.36156e-09
9.96547e-09
-1.04096e-08
-4.43946e-09
1.01198e-08
-1.71384e-08
1.01637e-08
-1.85988e-08
-1.09015e-08
1.05985e-08
5.53827e-09
-1.0034e-08
1.07977e-08
-5.06296e-09
-8.30894e-09
1.08576e-08
-7.70818e-09
-4.40587e-09
1.10036e-08
-1.43813e-08
1.10472e-08
-1.58291e-08
-1.07042e-08
1.59171e-08
-9.84532e-09
5.5905e-09
-8.15023e-09
3.02991e-09
-4.31261e-09
-3.47591e-09
-4.87349e-09
-1.65229e-08
6.21945e-09
-7.58115e-09
-1.49763e-08
6.34569e-09
-2.38897e-08
-1.2207e-08
6.32013e-09
-2.78309e-08
-6.41304e-09
6.36294e-09
-3.7727e-08
6.35096e-09
-3.97937e-08
-1.64896e-08
1.18722e-08
-5.50356e-09
-1.49645e-08
1.21018e-08
-2.17497e-08
-1.2219e-08
1.20796e-08
-2.5703e-08
-6.42492e-09
1.21556e-08
-3.56123e-08
1.21445e-08
-3.76955e-08
-1.63002e-08
1.44209e-08
4.14842e-09
-1.48304e-08
1.47361e-08
-1.18375e-08
-1.21406e-08
1.47728e-08
-1.57899e-08
-6.38289e-09
1.49046e-08
-2.56432e-08
1.49165e-08
-2.77374e-08
-1.62094e-08
1.57909e-08
7.92258e-09
-1.47923e-08
1.61514e-08
-7.89309e-09
-1.21594e-08
1.62415e-08
-1.18075e-08
-6.40307e-09
1.64274e-08
-2.16588e-08
1.64613e-08
-2.37624e-08
-1.58492e-08
2.3268e-08
-1.44792e-08
7.97693e-09
-1.19335e-08
4.23353e-09
-6.28282e-09
-5.35299e-09
-7.39003e-09
-2.44896e-08
9.20045e-09
-1.12934e-08
-2.23618e-08
9.43479e-09
-3.55366e-08
-1.84082e-08
9.51138e-09
-4.13706e-08
-9.66516e-09
9.60817e-09
-5.61212e-08
9.61384e-09
-5.90926e-08
-2.43864e-08
1.75919e-08
-8.29445e-09
-2.22977e-08
1.7991e-08
-3.23931e-08
-1.83678e-08
1.81298e-08
-3.82499e-08
-9.65982e-09
1.83228e-08
-5.30357e-08
1.836e-08
-5.60788e-08
-2.4055e-08
2.1373e-08
5.91104e-09
-2.20405e-08
2.18472e-08
-1.77066e-08
-1.81798e-08
2.19963e-08
-2.35157e-08
-9.5722e-09
2.22517e-08
-3.81793e-08
2.23111e-08
-4.1256e-08
-2.3891e-08
2.33277e-08
1.14792e-08
-2.1891e-08
2.38511e-08
-1.18953e-08
-1.8044e-08
2.40129e-08
-1.76698e-08
-9.50237e-09
2.43378e-08
-3.22859e-08
2.44338e-08
-3.53842e-08
-2.3369e-08
3.40338e-08
-2.14229e-08
1.15452e-08
-1.76567e-08
6.01407e-09
-9.28817e-09
-8.11856e-09
-1.10713e-08
-3.64902e-08
1.37517e-08
-1.66961e-08
-3.31033e-08
1.41178e-08
-5.30236e-08
-2.69684e-08
1.41294e-08
-6.16238e-08
-1.40401e-08
1.41646e-08
-8.3185e-08
1.40904e-08
-8.72534e-08
-3.63483e-08
2.60735e-08
-1.22787e-08
-3.30768e-08
2.68375e-08
-4.83845e-08
-2.70353e-08
2.69371e-08
-5.71002e-08
-1.4116e-08
2.70766e-08
-7.88706e-08
2.70096e-08
-8.31375e-08
-3.58708e-08
3.15918e-08
8.71928e-09
-3.27772e-08
3.25792e-08
-2.6542e-08
-2.68955e-08
3.28064e-08
-3.52672e-08
-1.40819e-08
3.3106e-08
-5.70243e-08
3.31333e-08
-6.14948e-08
-3.55031e-08
3.44e-08
1.6943e-08
-3.25513e-08
3.55134e-08
-1.77811e-08
-2.67982e-08
3.58814e-08
-2.6498e-08
-1.40722e-08
3.63584e-08
-4.82653e-08
3.64995e-08
-5.28482e-08
-3.43908e-08
5.00763e-08
-3.15669e-08
1.70165e-08
-2.60401e-08
8.83806e-09
-1.37135e-08
-1.20818e-08
-1.6441e-08
-5.4783e-08
2.07287e-08
-2.45849e-08
-5.04719e-08
2.14145e-08
-7.87044e-08
-4.18405e-08
2.17741e-08
-9.19874e-08
-2.21205e-08
2.21178e-08
-1.24965e-07
2.2251e-08
-1.31676e-07
-5.4512e-08
3.9252e-08
-1.79605e-08
-5.02421e-08
4.04343e-08
-7.16762e-08
-4.16355e-08
4.11057e-08
-8.50415e-08
-2.19914e-08
4.17461e-08
-1.18149e-07
4.19534e-08
-1.24895e-07
-5.35442e-08
4.75573e-08
1.3164e-08
-4.95947e-08
4.90755e-08
-3.9134e-08
-4.0998e-08
4.96768e-08
-5.24372e-08
-2.16573e-08
5.03242e-08
-8.49467e-08
5.05539e-08
-9.18199e-08
-5.29976e-08
5.13328e-08
2.58482e-08
-4.89953e-08
5.30509e-08
-2.57596e-08
-4.03382e-08
5.35964e-08
-3.90759e-08
-2.13106e-08
5.45605e-08
-7.15309e-08
5.4827e-08
-7.84872e-08
-5.12802e-08
7.47658e-08
-4.7481e-08
2.59384e-08
-3.91643e-08
1.33125e-08
-2.06383e-08
-1.77245e-08
-2.42752e-08
-8.29663e-08
3.16237e-08
-3.52839e-08
-7.87175e-08
3.28622e-08
-1.1566e-07
-6.72407e-08
3.39838e-08
-1.37302e-07
-3.68782e-08
3.61656e-08
-1.9135e-07
3.71256e-08
-2.05728e-07
-8.21881e-08
5.91975e-08
-2.50916e-08
-7.76915e-08
6.17649e-08
-1.05077e-07
-6.60089e-08
6.3511e-08
-1.26254e-07
-3.59054e-08
6.62345e-08
-1.78326e-07
6.74487e-08
-1.91241e-07
-8.05269e-08
7.11063e-08
2.14069e-08
-7.55633e-08
7.41129e-08
-5.64471e-08
-6.32681e-08
7.57489e-08
-7.69724e-08
-3.37128e-08
7.78678e-08
-1.26138e-07
7.88919e-08
-1.37091e-07
-7.90368e-08
7.59237e-08
4.0646e-08
-7.39361e-08
7.9156e-08
-3.59045e-08
-6.15407e-08
8.06485e-08
-5.63719e-08
-3.26184e-08
8.23084e-08
-1.04895e-07
8.3083e-08
-1.15393e-07
-7.58056e-08
1.12382e-07
-7.09331e-08
4.07556e-08
-5.89842e-08
2.15926e-08
-3.13901e-08
-2.47991e-08
-3.4904e-08
-1.26223e-07
4.79898e-08
-5.01353e-08
-1.23189e-07
5.13176e-08
-1.69765e-07
-1.07186e-07
5.39538e-08
-2.07026e-07
-5.86321e-08
5.76142e-08
-2.97281e-07
5.90433e-08
-3.23432e-07
-1.24632e-07
8.89095e-08
-3.38659e-08
-1.20573e-07
9.4351e-08
-1.52169e-07
-1.04331e-07
9.90977e-08
-1.87641e-07
-5.71991e-08
1.04702e-07
-2.72547e-07
1.07536e-07
-2.97116e-07
-1.21091e-07
1.06033e-07
3.57164e-08
-1.16315e-07
1.12371e-07
-7.92434e-08
-9.87095e-08
1.16633e-07
-1.12114e-07
-5.35356e-08
1.20878e-07
-1.87488e-07
1.23476e-07
-2.06739e-07
-1.18176e-07
1.1257e-07
6.4152e-08
-1.12069e-07
1.18381e-07
-4.8023e-08
-9.39642e-08
1.21297e-07
-7.91402e-08
-5.08921e-08
1.24835e-07
-1.51922e-07
1.26423e-07
-1.69389e-07
-1.1237e-07
1.70405e-07
-1.05745e-07
6.42938e-08
-8.85541e-08
3.59584e-08
-4.76023e-08
-3.3481e-08
-4.96278e-08
-1.9232e-07
7.17054e-08
-6.76203e-08
-1.87755e-07
7.75003e-08
-2.51448e-07
-1.62638e-07
8.1874e-08
-3.13646e-07
-8.58646e-08
8.55655e-08
-4.59256e-07
8.64937e-08
-4.95779e-07
-1.8781e-07
1.315e-07
-4.28313e-08
-1.83521e-07
1.43009e-07
-2.21965e-07
-1.59828e-07
1.51363e-07
-2.8082e-07
-8.49095e-08
1.60417e-07
-4.2231e-07
1.63202e-07
-4.58996e-07
-1.79069e-07
1.54037e-07
6.02359e-08
-1.72984e-07
1.65724e-07
-1.08042e-07
-1.50773e-07
1.73451e-07
-1.56411e-07
-8.12089e-08
1.83969e-07
-2.80599e-07
1.88183e-07
-3.13175e-07
-1.72325e-07
1.60907e-07
1.00468e-07
-1.65277e-07
1.72624e-07
-6.19712e-08
-1.42429e-07
1.79371e-07
-1.07907e-07
-7.68648e-08
1.88098e-07
-2.21614e-07
1.92585e-07
-2.50882e-07
-1.60622e-07
2.50405e-07
-1.53605e-07
1.00636e-07
-1.3095e-07
6.05358e-08
-7.11054e-08
-4.23299e-08
-6.694e-08
-2.85618e-07
1.01487e-07
-9.02874e-08
-2.71821e-07
1.12562e-07
-3.77277e-07
-2.42206e-07
1.15473e-07
-4.58222e-07
-1.2469e-07
1.24012e-07
-7.00276e-07
1.25509e-07
-7.45936e-07
-2.78885e-07
1.88628e-07
-5.5732e-08
-2.67052e-07
2.08624e-07
-3.29857e-07
-2.35329e-07
2.16466e-07
-4.13531e-07
-1.23153e-07
2.36102e-07
-6.46565e-07
2.42899e-07
-6.99911e-07
-2.62484e-07
2.22179e-07
9.37409e-08
-2.51845e-07
2.41923e-07
-1.5198e-07
-2.15619e-07
2.52507e-07
-2.28675e-07
-1.14586e-07
2.67668e-07
-4.13194e-07
2.72373e-07
-4.5758e-07
-2.52836e-07
2.34207e-07
1.50157e-07
-2.4128e-07
2.53271e-07
-8.48743e-08
-2.07773e-07
2.62922e-07
-1.51828e-07
-1.11662e-07
2.79304e-07
-3.2936e-07
2.85992e-07
-3.76486e-07
-2.33782e-07
3.62185e-07
-2.21563e-07
1.50374e-07
-1.87852e-07
9.41243e-08
-1.00652e-07
-5.50604e-08
-8.9393e-08
-4.22617e-07
1.44167e-07
-1.09144e-07
-3.78344e-07
1.60516e-07
-5.81383e-07
-2.86266e-07
1.60612e-07
-7.10264e-07
-1.50304e-07
1.53977e-07
-9.89605e-07
1.51273e-07
-1.04748e-06
-4.1124e-07
2.66157e-07
-6.25238e-08
-3.77061e-07
3.00746e-07
-5.04264e-07
-2.95537e-07
3.11608e-07
-6.46047e-07
-1.52984e-07
2.96447e-07
-9.31578e-07
2.87131e-07
-9.89218e-07
-3.79664e-07
3.1505e-07
1.38339e-07
-3.57095e-07
3.44331e-07
-2.18133e-07
-3.10636e-07
3.5788e-07
-3.21405e-07
-1.5958e-07
3.7779e-07
-6.4559e-07
3.79002e-07
-7.09457e-07
-3.6257e-07
3.35244e-07
2.14039e-07
-3.43519e-07
3.63104e-07
-1.22699e-07
-2.99705e-07
3.80197e-07
-2.17959e-07
-1.59442e-07
4.11716e-07
-5.0355e-07
4.23004e-07
-5.8033e-07
-3.34718e-07
5.07032e-07
-3.14279e-07
2.14303e-07
-2.65149e-07
1.38781e-07
-1.43044e-07
-6.17376e-08
-1.08011e-07
-5.94369e-07
2.00172e-07
-1.56985e-07
-5.14596e-07
2.14135e-07
-8.74389e-07
-3.96391e-07
2.12174e-07
-1.03977e-06
-2.13027e-07
2.14384e-07
-1.38651e-06
2.14431e-07
-1.47493e-06
-5.88304e-07
3.7256e-07
-8.40267e-08
-5.14899e-07
4.17591e-07
-7.81125e-07
-3.98145e-07
4.02554e-07
-9.53179e-07
-2.12974e-07
3.99393e-07
-1.30175e-06
3.97599e-07
-1.38606e-06
-5.49629e-07
4.44088e-07
1.95132e-07
-5.16393e-07
4.94271e-07
-3.2805e-07
-4.01269e-07
5.17461e-07
-5.51434e-07
-2.10774e-07
5.15901e-07
-9.52593e-07
5.15521e-07
-1.03877e-06
-5.23107e-07
4.60803e-07
3.1112e-07
-4.93175e-07
5.23895e-07
-1.82257e-07
-4.16266e-07
5.50438e-07
-3.27846e-07
-2.1271e-07
5.89059e-07
-7.80264e-07
5.95031e-07
-8.73115e-07
-4.60022e-07
6.69028e-07
-4.42974e-07
3.1146e-07
-3.71174e-07
1.95717e-07
-1.98691e-07
-8.29767e-08
-1.55523e-07
-8.09609e-07
2.91129e-07
-2.8356e-07
-7.28928e-07
2.96363e-07
-1.25026e-06
-5.81949e-07
2.99702e-07
-1.48532e-06
-3.20331e-07
3.15947e-07
-1.963e-06
3.2219e-07
-2.11746e-06
-8.14292e-07
5.25577e-07
-1.42377e-07
-7.23648e-07
5.4444e-07
-1.11985e-06
-5.72074e-07
5.46438e-07
-1.35149e-06
-3.14103e-07
5.73681e-07
-1.81746e-06
5.83568e-07
-1.96244e-06
-8.00466e-07
6.36411e-07
2.70068e-07
-7.03944e-07
7.14366e-07
-5.94497e-07
-5.44857e-07
7.05218e-07
-8.69301e-07
-2.97894e-07
7.24881e-07
-1.35075e-06
7.30143e-07
-1.48403e-06
-7.58615e-07
6.62729e-07
4.43429e-07
-7.13067e-07
7.59511e-07
-2.7295e-07
-5.42832e-07
8.01374e-07
-5.94237e-07
-2.94533e-07
8.15124e-07
-1.11881e-06
8.10458e-07
-1.24868e-06
-6.61832e-07
8.87164e-07
-6.35078e-07
4.43804e-07
-5.2384e-07
2.7072e-07
-2.89158e-07
-1.41139e-07
-2.81524e-07
-1.15924e-06
4.29675e-07
-5.17534e-07
-1.10468e-06
4.44173e-07
-1.74735e-06
-9.07632e-07
4.59405e-07
-2.1402e-06
-5.04398e-07
4.92284e-07
-2.85704e-06
5.06965e-07
-3.12882e-06
-1.16439e-06
7.56317e-07
-2.51569e-07
-1.08459e-06
7.99337e-07
-1.55481e-06
-8.84186e-07
8.27359e-07
-1.91984e-06
-4.89743e-07
8.86485e-07
-2.6061e-06
9.09974e-07
-2.85648e-06
-1.13417e-06
8.99888e-07
3.59182e-07
-1.02646e-06
9.97716e-07
-9.00586e-07
-8.25061e-07
1.02831e-06
-1.27165e-06
-4.56868e-07
1.08643e-06
-1.91889e-06
1.10654e-06
-2.13861e-06
-1.09708e-06
9.716e-07
5.97846e-07
-9.95876e-07
1.09834e-06
-4.74782e-07
-7.97034e-07
1.13553e-06
-9.00297e-07
-4.41668e-07
1.16579e-06
-1.55352e-06
1.16046e-06
-1.74535e-06
-9.70312e-07
1.2417e-06
-8.9793e-07
5.98121e-07
-7.53792e-07
3.59902e-07
-4.27357e-07
-2.49431e-07
-5.15244e-07
-1.7603e-06
6.01445e-07
-8.07638e-07
-1.73738e-06
6.82615e-07
-2.45087e-06
-1.45108e-06
7.26297e-07
-3.15089e-06
-8.20262e-07
7.90354e-07
-4.27648e-06
8.23236e-07
-4.7723e-06
-1.71574e-06
1.12455e-06
-4.74495e-07
-1.68166e-06
1.22079e-06
-2.12706e-06
-1.3998e-06
1.29144e-06
-2.76685e-06
-7.87384e-07
1.40244e-06
-3.8306e-06
1.45375e-06
-4.27587e-06
-1.64344e-06
1.32224e-06
4.78307e-07
-1.55849e-06
1.48235e-06
-1.24708e-06
-1.28879e-06
1.5606e-06
-1.8105e-06
-7.23313e-07
1.68375e-06
-2.76568e-06
1.73957e-06
-3.14904e-06
-1.58762e-06
1.43654e-06
7.93756e-07
-1.48026e-06
1.58906e-06
-6.88856e-07
-1.21813e-06
1.64479e-06
-1.24662e-06
-6.79568e-07
1.71699e-06
-2.12532e-06
1.76177e-06
-2.44838e-06
-1.43507e-06
1.82098e-06
-1.3202e-06
7.94201e-07
-1.12194e-06
4.79087e-07
-5.98336e-07
-4.72278e-07
-8.04728e-07
-2.70621e-06
8.84201e-07
-1.12715e-06
-2.68233e-06
1.03607e-06
-3.50802e-06
-2.23768e-06
1.11894e-06
-4.71181e-06
-1.28491e-06
1.22891e-06
-6.45571e-06
1.28912e-06
-7.34638e-06
-2.61078e-06
1.59925e-06
-6.58394e-07
-2.57661e-06
1.83855e-06
-2.9637e-06
-2.14392e-06
1.96911e-06
-4.04971e-06
-1.22477e-06
2.14768e-06
-5.66853e-06
2.24155e-06
-6.4553e-06
-2.41835e-06
1.94547e-06
6.1556e-07
-2.36423e-06
2.22396e-06
-1.68661e-06
-1.96524e-06
2.36742e-06
-2.60782e-06
-1.11473e-06
2.57968e-06
-4.0482e-06
2.68559e-06
-4.70978e-06
-2.30622e-06
2.04859e-06
1.15972e-06
-2.22086e-06
2.30858e-06
-8.58839e-07
-1.83472e-06
2.42062e-06
-1.68596e-06
-1.03182e-06
2.61315e-06
-2.9617e-06
2.70886e-06
-3.50538e-06
-2.04617e-06
2.66767e-06
-1.94245e-06
1.16064e-06
-1.59512e-06
6.16117e-07
-8.79791e-07
-6.55429e-07
-1.1233e-06
-4.26176e-06
1.35751e-06
-1.48047e-06
-4.33753e-06
1.63974e-06
-5.06876e-06
-3.66367e-06
1.822e-06
-7.20462e-06
-2.18153e-06
2.03287e-06
-9.9681e-06
2.18607e-06
-1.1714e-05
-4.06121e-06
2.41436e-06
-7.93189e-07
-4.10904e-06
2.8601e-06
-4.13623e-06
-3.45126e-06
3.12489e-06
-6.01038e-06
-2.02834e-06
3.45517e-06
-8.51376e-06
3.66759e-06
-9.96755e-06
-3.69546e-06
2.93847e-06
8.98336e-07
-3.72633e-06
3.43789e-06
-2.23353e-06
-3.12095e-06
3.72955e-06
-3.81786e-06
-1.81746e-06
4.11214e-06
-6.00866e-06
4.34074e-06
-7.20229e-06
-3.47753e-06
2.98125e-06
1.88135e-06
-3.43464e-06
3.47995e-06
-9.43787e-07
-2.85611e-06
3.69805e-06
-2.233e-06
-1.63504e-06
4.06346e-06
-4.1341e-06
4.26427e-06
-5.06597e-06
-2.97885e-06
3.97422e-06
-2.93507e-06
1.88266e-06
-2.41055e-06
9.00046e-07
-1.35259e-06
-7.89983e-07
-1.47581e-06
-6.33106e-06
2.01039e-06
-1.90493e-06
-6.60408e-06
2.46411e-06
-7.25517e-06
-5.64444e-06
2.78401e-06
-1.09438e-05
-3.42289e-06
3.16638e-06
-1.5352e-05
3.42983e-06
-1.85668e-05
-5.9925e-06
3.51129e-06
-8.21501e-07
-6.18911e-06
4.21039e-06
-5.6859e-06
-5.25005e-06
4.68566e-06
-8.85108e-06
-3.15966e-06
5.25623e-06
-1.2694e-05
5.65089e-06
-1.53521e-05
-5.44375e-06
4.17827e-06
1.54749e-06
-5.54838e-06
5.02522e-06
-2.94374e-06
-4.67915e-06
5.55391e-06
-5.55534e-06
-2.77707e-06
6.19414e-06
-8.84865e-06
6.60948e-06
-1.09412e-05
-4.99405e-06
4.18984e-06
3.06344e-06
-5.01999e-06
4.99824e-06
-8.90871e-07
-4.20414e-06
5.44834e-06
-2.94327e-06
-2.45722e-06
5.99652e-06
-5.68338e-06
6.33545e-06
-7.25237e-06
-4.18554e-06
5.84759e-06
-4.17261e-06
3.06519e-06
-3.50479e-06
1.55024e-06
-2.00308e-06
-8.17722e-07
-1.89954e-06
-1.01545e-05
3.18315e-06
-2.25047e-06
-1.10961e-05
4.01005e-06
-1.03189e-05
-9.79332e-06
4.78427e-06
-1.70261e-05
-6.3727e-06
5.55785e-06
-2.43267e-05
6.37966e-06
-3.13187e-05
-9.44401e-06
5.44751e-06
-5.31802e-07
-1.01272e-05
6.64366e-06
-7.6363e-06
-8.79003e-06
7.68057e-06
-1.30846e-05
-5.55101e-06
8.79577e-06
-1.91709e-05
9.79912e-06
-2.43265e-05
-8.48953e-06
6.30417e-06
2.97846e-06
-8.92836e-06
7.83341e-06
-3.69465e-06
-7.67479e-06
8.93288e-06
-8.06121e-06
-4.77744e-06
1.01313e-05
-1.30816e-05
1.11002e-05
-1.70228e-05
-7.62523e-06
6.05549e-06
5.30346e-06
-7.82875e-06
7.62877e-06
-4.82703e-07
-6.63785e-06
8.4929e-06
-3.69417e-06
-4.00306e-06
9.44597e-06
-7.63279e-06
1.01564e-05
-1.03149e-05
-6.05218e-06
8.74649e-06
-6.2997e-06
5.30629e-06
-5.44249e-06
2.98283e-06
-3.17625e-06
-5.28684e-07
-2.24516e-06
-1.49181e-05
4.53731e-06
-2.39107e-06
-1.68246e-05
5.96557e-06
-1.43707e-05
-1.52214e-05
7.25232e-06
-2.58743e-05
-9.98995e-06
8.77706e-06
-3.83289e-05
1.00015e-05
-5.131e-05
-1.36334e-05
7.45189e-06
4.95956e-07
-1.50896e-05
9.59534e-06
-9.80984e-06
-1.34181e-05
1.14248e-05
-1.89286e-05
-8.76601e-06
1.34285e-05
-2.84744e-05
1.52324e-05
-3.83301e-05
-1.19963e-05
8.65676e-06
5.14387e-06
-1.30257e-05
1.11443e-05
-4.21415e-06
-1.14135e-05
1.30356e-05
-1.12842e-05
-7.24071e-06
1.50986e-05
-1.89245e-05
1.68342e-05
-2.58707e-05
-1.03365e-05
8.35041e-06
8.38203e-06
-1.11352e-05
1.03438e-05
1.11653e-06
-9.58457e-06
1.20049e-05
-4.21408e-06
-5.95437e-06
1.3642e-05
-9.80644e-06
1.49265e-05
-1.43676e-05
-8.34272e-06
1.28769e-05
-8.64648e-06
8.38509e-06
-7.43917e-06
5.14915e-06
-4.52548e-06
5.03105e-07
-2.38578e-06
-2.46935e-05
7.5273e-06
-1.64456e-06
-2.98477e-05
1.00111e-05
-1.9221e-05
-2.88386e-05
1.34675e-05
-4.03432e-05
-2.15449e-05
1.66002e-05
-6.2218e-05
2.15563e-05
-9.44092e-05
-2.19944e-05
1.15299e-05
3.53674e-06
-2.55249e-05
1.54167e-05
-1.16848e-05
-2.36449e-05
1.9586e-05
-2.6927e-05
-1.65899e-05
2.36539e-05
-4.25832e-05
2.88483e-05
-6.22198e-05
-1.89217e-05
1.3039e-05
9.59394e-06
-2.15159e-05
1.75955e-05
-3.79879e-06
-1.95768e-05
2.15229e-05
-1.51602e-05
-1.34569e-05
2.55317e-05
-2.69221e-05
2.98542e-05
-4.0339e-05
-1.57053e-05
1.19373e-05
1.40714e-05
-1.75878e-05
1.57106e-05
4.88401e-06
-1.54073e-05
1.89272e-05
-3.79884e-06
-1.00005e-05
2.19992e-05
-1.16807e-05
2.46954e-05
-1.92157e-05
-1.19322e-05
1.93628e-05
-1.30318e-05
1.40761e-05
-1.15207e-05
9.60144e-06
-7.51786e-06
3.54738e-06
-1.64221e-06
-3.60113e-05
9.80068e-06
1.23328e-06
-4.51655e-05
1.47747e-05
-2.48311e-05
-4.54802e-05
2.00486e-05
-6.00663e-05
-3.29885e-05
2.71555e-05
-0.000101857
3.30054e-05
-0.000160401
-3.08152e-05
1.50808e-05
8.83964e-06
-3.7469e-05
2.17269e-05
-1.19834e-05
-3.65996e-05
2.88322e-05
-3.658e-05
-2.71378e-05
3.66168e-05
-6.15064e-05
4.54987e-05
-0.000101862
-2.56791e-05
1.71534e-05
1.58348e-05
-3.05139e-05
2.39507e-05
-1.18778e-06
-2.88132e-05
3.05308e-05
-1.85596e-05
-2.00293e-05
3.74842e-05
-3.65734e-05
4.5183e-05
-6.0062e-05
-2.04448e-05
1.57073e-05
2.16797e-05
-2.39357e-05
2.04565e-05
1.18692e-05
-2.17092e-05
2.56945e-05
-1.18897e-06
-1.4756e-05
3.08308e-05
-1.19806e-05
3.60288e-05
-2.48286e-05
-1.5694e-05
2.82396e-05
-1.71352e-05
2.1684e-05
-1.50598e-05
1.58456e-05
-9.77812e-06
8.8547e-06
1.24052e-06
-6.13032e-05
1.633e-05
1.00379e-05
-8.4177e-05
2.50021e-05
-2.69514e-05
-9.66266e-05
4.03516e-05
-8.79561e-05
-8.74662e-05
5.42088e-05
-0.000165223
8.74894e-05
-0.000335348
-4.98335e-05
2.33595e-05
2.05667e-05
-6.44197e-05
3.54668e-05
-7.86174e-06
-6.72822e-05
5.15783e-05
-4.49442e-05
-5.41959e-05
6.72952e-05
-8.76792e-05
9.6645e-05
-0.000165232
-3.99608e-05
2.53432e-05
2.83499e-05
-5.13141e-05
3.69443e-05
8.68803e-06
-5.15629e-05
5.13272e-05
-1.80597e-05
-4.03344e-05
6.44302e-05
-4.49368e-05
8.41921e-05
-8.79543e-05
-3.04554e-05
2.1793e-05
3.51885e-05
-3.69318e-05
3.04632e-05
2.48267e-05
-3.54511e-05
3.99686e-05
8.68894e-06
-2.49841e-05
4.9843e-05
-7.86042e-06
6.13142e-05
-2.69482e-05
-2.17852e-05
4.19885e-05
-2.53307e-05
3.51944e-05
-2.33429e-05
2.83634e-05
-1.63109e-05
2.05877e-05
1.00508e-05
-8.60289e-05
2.02959e-05
2.49438e-05
-0.000128134
3.75338e-05
-2.23684e-05
-0.000154663
5.81327e-05
-0.000119546
-0.000124522
9.69377e-05
-0.000292289
0.000124528
-0.000584389
-6.55924e-05
2.93893e-05
3.7561e-05
-9.23463e-05
4.76442e-05
8.78181e-06
-0.000107748
7.40588e-05
-4.54681e-05
-9.69097e-05
0.000107775
-0.000109356
0.00015469
-0.000292317
-5.09672e-05
3.12716e-05
4.53386e-05
-6.8972e-05
4.67425e-05
2.75945e-05
-7.40285e-05
6.90004e-05
-7.9448e-06
-5.8103e-05
9.23714e-05
-4.54583e-05
0.00012816
-0.000119543
-3.77056e-05
2.60969e-05
5.35939e-05
-4.67195e-05
3.77232e-05
4.28599e-05
-4.76177e-05
5.09866e-05
2.7601e-05
-3.75055e-05
6.5612e-05
8.78679e-06
8.60553e-05
-2.23707e-05
-2.60769e-05
5.92809e-05
-3.12429e-05
5.35987e-05
-2.93531e-05
4.53513e-05
-2.02566e-05
3.75846e-05
2.49705e-05
-0.000143496
3.31019e-05
6.22237e-05
-0.000237994
5.78214e-05
1.43137e-05
-0.000377426
0.000118905
-9.90025e-05
-0.00043053
0.000185469
-0.000424671
0.000430617
-0.000351815
-0.000477611
-0.000264212
-0.000351865
-0.000101812
4.27517e-05
7.18494e-05
-0.000154708
7.20643e-05
4.74357e-05
-0.000197566
0.000131292
-1.4998e-05
-0.000185471
0.000197578
-0.00013356
0.000377465
-0.000424695
-7.61235e-05
4.27114e-05
7.72876e-05
-0.000108865
6.85312e-05
6.38689e-05
-0.000131267
0.000108887
3.68626e-05
-0.000118879
0.000154728
-1.49967e-05
0.000238035
-9.9018e-05
-5.21345e-05
3.37849e-05
8.20858e-05
-6.85104e-05
5.21463e-05
7.56208e-05
-7.20379e-05
7.61329e-05
6.3882e-05
-5.77946e-05
0.000101816
4.74557e-05
0.000143508
1.43305e-05
-3.37731e-05
8.38034e-05
-4.26912e-05
8.20927e-05
-4.27249e-05
7.73032e-05
-3.30724e-05
7.18762e-05
6.22569e-05
-0.000192442
3.56397e-05
0.000120674
-0.000385513
8.18667e-05
0.000125529
-0.000762723
0.000166103
0.000112124
-0.00017287
0.00041599
-9.1244e-05
-0.000269862
-3.25438e-05
-0.000144382
-0.000157347
-0.000421291
-0.000313777
-0.000125738
0.000111385
-0.000510407
-0.000122772
4.55137e-05
0.000120383
-0.000198888
8.94001e-05
0.000116018
-0.000341166
0.000174322
0.000119061
-0.000415938
0.000341197
1.6005e-05
0.00076274
-0.000144443
-0.000269935
-3.25017e-05
-9.11071e-05
-0.000157413
-0.000172903
-0.00031376
-0.000421308
-8.57585e-05
4.35113e-05
0.000116605
-0.000130421
7.57114e-05
0.00012222
-0.000174276
0.000130458
0.000124582
-0.000166049
0.000198915
0.000119058
0.000385552
0.00011209
-5.48938e-05
3.35225e-05
0.000114235
-7.56797e-05
5.49164e-05
0.000117202
-8.93615e-05
8.57849e-05
0.000122237
-8.18222e-05
0.000122789
0.000116043
0.000192448
0.00012557
-3.34956e-05
0.000109049
-4.34707e-05
0.000114241
-4.54645e-05
0.000116625
-3.55868e-05
0.000120408
0.000120704
-0.000243476
4.42459e-05
0.000211225
-0.000501621
8.84763e-05
0.000295185
-0.000304319
0.000234206
0.000526141
-0.000228071
-0.000345682
-0.000271784
-0.000536796
9.65495e-05
4.46253e-05
0.00021288
0.000173898
-0.000242732
6.92447e-05
-0.000213346
-0.000157537
5.23186e-05
0.000186368
-0.00030195
0.000108574
0.000240333
-0.000539558
0.00023598
0.000354896
-0.000251918
0.000539574
0.000170029
-0.000127835
-0.000251876
-0.000171384
-0.000347474
-0.000127855
-0.000347617
-0.00017127
0.000246469
0.000147563
0.000170042
-0.000537443
-0.000224372
0.000357862
7.59232e-06
-9.93158e-05
4.70977e-05
0.000167942
-0.00016339
8.98941e-05
0.000204974
-0.000235959
0.000163425
0.000269706
-0.000234198
0.000301973
0.000354898
0.000501622
0.000526201
-0.000228031
-0.000304341
-0.000271824
-0.000345823
-6.14517e-05
3.44693e-05
0.00015136
-8.98608e-05
6.14701e-05
0.000174035
-0.000108525
9.93284e-05
0.000204998
-8.84174e-05
0.00015754
0.000240368
0.000243483
0.000295227
-3.44513e-05
0.000136791
-4.70638e-05
0.000151368
-5.22805e-05
0.000167975
-4.42082e-05
0.000186402
0.000211274
-8.88872e-05
1.80163e-05
0.000229953
-0.00014094
3.51206e-05
0.000312091
-0.000212356
6.01572e-05
0.000493281
-0.000145909
0.000130026
5.99209e-05
-0.000340399
5.48543e-05
0.000454556
-5.05099e-05
-0.000141562
-0.000137301
-5.2005e-05
0.000514674
0.000334929
-0.000105515
0.000178823
-0.000922854
-6.93788e-05
2.34092e-05
0.000206252
-0.000111348
4.88784e-05
0.000268544
-0.000101502
7.52899e-05
0.000365401
-6.40212e-05
3.31454e-05
-4.60825e-06
-7.8733e-05
-0.000146826
7.89523e-05
0.000215134
-0.000115095
-0.000148276
8.51198e-05
-0.000102331
0.000109026
0.000171556
-4.63894e-05
2.30632e-05
0.000186559
-6.51066e-05
4.41257e-05
0.000228444
-7.52356e-05
6.51516e-05
0.000289973
-6.01473e-05
0.000111387
0.000365465
-6.40205e-05
-0.000101512
-4.64422e-06
3.31351e-05
0.000140988
0.000493373
-0.000145907
-0.000212318
5.9904e-05
0.000129942
-3.28934e-05
1.7903e-05
0.000167908
-4.40738e-05
3.29237e-05
0.000196417
-4.88208e-05
4.6416e-05
0.000228481
-3.50669e-05
6.94023e-05
0.000268599
8.88972e-05
0.000312146
-1.78691e-05
0.000150299
-2.29978e-05
0.000167909
-2.33377e-05
0.000186607
-1.79326e-05
0.000206296
0.000230048
4.52597e-05
-5.10897e-06
0.000189191
0.000143963
-9.99167e-06
0.000223354
0.00021305
-8.14331e-05
0.000157506
0.000157662
0.00011766
7.26989e-05
-0.000267223
0.000575217
-8.46931e-05
-1.01699e-05
0.000468968
-0.000429224
0.000388678
-0.000144071
-0.000284257
1.24703e-05
-2.24721e-06
0.000186818
5.62574e-05
-5.83393e-06
0.000220599
0.000180597
-5.93498e-05
0.000218978
0.000233773
-0.00018044
9.43418e-05
-0.000154373
-0.000228989
-0.000127341
-0.000154394
8.68431e-05
0.000233841
3.76672e-05
0.00010749
8.6832e-05
0.000107633
3.77141e-05
-8.29793e-05
0.000152832
0.000258334
-0.000342374
-0.00011574
-8.98788e-05
-8.20885e-05
-8.51964e-05
0.00027467
0.000128506
0.000217688
2.10645e-06
1.79012e-06
0.000175896
2.08559e-05
1.5407e-06
0.00020232
5.94545e-05
-2.07014e-05
0.000212726
8.15994e-05
-5.62141e-05
0.000219094
-0.000143938
0.000157549
0.000157776
0.000213007
7.26671e-05
0.000117651
-5.53681e-06
3.27673e-06
0.000166054
-1.53784e-06
5.54282e-06
0.000188416
6.00076e-06
-2.09901e-06
0.00020234
1.01852e-05
-1.24912e-05
0.000220691
-4.52548e-05
0.000223502
-3.26941e-06
0.000150628
-1.77197e-06
0.000166053
2.32857e-06
0.000175891
5.18731e-06
0.000186854
0.000189313
-2.82168e-05
-1.16643e-06
0.000210406
-8.24112e-05
4.6537e-06
0.000272808
-3.21087e-05
4.46539e-05
0.000381035
-1.98989e-05
-0.000186138
-0.000112596
0.000117951
-5.4776e-05
6.3807e-06
-0.000101723
0.0011973
0.000105825
-5.48212e-05
4.92544e-05
-0.000364078
-0.000277408
-0.000247798
-0.000408364
-1.05325e-05
-5.3021e-06
0.000194009
-3.99378e-05
4.61435e-06
0.000250044
-0.000121466
2.94959e-05
0.000315664
-3.1216e-05
0.000121561
9.94068e-05
-1.355e-05
-3.12766e-05
-5.15064e-05
-0.000175962
-1.34562e-05
-0.000175926
-5.14544e-05
0.000111589
8.47812e-05
9.9885e-05
0.000255274
-6.08872e-05
-2.22582e-05
3.42485e-05
-0.000237593
2.54432e-06
-8.23805e-06
0.000178011
-4.871e-06
-2.285e-06
0.000216634
-2.93869e-05
4.89959e-06
0.000261838
-4.46414e-05
3.99523e-05
0.000315957
8.24091e-05
0.000381184
-1.99559e-05
-3.20871e-05
-0.00011276
-0.000186142
4.05501e-06
-7.74784e-06
0.000162798
2.37393e-06
-3.9908e-06
0.000191803
-4.4875e-06
-2.54681e-06
0.000216647
-4.4595e-06
1.04773e-05
0.000250138
2.82111e-05
0.000273045
7.78016e-06
0.000145883
8.30931e-06
0.000162814
5.33606e-06
0.00017803
1.13454e-06
0.000194054
0.000210482
2.63567e-06
-3.72476e-06
0.000234553
-4.84087e-05
-5.77261e-06
0.000329535