/*--------------------------------*- C++ -*----------------------------------*\
| =========                 |                                                 |
| \\      /  F ield         | OpenFOAM: The Open Source CFD Toolbox           |
|  \\    /   O peration     | Version:  5.x                                   |
|   \\  /    A nd           | Web:      www.OpenFOAM.org                      |
|    \\/     M anipulation  |                                                 |
\*---------------------------------------------------------------------------*/
FoamFile
{
    version     2.0;
    format      ascii;
    class       volScalarField;
    location    "0.012";
    object      phiIB;
}
// * * * * * * * * * * * * * * * * * * * * * * * * * * * * * * * * * * * * * //

dimensions      [0 2 -1 0 0 0 0];

internalField   nonuniform List<scalar> 
1553
(
-5.429e-06
-5.42882e-06
-5.42971e-06
-5.42923e-06
-5.43107e-06
-5.427e-06
-5.42681e-06
-5.42772e-06
-5.42725e-06
-5.42912e-06
-5.42753e-06
-5.42732e-06
-5.42822e-06
-5.42774e-06
-5.42962e-06
-5.42658e-06
-5.42635e-06
-5.42724e-06
-5.42675e-06
-5.42866e-06
-5.42682e-06
-5.42659e-06
-5.42748e-06
-5.42698e-06
-5.42889e-06
-1.5058e-05
-1.50579e-05
-1.50586e-05
-1.50586e-05
-1.50601e-05
-1.50563e-05
-1.50563e-05
-1.5057e-05
-1.5057e-05
-1.50586e-05
-1.50562e-05
-1.50562e-05
-1.50569e-05
-1.50569e-05
-1.50585e-05
-1.50554e-05
-1.50554e-05
-1.50561e-05
-1.50561e-05
-1.50577e-05
-1.50554e-05
-1.50553e-05
-1.5056e-05
-1.5056e-05
-1.50576e-05
-2.55423e-05
-2.55422e-05
-2.55437e-05
-2.55438e-05
-2.55467e-05
-2.55391e-05
-2.55391e-05
-2.55406e-05
-2.55407e-05
-2.55436e-05
-2.5539e-05
-2.55389e-05
-2.55404e-05
-2.55405e-05
-2.55435e-05
-2.55373e-05
-2.55372e-05
-2.55387e-05
-2.55388e-05
-2.55418e-05
-2.55373e-05
-2.55372e-05
-2.55387e-05
-2.55387e-05
-2.55417e-05
-3.72149e-05
-3.72148e-05
-3.72168e-05
-3.72172e-05
-3.72211e-05
-3.72106e-05
-3.72106e-05
-3.72127e-05
-3.7213e-05
-3.7217e-05
-3.72102e-05
-3.72102e-05
-3.72122e-05
-3.72125e-05
-3.72166e-05
-3.7208e-05
-3.72079e-05
-3.72099e-05
-3.72103e-05
-3.72143e-05
-3.72079e-05
-3.72078e-05
-3.72098e-05
-3.72101e-05
-3.72141e-05
-4.69485e-05
-4.69486e-05
-4.69518e-05
-4.69525e-05
-4.69583e-05
-4.69424e-05
-4.69424e-05
-4.69457e-05
-4.69464e-05
-4.69523e-05
-4.69416e-05
-4.69417e-05
-4.6945e-05
-4.69456e-05
-4.69516e-05
-4.69381e-05
-4.69382e-05
-4.69415e-05
-4.69421e-05
-4.69481e-05
-4.69378e-05
-4.69379e-05
-4.69412e-05
-4.69418e-05
-4.69479e-05
-5.89912e-05
-5.89915e-05
-5.89964e-05
-5.89977e-05
-5.90065e-05
-5.8982e-05
-5.89823e-05
-5.89873e-05
-5.89887e-05
-5.89976e-05
-5.89807e-05
-5.89809e-05
-5.89859e-05
-5.89872e-05
-5.89961e-05
-5.89757e-05
-5.89759e-05
-5.89807e-05
-5.89819e-05
-5.8991e-05
-5.89752e-05
-5.89754e-05
-5.89802e-05
-5.89814e-05
-5.89904e-05
-6.8644e-05
-6.86448e-05
-6.86526e-05
-6.86551e-05
-6.8668e-05
-6.86304e-05
-6.86312e-05
-6.86392e-05
-6.86417e-05
-6.8655e-05
-6.86274e-05
-6.86284e-05
-6.86365e-05
-6.86391e-05
-6.86524e-05
-6.86187e-05
-6.86198e-05
-6.86282e-05
-6.86309e-05
-6.86444e-05
-6.86172e-05
-6.86185e-05
-6.8627e-05
-6.86298e-05
-6.86434e-05
-8.0525e-05
-8.05265e-05
-8.05386e-05
-8.05426e-05
-8.05616e-05
-8.0504e-05
-8.05059e-05
-8.05184e-05
-8.05228e-05
-8.05425e-05
-8.0498e-05
-8.05003e-05
-8.05135e-05
-8.05182e-05
-8.05383e-05
-8.0483e-05
-8.04858e-05
-8.05001e-05
-8.05055e-05
-8.05261e-05
-8.04795e-05
-8.04827e-05
-8.04976e-05
-8.05034e-05
-8.05242e-05
-9.0403e-05
-9.04059e-05
-9.04241e-05
-9.04302e-05
-9.0458e-05
-9.03722e-05
-9.03758e-05
-9.03951e-05
-9.04017e-05
-9.04301e-05
-9.03606e-05
-9.03656e-05
-9.03872e-05
-9.03949e-05
-9.04238e-05
-9.03337e-05
-9.03408e-05
-9.03654e-05
-9.03754e-05
-9.04054e-05
-9.03245e-05
-9.03334e-05
-9.03602e-05
-9.03716e-05
-9.04023e-05
-0.000101924
-0.000101928
-0.000101952
-0.000101959
-0.000101998
-0.00010188
-0.000101884
-0.000101911
-0.000101919
-0.000101959
-0.000101861
-0.000101869
-0.0001019
-0.000101911
-0.000101952
-0.000101815
-0.000101829
-0.000101869
-0.000101884
-0.000101927
-0.000101796
-0.000101814
-0.000101861
-0.000101879
-0.000101923
-0.000112043
-0.000112046
-0.000112078
-0.000112081
-0.000112131
-0.000111979
-0.000111986
-0.000112023
-0.000112028
-0.000112081
-0.000111955
-0.000111966
-0.000112012
-0.000112022
-0.000112078
-0.00011189
-0.000111908
-0.000111966
-0.000111985
-0.000112046
-0.000111868
-0.000111889
-0.000111954
-0.000111978
-0.000112041
-0.000123148
-0.000123146
-0.000123179
-0.000123165
-0.000123227
-0.000123061
-0.000123065
-0.000123109
-0.000123099
-0.000123165
-0.000123054
-0.00012306
-0.000123112
-0.000123108
-0.000123178
-0.000123011
-0.000123008
-0.000123059
-0.000123064
-0.000123145
-0.000123023
-0.00012301
-0.000123053
-0.000123059
-0.000123146
-0.000133323
-0.000133298
-0.000133311
-0.000133268
-0.000133351
-0.000133223
-0.0001332
-0.000133225
-0.000133184
-0.000133268
-0.000133309
-0.000133267
-0.000133273
-0.000133225
-0.000133309
-0.000133404
-0.00013332
-0.000133266
-0.000133198
-0.000133296
-0.000133513
-0.000133403
-0.000133307
-0.00013322
-0.00013332
-0.000143886
-0.000143817
-0.000143788
-0.000143707
-0.000143815
-0.000143808
-0.000143719
-0.000143675
-0.000143588
-0.000143706
-0.000144022
-0.0001439
-0.000143797
-0.000143674
-0.000143786
-0.000144239
-0.000144079
-0.000143898
-0.000143716
-0.000143813
-0.00014441
-0.000144237
-0.000144018
-0.000143803
-0.00014388
-0.000153628
-0.000153521
-0.000153466
-0.000153383
-0.000153571
-0.000153579
-0.000153426
-0.000153294
-0.000153176
-0.000153382
-0.00015378
-0.000153633
-0.000153471
-0.000153292
-0.000153463
-0.000153758
-0.000153686
-0.00015363
-0.000153421
-0.000153515
-0.000153781
-0.000153754
-0.000153773
-0.00015357
-0.000153619
-0.000163032
-0.000162965
-0.000162983
-0.000162966
-0.000163322
-0.000162796
-0.000162737
-0.00016273
-0.000162643
-0.000162965
-0.000162721
-0.00016273
-0.00016283
-0.000162727
-0.000162979
-0.000162354
-0.000162448
-0.000162725
-0.000162729
-0.000162957
-0.00016221
-0.000162348
-0.00016271
-0.000162782
-0.000163017
-0.000171411
-0.000171426
-0.000171685
-0.000171838
-0.000172418
-0.000170684
-0.00017082
-0.000171223
-0.000171338
-0.000171836
-0.000170207
-0.000170425
-0.000170983
-0.000171219
-0.000171679
-0.000169508
-0.000169767
-0.000170419
-0.000170809
-0.000171414
-0.000169224
-0.0001695
-0.000170193
-0.000170665
-0.000171391
-0.000179355
-0.00017945
-0.000179988
-0.000180435
-0.000181285
-0.00017806
-0.000178321
-0.000179095
-0.000179595
-0.000180433
-0.000177255
-0.000177594
-0.000178483
-0.000179089
-0.000179981
-0.000176322
-0.00017667
-0.000177586
-0.000178307
-0.000179435
-0.000175968
-0.000176312
-0.000177237
-0.000178036
-0.00017933
-0.000186341
-0.000186625
-0.000187493
-0.00018822
-0.000189444
-0.000184456
-0.000184832
-0.000185942
-0.000186828
-0.000188217
-0.000183353
-0.000183775
-0.000184963
-0.000185935
-0.000187484
-0.000182158
-0.000182583
-0.000183766
-0.000184815
-0.000186606
-0.00018172
-0.000182145
-0.00018333
-0.000184426
-0.000186309
-0.000193252
-0.000193676
-0.00019489
-0.00019576
-0.000197429
-0.000190898
-0.000191355
-0.000192717
-0.000193804
-0.000195758
-0.00018959
-0.000190067
-0.000191497
-0.000192708
-0.000194879
-0.000188049
-0.000188559
-0.000190057
-0.000191336
-0.000193654
-0.000187515
-0.000188033
-0.000189563
-0.000190862
-0.000193211
-0.000199051
-0.00019963
-0.000201216
-0.000202293
-0.000204593
-0.000195764
-0.000196384
-0.000198164
-0.000199561
-0.000202288
-0.000193933
-0.000194628
-0.000196537
-0.000198153
-0.0002012
-0.00019173
-0.000192519
-0.000194614
-0.00019636
-0.000199601
-0.000190846
-0.00019171
-0.000193899
-0.000195718
-0.000199
-0.00020583
-0.00020633
-0.000208066
-0.000209323
-0.000212405
-0.000201315
-0.000202048
-0.000204236
-0.000205883
-0.000209319
-0.00019893
-0.000199794
-0.000202285
-0.000204223
-0.000208048
-0.000195914
-0.000196973
-0.000199779
-0.00020202
-0.000206299
-0.000194779
-0.000195888
-0.000198888
-0.000201261
-0.000205772
-0.000210042
-0.000210788
-0.000212856
-0.000214628
-0.000218913
-0.000203146
-0.000204355
-0.000207444
-0.000209875
-0.000214619
-0.000199052
-0.000200719
-0.000204394
-0.000207426
-0.00021283
-0.00019445
-0.000196466
-0.000200699
-0.000204319
-0.000210747
-0.000191988
-0.000194415
-0.000198998
-0.000203076
-0.000209968
-0.000216683
-0.000217182
-0.000219892
-0.000222094
-0.000227569
-0.000207042
-0.000208569
-0.000212487
-0.000215412
-0.000222086
-0.000201697
-0.000203674
-0.000208633
-0.000212465
-0.000219859
-0.000194943
-0.000197779
-0.000203652
-0.000208525
-0.00021713
-0.000192039
-0.0001949
-0.000201631
-0.000206955
-0.00021659
-0.000217455
-0.000218421
-0.000221982
-0.0002254
-0.000232893
-0.000202795
-0.000205682
-0.000211434
-0.000215866
-0.000225384
-0.000192419
-0.000197161
-0.000204557
-0.000211403
-0.000221934
-0.000182135
-0.00018816
-0.000197134
-0.000205623
-0.000218347
-0.000173467
-0.000182075
-0.000192333
-0.000202681
-0.000217332
-0.000223365
-0.000224353
-0.000229302
-0.000233274
-0.000242115
-0.00020298
-0.000207091
-0.000214374
-0.000220212
-0.000233256
-0.000190694
-0.000195725
-0.00020612
-0.000214335
-0.000229239
-0.000173462
-0.000182794
-0.000195691
-0.00020702
-0.000224257
-0.000165319
-0.000173396
-0.000190587
-0.000202835
-0.00022319
-0.000217424
-0.000220724
-0.000226357
-0.000232518
-0.000244139
-0.000188461
-0.000195758
-0.000204708
-0.000214784
-0.000232489
-0.000161457
-0.000176108
-0.000190461
-0.000204654
-0.000226272
-0.000136967
-0.000156556
-0.000176073
-0.000195668
-0.000220596
-9.96528e-05
-0.000136859
-0.000161321
-0.00018827
-0.000217192
-0.000228082
-0.000229426
-0.000235419
-0.000239815
-0.00025217
-0.000181532
-0.000191943
-0.000204721
-0.000219285
-0.00023978
-0.000153026
-0.000166509
-0.000188523
-0.000204653
-0.000235314
-9.95409e-05
-0.000138653
-0.000166452
-0.000191826
-0.000229267
-7.21261e-05
-9.94589e-05
-0.00015286
-0.000181306
-0.000227781
-0.000211985
-0.000218616
-0.0002248
-0.000232723
-0.000246666
-0.00015341
-0.000169023
-0.000189165
-0.000206789
-0.000232671
-8.86789e-05
-0.000131805
-0.000157344
-0.000189082
-0.000224671
-2.18229e-05
-8.60876e-05
-0.00013176
-0.00016888
-0.000218432
0.000158209
-2.16193e-05
-8.84545e-05
-0.000153116
-0.00021164
-0.000226773
-0.000227298
-0.00023341
-0.0002363
-0.000248976
-0.000141716
-0.000176243
-0.000193751
-0.000211777
-0.000236239
-7.46668e-05
-0.000118529
-0.000167212
-0.00019367
-0.000233256
0.000131128
-6.69333e-05
-0.000118419
-0.000176095
-0.000227101
0.000235288
0.000131232
-7.44025e-05
-0.000141393
-0.000226404
-0.000201393
-0.000208402
-0.000213004
-0.000219281
-0.000230583
-0.000118291
-0.000142694
-0.000172623
-0.000190622
-0.000219194
-1.68029e-05
-8.84578e-05
-0.00013868
-0.000172526
-0.000212824
0.000123502
3.8883e-05
-8.83687e-05
-0.000142535
-0.000208197
0.000760068
0.000297909
-1.63755e-05
-0.000117943
-0.000200993
-0.000221692
-0.000218747
-0.000218056
-0.000217753
-0.000222307
-0.000178024
-0.000183207
-0.000196193
-0.000201371
-0.00021765
-0.000195955
-0.000185466
-0.000194202
-0.000196071
-0.000217822
-0.000135179
-0.000139492
-0.000185321
-0.000183051
-0.000218522
0.00145177
3.55764e-05
-0.000195654
-0.000177696
-0.000221349
-0.000194751
-0.000190154
-0.000190516
-0.000191628
-0.000193917
-0.000178667
-0.000182212
-0.000182362
-0.000186004
-0.000191522
-0.00022346
-0.000187458
-0.000186616
-0.00018218
-0.000190233
-0.000313858
-0.000223794
-0.000187062
-0.000181979
-0.000189916
-0.00159112
-0.000552261
-0.000223015
-0.000178397
-0.000194427
-0.000190346
-0.000190039
-0.000186173
-0.000184954
-0.000180625
-0.000180164
-0.000178522
-0.000184102
-0.000184278
-0.000184867
-0.000121277
-0.000158658
-0.000173993
-0.000183991
-0.000185942
-9.00158e-05
-7.29121e-05
-0.000157605
-0.000178126
-0.000189697
0.00054106
-1.86567e-05
-0.000120487
-0.000179978
-0.000189922
-0.000157583
-0.000155183
-0.00015107
-0.000153069
-0.000147767
-0.00018582
-0.000170152
-0.000161263
-0.000162234
-0.000152976
-0.000134835
-0.000133467
-0.000146679
-0.000161379
-0.000150909
2.77404e-05
-7.82189e-05
-0.000129756
-0.000170101
-0.000154773
0.00101973
0.000224773
-0.000132394
-0.000185543
-0.000157004
-0.000219428
-0.000202624
-0.000179437
-0.000163913
-0.000146917
-0.000261694
-0.000235822
-0.000210662
-0.000183683
-0.000163774
-0.000413833
-0.000317657
-0.000248804
-0.000211067
-0.000179304
-0.000476685
-0.00044129
-0.000316147
-0.000235558
-0.000201984
-0.00221845
-0.000746638
-0.00041129
-0.000261045
-0.000218904
-0.000144191
-0.000133065
-0.000122978
-0.000117105
-0.000106925
-0.000200094
-0.000152947
-0.000146952
-0.000131218
-0.000117019
-0.000287619
-0.000222749
-0.000179397
-0.000147087
-0.000122881
-0.000477618
-0.000187322
-0.000222433
-0.000152888
-0.000132789
-0.00111466
-0.000475013
-0.000286471
-0.000199759
-0.000143816
-0.000177297
-0.000163113
-0.000144944
-0.000130122
-0.000108814
-0.000226275
-0.000200632
-0.000179396
-0.000157496
-0.000130018
-0.000289181
-0.000246509
-0.000212339
-0.00017944
-0.000144767
-0.000386667
-0.000300917
-0.000246152
-0.000200462
-0.000162745
-0.000535404
-0.00038639
-0.000289047
-0.000226228
-0.00017696
-8.91342e-05
-8.25967e-05
-7.57005e-05
-6.89308e-05
-5.93565e-05
-0.000108843
-9.85337e-05
-9.33407e-05
-8.20536e-05
-6.88834e-05
-0.00012566
-0.000109816
-0.00010273
-9.33159e-05
-7.55916e-05
-0.000153276
-0.000108512
-0.000109704
-9.84426e-05
-8.24072e-05
-0.000194412
-0.000153253
-0.000125579
-0.000108834
-8.89225e-05
-4.3824e-05
-4.45597e-05
-4.0916e-05
-4.48379e-05
-3.19878e-05
-7.29723e-05
-6.71091e-05
-5.97468e-05
-6.1097e-05
-4.47911e-05
-9.74695e-05
-7.94801e-05
-6.42376e-05
-5.97521e-05
-4.08493e-05
-0.000131008
-9.98606e-05
-7.93721e-05
-6.70586e-05
-4.44577e-05
-0.000172884
-0.000131078
-9.74283e-05
-7.29375e-05
-4.37223e-05
3.37458e-05
0.00047461
0.000297759
0.000209386
7.39566e-05
0.000649229
0.000328301
0.000577156
0.00161699
0.000760461
0.0013588
0.00035756
0.00297468
0.00135958
3.39925e-05
0.000475028
0.000123861
0.000328422
7.41969e-05
0.000649905
0.000209748
-0.000127447
5.65737e-05
3.53951e-05
-0.000254525
-0.000247091
-0.000857467
-0.000515579
-0.00014273
-0.000114233
-0.000139313
-0.000197237
-0.00017088
-0.000340372
-0.000197128
0.000184408
0.00133729
0.00145217
-0.00190904
-0.00067689
-0.00304824
-0.00190876
-0.000127199
5.68566e-05
-0.000134638
-0.000515378
-0.000246899
-0.000856983
-0.000253864
-0.000264351
-0.000750224
-0.000553111
-0.000193756
-0.000174023
-0.00021227
-0.00021732
-0.000669254
-0.00505392
-0.00159085
-0.00037439
-0.000301955
-0.00130524
-0.000376327
-0.000263928
-0.000749367
-0.000313458
-0.000216777
-0.000173607
-0.000212196
-0.000193083
-0.000112605
3.87611e-06
-1.94891e-05
1.73085e-05
-3.73521e-05
0.000473275
0.000256348
0.000231587
0.00104832
0.00054045
0.00114274
0.000407891
0.00310149
0.00114391
-0.00011243
5.08543e-06
-8.94488e-05
0.000256279
-3.7537e-05
0.000474189
1.80786e-05
-6.51604e-05
0.000649972
0.000222187
-0.000245712
-0.00019331
-0.000397253
-0.000303357
-0.000160301
2.35187e-05
-7.57971e-05
-0.000150753
-0.000205931
-6.39058e-05
-0.000143892
0.000379553
0.00466302
0.00102168
-0.000993484
-0.000410837
-0.000549596
-0.000989227
-6.42915e-05
0.000652381
3.02293e-05
-0.000307095
-0.000200176
-0.000392415
-0.000241499
-0.000376282
-0.000770308
-0.000749594
-0.000540247
-0.000416781
-0.000925644
-0.000824851
-0.000742264
-0.00180074
-0.00221395
-0.00124291
-0.000737129
-0.00234213
-0.00124172
-0.000371809
-0.000763891
-0.000468179
-0.000810442
-0.000402322
-0.000920395
-0.000534432
-0.000884911
-0.00143745
-0.001114
-0.000696553
-0.000560808
-0.00086526
-0.000697436
-0.000376521
0.000827564
0.00102015
-0.000181803
0.000866314
-0.000232827
-0.000236455
-0.000174376
-1.53641e-05
0.00012963
-0.000200304
2.82935e-05
-0.000151168
-0.000203093
-0.00180545
-0.00126688
-0.00296144
-0.00106842
-0.00249028
-0.000834572
-0.00230882
0.00159303
0.000784057
0.00236207
0.00145452
0.00198412
0.000828158
0.00154234
-0.00241044
-0.00160402
-0.00178403
-0.00180997
-0.00175258
-0.00142165
-0.00267847
0.00183464
0.00117216
0.000826165
0.00228567
0.000936963
0.00183499
0.00203382
0.0012848
0.000421737
0.000656367
0.000656788
0.000782348
0.000782328
0.00128874
0.00213073
0.00412737
0.00290162
0.00290175
0.00250149
0.00274562
0.002746
0.00183508
0.00117237
0.000825358
0.00228646
0.000938154
0.00183354
0.00203334
-0.000166204
0.000214869
0.00012071
-0.000236582
0.000104293
-0.000252767
-0.000149583
-0.00017468
-1.54736e-05
0.000129503
-0.000200392
2.8095e-05
-0.000151428
-0.000203357
-0.000490453
-0.00058597
-0.0006103
-0.000818993
-0.000574566
-0.000519176
-0.000550267
-0.000392131
-0.000402571
-0.000358935
-0.00071878
-0.000325769
-0.000532659
-0.000465405
-0.000306565
0.000221353
0.000221373
-0.00017205
0.00107648
-0.000343732
-0.000343518
-0.000231718
0.00124851
0.00124872
-0.000122763
0.00110411
-0.000157171
-0.0001569
-0.000376322
0.000828431
0.00102048
-0.000181042
0.000866625
-0.000232433
-0.000235927
-0.00131303
-0.00194858
-0.00140192
-0.0023565
-0.00150917
-0.00230822
-0.00132851
-0.00148644
-0.000630564
-0.00101279
-0.00101284
-0.000774376
-0.000774281
-0.00203699
-0.00140832
-0.00151429
-0.00280433
-0.00280386
-0.00261916
-0.00144328
-0.00144296
-0.00131276
-0.00194797
-0.0014015
-0.00235577
-0.00150866
-0.00230786
-0.00132796
-0.000165713
0.000121343
0.000215412
-0.000235854
0.00010475
-0.000252497
-0.000148922
-0.00039182
-0.000402396
-0.000358531
-0.000718466
-0.000325565
-0.000532366
-0.000465123
-0.000489956
-0.000585152
-0.00081864
-0.000609596
-0.000574054
-0.0005189
-0.000549347
-0.00141317
-0.00109338
-0.00109351
-0.000449623
-0.0018765
-0.000826969
-0.000827396
-0.00243855
-0.00439103
-0.00439047
-0.00400395
-0.00331782
-0.00307303
-0.00307047
-0.00180537
-0.00126676
-0.00296043
-0.00106881
-0.00248986
-0.00083481
-0.0023082
0.00122473
0.000742989
0.000942736
0.00227487
0.000605205
0.0017821
0.00145558
0.00146931
0.00238339
0.00274389
0.0027445
0.00250041
0.0018972
0.00189773
0.00122482
0.000744243
0.0009427
0.00227584
0.000604881
0.00178304
0.00145669
0.00016906
0.000285552
0.000592474
0.000394934
0.000200215
0.000430209
0.000287203
1.43759e-05
-0.000118843
-0.000368005
-0.000382695
-0.000102862
-0.000354157
0.000103608
-8.12836e-05
-0.000113989
-0.000309911
-0.000244019
-6.91599e-05
-5.14685e-05
-0.000275913
0.00131864
0.000679412
0.000679582
0.000248695
0.00147642
0.000428053
0.000428283
0.00201384
0.00363761
0.0036388
0.0024443
0.00247614
0.00212646
0.00212768
0.001594
0.000785059
0.00236401
0.00145706
0.00198496
0.000828987
0.00154444
0.000248524
0.00107677
-0.000725091
-0.000685813
0.000621114
-0.000630664
0.000404138
0.000424256
6.54991e-05
-0.000500883
-0.000500728
-3.68237e-05
-3.62583e-05
-0.000913433
0.000543435
0.000801155
-0.000598986
-0.000597813
-0.000615514
0.000654988
0.000656171
0.000248947
0.00107957
-0.000722846
-0.000683384
0.00062206
-0.000630281
0.000406318
0.000170168
0.000593523
0.00028825
0.000397814
0.000201348
0.000431315
0.000290987
-8.63595e-05
-0.000114289
-0.000338304
-0.000257007
-7.47015e-05
-5.12966e-05
-0.000302603
1.43142e-05
-0.000116335
-0.000379873
-0.00036058
-0.000102264
-0.000349941
0.000107027
-0.000701953
-0.000759799
-0.000798711
-0.00116005
-0.000658511
-0.00116844
-0.000777665
-0.0019648
-0.000918254
-0.00091656
-0.000804615
-0.00189843
-0.00119649
-0.00119459
-0.00274652
-0.00179545
-0.00179434
-0.00306076
-0.00176835
-0.00297106
-0.00297005
-0.00240854
-0.00160099
-0.00178189
-0.00180778
-0.00175209
-0.00142232
-0.00267692
-0.00208989
-0.00165639
-0.00108169
-0.00165741
-0.00141792
-0.00153179
-0.00229097
-0.00161323
-0.000907342
-0.0010247
-0.00102225
-0.00119929
-0.00119732
-0.00133328
-0.00244488
-0.00401552
-0.00211577
-0.0021156
-0.00185843
-0.00292289
-0.00292268
-0.00208937
-0.00165464
-0.00107955
-0.00165668
-0.00141673
-0.00153139
-0.00228978
-0.000685807
-0.000788447
-0.000750078
-0.00115798
-0.000639577
-0.00117142
-0.000769027
0.000104769
0.00036775
0.000235201
0.000595363
0.000414726
0.000922833
0.000595485
0.00200464
0.00132637
0.00132722
0.00263258
0.00114256
0.00236881
0.00236861
0.0014056
0.00065158
0.00104241
0.00103199
0.000932209
0.000857619
0.00151129
0.000289422
0.000718259
0.000377518
0.000582438
0.000686461
0.000247343
0.000387167
0.00140574
0.000653198
0.0010425
0.00103246
0.000931601
0.000856866
0.00151187
0.000290139
0.000718335
0.000582351
0.000378147
0.000687019
0.000247718
0.000387501
0.000937306
0.000350197
0.000697188
0.000696665
0.000526227
0.000526737
0.0013157
)
;

boundaryField
{
    inlet
    {
        type            fixedValue;
        value           uniform 0;
    }
    wall
    {
        type            zeroGradient;
    }
    outlet
    {
        type            fixedValue;
        value           uniform 0;
    }
    procBoundary1to0
    {
        type            processor;
        value           nonuniform List<scalar> 
320
(
-5.42894e-06
-5.42696e-06
-5.42754e-06
-5.42656e-06
-5.42681e-06
-1.50582e-05
-1.50565e-05
-1.50564e-05
-1.50555e-05
-1.50554e-05
-2.55424e-05
-2.55393e-05
-2.55391e-05
-2.55374e-05
-2.55374e-05
-3.72151e-05
-3.72108e-05
-3.72104e-05
-3.72081e-05
-3.7208e-05
-4.69487e-05
-4.69425e-05
-4.69417e-05
-4.69382e-05
-4.69379e-05
-5.89914e-05
-5.89822e-05
-5.89809e-05
-5.89758e-05
-5.89753e-05
-6.86442e-05
-6.86305e-05
-6.86276e-05
-6.86189e-05
-6.86174e-05
-8.05252e-05
-8.05043e-05
-8.04983e-05
-8.04832e-05
-8.04798e-05
-9.04032e-05
-9.03725e-05
-9.03609e-05
-9.03339e-05
-9.03249e-05
-0.000101924
-0.00010188
-0.000101862
-0.000101815
-0.000101796
-0.000112043
-0.00011198
-0.000111955
-0.00011189
-0.000111868
-0.000123148
-0.000123061
-0.000123054
-0.000123012
-0.000123024
-0.000133323
-0.000133223
-0.00013331
-0.000133405
-0.000133514
-0.000143886
-0.000143809
-0.000144023
-0.00014424
-0.000144412
-0.000153629
-0.00015358
-0.000153781
-0.00015376
-0.000153783
-0.000163033
-0.000162797
-0.000162722
-0.000162356
-0.000162212
-0.000171413
-0.000170686
-0.000170209
-0.000169511
-0.000169227
-0.000179358
-0.000178063
-0.000177258
-0.000176326
-0.000175972
-0.000186345
-0.000184459
-0.000183357
-0.000182163
-0.000181725
-0.000193256
-0.000190903
-0.000189595
-0.000188055
-0.000187522
-0.000199057
-0.00019577
-0.000193939
-0.000191738
-0.000190855
-0.000205837
-0.000201323
-0.000198937
-0.000195923
-0.000194791
-0.00021005
-0.000203156
-0.000199062
-0.000194463
-0.000192004
-0.000216694
-0.000207053
-0.00020171
-0.000194959
-0.000192063
-0.000217466
-0.00020281
-0.000192433
-0.000182159
-0.000173494
-0.000223382
-0.000202998
-0.000190717
-0.000173492
-0.000165368
-0.000217435
-0.000188482
-0.000161475
-0.000137013
-9.9678e-05
-0.000228098
-0.000181552
-0.000153069
-9.95822e-05
-7.22459e-05
-0.000211978
-0.000153444
-8.86875e-05
-2.19079e-05
0.000158269
-0.000226759
-0.000141723
-7.47557e-05
0.000131117
0.000235093
-0.000201324
-0.000118304
-1.69175e-05
0.000123416
0.000759617
-0.000221608
-0.000177858
-0.000196082
-0.000134967
0.00145177
-0.000194576
-0.000178329
-0.000223895
-0.00031117
-0.00159052
-0.000190055
-0.000179581
-0.000120926
-8.95412e-05
0.000541289
-0.000157169
-0.00018472
-0.000134617
2.76399e-05
0.00101884
-0.0002189
-0.000260141
-0.000414779
-0.0004763
-0.00222222
-0.000143641
-0.000199356
-0.000287041
-0.000474565
-0.00111608
-0.000176964
-0.000226027
-0.000289202
-0.000386608
-0.00053542
-8.89692e-05
-0.000108745
-0.000125551
-0.000153042
-0.000194338
-4.38171e-05
-7.30148e-05
-9.74783e-05
-0.000131051
-0.000172881
0.000474368
0.000649156
0.000209339
0.00161703
0.0029746
0.00135878
5.65122e-05
-0.000857377
-0.000254548
0.00133717
-0.00304823
-0.00190814
-0.000755842
-0.000211254
-0.000193232
-0.00505349
-0.00130465
-0.000374589
2.28716e-06
0.000472972
1.7677e-05
0.00104468
0.00310067
0.00114282
0.00064963
-0.000398097
-0.000246481
0.00466183
-0.00055118
-0.000996013
-0.000770002
-0.000924157
-0.000537984
-0.00180272
-0.0023437
-0.00124381
-0.00143839
-0.000864878
-0.000697033
0.00101998
-0.000236649
-0.000181746
-0.00296295
-0.00230889
-0.00106499
0.00236043
0.00154004
0.00145319
-0.00179168
-0.00268908
-0.00181665
0.00290152
0.00274597
0.00412719
0.001172
0.00203254
0.00228598
-0.000236516
-0.000149771
0.000214837
-0.000610658
-0.000551174
-0.000586466
-0.000122898
-0.000157317
0.00124836
-0.00280402
-0.00144333
-0.00151439
-0.00194821
-0.00132872
-0.00235646
-0.00400327
-0.00307246
-0.0043895
0.00274316
0.00189662
0.00238271
0.000743089
0.00145519
0.00227428
0.000394374
0.000287569
0.000285661
-0.00036523
0.000104519
-0.000119899
0.00244321
0.00212469
0.00363612
-0.000602529
0.000652515
0.000799894
0.00107473
0.000400784
-0.000690798
-0.00116281
-0.000773177
-0.000754006
-0.00306305
-0.00297702
-0.0018003
-0.00211806
-0.0029273
-0.00401746
-0.00166047
-0.00229704
-0.0016597
0.000367592
0.000922869
0.000595354
0.00263278
0.00236873
0.00132652
0.0010421
0.00151176
0.00103221
0.000377299
0.000387113
0.000718102
)
;
    }
    procBoundary1to3
    {
        type            processor;
        value           nonuniform List<scalar> 
320
(
-5.42672e-06
-5.4265e-06
-5.42745e-06
-5.42694e-06
-5.42887e-06
-1.50553e-05
-1.50552e-05
-1.5056e-05
-1.5056e-05
-1.50576e-05
-2.55372e-05
-2.55371e-05
-2.55386e-05
-2.55386e-05
-2.55416e-05
-3.72077e-05
-3.72076e-05
-3.72097e-05
-3.721e-05
-3.7214e-05
-4.69377e-05
-4.69377e-05
-4.69411e-05
-4.69417e-05
-4.69478e-05
-5.8975e-05
-5.89752e-05
-5.89801e-05
-5.89813e-05
-5.89903e-05
-6.86171e-05
-6.86183e-05
-6.86268e-05
-6.86297e-05
-6.86432e-05
-8.04793e-05
-8.04825e-05
-8.04974e-05
-8.05033e-05
-8.05241e-05
-9.03245e-05
-9.03332e-05
-9.036e-05
-9.03714e-05
-9.04021e-05
-0.000101796
-0.000101814
-0.000101861
-0.000101879
-0.000101923
-0.000111867
-0.000111889
-0.000111954
-0.000111978
-0.000112041
-0.000123023
-0.00012301
-0.000123052
-0.000123058
-0.000123145
-0.000133512
-0.000133402
-0.000133306
-0.000133219
-0.000133319
-0.000144409
-0.000144235
-0.000144016
-0.000143801
-0.000143879
-0.00015378
-0.000153752
-0.000153771
-0.000153568
-0.000153617
-0.000162207
-0.000162345
-0.000162707
-0.000162779
-0.000163014
-0.000169219
-0.000169496
-0.000170188
-0.00017066
-0.000171385
-0.000175962
-0.000176306
-0.00017723
-0.000178029
-0.000179322
-0.000181712
-0.000182137
-0.000183321
-0.000184415
-0.000186298
-0.000187506
-0.000188022
-0.00018955
-0.000190847
-0.000193196
-0.000190833
-0.000191695
-0.000193881
-0.000195699
-0.000198978
-0.000194762
-0.000195867
-0.000198865
-0.000201235
-0.000205745
-0.000191963
-0.000194387
-0.000198965
-0.00020304
-0.00020993
-0.000192006
-0.00019486
-0.000201586
-0.000206907
-0.000216539
-0.00017342
-0.000182021
-0.000192269
-0.000202613
-0.000217258
-0.000165248
-0.000173317
-0.000190502
-0.000202743
-0.000223093
-9.95755e-05
-0.00013677
-0.00016121
-0.000188147
-0.00021705
-7.19815e-05
-9.93014e-05
-0.000152699
-0.00018113
-0.000227595
0.00015828
-2.14923e-05
-8.82856e-05
-0.00015289
-0.000211389
0.000367945
0.000131519
-7.41352e-05
-0.000141065
-0.000226054
0.00161664
0.000475014
-1.61092e-05
-0.000117467
-0.000200528
0.00133741
5.73187e-05
-0.000195132
-0.000176964
-0.000220688
-0.00505321
-0.000752227
-0.000222507
-0.000177312
-0.000193702
0.00105226
5.3564e-06
-0.000119225
-0.000178587
-0.000189232
0.00466379
0.000653005
-0.000132999
-0.000183892
-0.00015655
-0.00180158
-0.000768779
-0.000414954
-0.000259609
-0.000218328
-0.00143838
-0.000478386
-0.000287705
-0.000199512
-0.000143321
-0.000535663
-0.000386604
-0.000289302
-0.000225701
-0.00017639
-0.000194454
-0.000153426
-0.000125617
-0.000108624
-8.86321e-05
-0.000172795
-0.000130946
-9.73343e-05
-7.28418e-05
-4.36237e-05
0.00297477
0.0013594
0.00076033
0.000649729
0.000210063
0.000124128
-0.00304785
-0.00190746
0.00145269
-0.000856591
-0.000253044
-0.000133905
-0.00130515
-0.000375711
-0.00158963
-0.00021086
-0.000191852
-0.000310117
0.00310235
0.00114488
0.000542573
0.000475897
1.99195e-05
-8.77336e-05
-0.000550005
-0.000992138
0.00102226
-0.000396257
-0.000245107
3.04545e-05
-0.00234302
-0.00124338
-0.00221875
-0.000925332
-0.00054044
-0.000478625
-0.000864264
-0.000698471
-0.00111695
-0.000122613
-0.000156745
0.00124886
-0.000235833
-0.000149006
0.000215574
-0.004002
-0.00306883
-0.0043889
0.00244468
0.00212748
0.00363929
0.000398185
0.000291042
0.000288928
-0.0030619
-0.00297428
-0.00179804
-0.00115799
-0.00077368
-0.000755924
0.0029019
0.00274618
0.00412724
0.00117279
0.00203343
0.00228662
-0.00280322
-0.0014427
-0.00151407
-0.00194738
-0.00132788
-0.00235551
0.00102074
-0.00023584
-0.000180827
-0.000611552
-0.000549593
-0.000585153
-0.00296105
-0.00230722
-0.00106433
0.00274546
0.00189865
0.00238429
0.000745038
0.00145711
0.00227648
-0.000600217
0.000655032
0.000801174
0.00107882
0.000404353
-0.000687552
0.00236411
0.00154382
0.00145724
-0.000364968
0.000106412
-0.000116765
-0.00211647
-0.00292533
-0.00401711
-0.00165843
-0.00229561
-0.00165945
-0.00178875
-0.00268699
-0.0018131
0.000922739
0.000595675
0.000235351
0.00263289
0.00236884
0.00132695
0.00104213
0.00151204
0.00103231
0.00037815
0.000387832
0.000718863
)
;
    }
}


// ************************************************************************* //
