/*--------------------------------*- C++ -*----------------------------------*\
| =========                 |                                                 |
| \\      /  F ield         | OpenFOAM: The Open Source CFD Toolbox           |
|  \\    /   O peration     | Version:  5.x                                   |
|   \\  /    A nd           | Web:      www.OpenFOAM.org                      |
|    \\/     M anipulation  |                                                 |
\*---------------------------------------------------------------------------*/
FoamFile
{
    version     2.0;
    format      ascii;
    class       volVectorField;
    location    "0.012";
    object      U;
}
// * * * * * * * * * * * * * * * * * * * * * * * * * * * * * * * * * * * * * //

dimensions      [0 1 -1 0 0 0 0];

internalField   nonuniform List<vector> 
1553
(
(8.90302e-09 -2.97775e-07 -6.40798e-05)
(1.78751e-07 -2.97618e-07 -6.40982e-05)
(2.05901e-07 -2.90591e-07 -6.40209e-05)
(3.17091e-07 -2.89117e-07 -6.40689e-05)
(2.55548e-07 -2.82733e-07 -6.38923e-05)
(1.45006e-08 -3.64665e-07 -6.42941e-05)
(1.85792e-07 -3.65025e-07 -6.43079e-05)
(2.14272e-07 -3.57035e-07 -6.42232e-05)
(3.24852e-07 -3.55667e-07 -6.42691e-05)
(2.6193e-07 -3.47812e-07 -6.40869e-05)
(1.31172e-08 -2.5295e-07 -6.42458e-05)
(1.86359e-07 -2.5265e-07 -6.42606e-05)
(2.15244e-07 -2.4607e-07 -6.41745e-05)
(3.26302e-07 -2.45044e-07 -6.42217e-05)
(2.63476e-07 -2.38558e-07 -6.40375e-05)
(1.92974e-08 -2.24268e-07 -6.43503e-05)
(1.92672e-07 -2.23973e-07 -6.43624e-05)
(2.21875e-07 -2.17236e-07 -6.42729e-05)
(3.3236e-07 -2.16154e-07 -6.4319e-05)
(2.68479e-07 -2.09798e-07 -6.41317e-05)
(1.79151e-08 -5.02347e-08 -6.43346e-05)
(1.9339e-07 -5.12566e-08 -6.4348e-05)
(2.23064e-07 -4.66376e-08 -6.42572e-05)
(3.33735e-07 -4.6048e-08 -6.43041e-05)
(2.69896e-07 -4.19598e-08 -6.41153e-05)
(-1.2673e-08 -2.36805e-07 0.000291545)
(1.56327e-07 -2.3142e-07 0.000291564)
(2.1057e-07 -2.26553e-07 0.000291643)
(2.93464e-07 -2.24508e-07 0.000291682)
(2.13465e-07 -2.21633e-07 0.000291795)
(6.35065e-09 -3.33544e-07 0.000291442)
(1.66429e-07 -3.26011e-07 0.000291461)
(2.1739e-07 -3.19332e-07 0.000291539)
(2.98328e-07 -3.16064e-07 0.000291578)
(2.16338e-07 -3.12111e-07 0.000291691)
(1.31091e-08 -2.56589e-07 0.000291403)
(1.70517e-07 -2.50847e-07 0.000291423)
(2.20504e-07 -2.45643e-07 0.000291501)
(3.00675e-07 -2.42885e-07 0.000291539)
(2.17452e-07 -2.39503e-07 0.000291652)
(2.40011e-08 -2.15168e-07 0.000291335)
(1.77377e-07 -2.08905e-07 0.000291354)
(2.2535e-07 -2.03705e-07 0.000291431)
(3.04464e-07 -2.00977e-07 0.000291469)
(2.19751e-07 -1.97784e-07 0.000291582)
(2.88892e-08 -6.28955e-08 0.000291315)
(1.81979e-07 -5.98126e-08 0.000291335)
(2.28434e-07 -5.64929e-08 0.000291411)
(3.06592e-07 -5.45786e-08 0.00029145)
(2.20675e-07 -5.29721e-08 0.000291563)
(3.71432e-08 -4.03519e-07 -7.29915e-05)
(2.78055e-07 -4.0323e-07 -7.29582e-05)
(3.25123e-07 -3.97522e-07 -7.27894e-05)
(4.70566e-07 -3.9587e-07 -7.27363e-05)
(3.70777e-07 -3.89426e-07 -7.24612e-05)
(4.07302e-08 -5.0886e-07 -7.32821e-05)
(2.83939e-07 -5.08986e-07 -7.32488e-05)
(3.32377e-07 -5.02367e-07 -7.30764e-05)
(4.78572e-07 -5.00695e-07 -7.30218e-05)
(3.77219e-07 -4.92556e-07 -7.27413e-05)
(4.00338e-08 -3.61872e-07 -7.33357e-05)
(2.8453e-07 -3.61622e-07 -7.33027e-05)
(3.33402e-07 -3.56552e-07 -7.31293e-05)
(4.80369e-07 -3.55465e-07 -7.30746e-05)
(3.78988e-07 -3.49039e-07 -7.27925e-05)
(4.41334e-08 -3.14046e-07 -7.35153e-05)
(2.89259e-07 -3.13466e-07 -7.3482e-05)
(3.38534e-07 -3.08311e-07 -7.33059e-05)
(4.8608e-07 -3.0728e-07 -7.325e-05)
(3.83704e-07 -3.01282e-07 -7.29643e-05)
(4.28448e-08 -6.74869e-08 -7.35446e-05)
(2.90265e-07 -6.84255e-08 -7.3512e-05)
(3.39586e-07 -6.5123e-08 -7.33354e-05)
(4.87394e-07 -6.46578e-08 -7.32796e-05)
(3.85045e-07 -6.15273e-08 -7.29928e-05)
(2.38133e-08 -5.29609e-07 0.000274068)
(3.58468e-07 -5.2427e-07 0.000274119)
(4.32465e-07 -5.15813e-07 0.000274361)
(6.21708e-07 -5.12197e-07 0.000274457)
(4.90684e-07 -5.0396e-07 0.000274837)
(4.00851e-08 -6.77674e-07 0.00027368)
(3.7211e-07 -6.70535e-07 0.000273733)
(4.44413e-07 -6.5928e-07 0.000273978)
(6.33458e-07 -6.54422e-07 0.000274076)
(4.9892e-07 -6.43437e-07 0.000274462)
(4.50758e-08 -4.89756e-07 0.000273581)
(3.76848e-07 -4.84043e-07 0.000273634)
(4.48569e-07 -4.751e-07 0.00027388)
(6.37544e-07 -4.71174e-07 0.000273979)
(5.01753e-07 -4.62506e-07 0.000274367)
(5.599e-08 -4.24135e-07 0.000273339)
(3.86766e-07 -4.18244e-07 0.000273393)
(4.57284e-07 -4.0974e-07 0.00027364)
(6.46049e-07 -4.0595e-07 0.000273739)
(5.07658e-07 -3.98097e-07 0.000274131)
(5.94257e-08 -9.33557e-08 0.000273286)
(3.91244e-07 -9.11439e-08 0.00027334)
(4.60861e-07 -8.66448e-08 0.000273587)
(6.49184e-07 -8.47359e-08 0.000273687)
(5.0967e-07 -8.14861e-08 0.00027408)
(9.25715e-08 -7.9445e-07 -3.63781e-05)
(5.71041e-07 -7.92645e-07 -3.62925e-05)
(6.6309e-07 -7.83728e-07 -3.59134e-05)
(9.46381e-07 -7.79795e-07 -3.57641e-05)
(7.53712e-07 -7.66698e-07 -3.51674e-05)
(9.71636e-08 -9.9524e-07 -3.69957e-05)
(5.81638e-07 -9.93703e-07 -3.69095e-05)
(6.75812e-07 -9.83111e-07 -3.65233e-05)
(9.63273e-07 -9.78867e-07 -3.63707e-05)
(7.66809e-07 -9.61949e-07 -3.57621e-05)
(9.68031e-08 -7.02655e-07 -3.71487e-05)
(5.83158e-07 -7.01591e-07 -3.70622e-05)
(6.77917e-07 -6.94761e-07 -3.66739e-05)
(9.67537e-07 -6.92549e-07 -3.65205e-05)
(7.70754e-07 -6.80445e-07 -3.59082e-05)
(1.0073e-07 -6.09072e-07 -3.7538e-05)
(5.89531e-07 -6.07559e-07 -3.74514e-05)
(6.84853e-07 -6.0104e-07 -3.70583e-05)
(9.77587e-07 -5.99188e-07 -3.69026e-05)
(7.7901e-07 -5.88804e-07 -3.62822e-05)
(9.9411e-08 -1.17555e-07 -3.76205e-05)
(5.91191e-07 -1.18757e-07 -3.75337e-05)
(6.86286e-07 -1.1565e-07 -3.71398e-05)
(9.79771e-07 -1.1538e-07 -3.69836e-05)
(7.81225e-07 -1.11835e-07 -3.63612e-05)
(1.22066e-07 -1.15228e-06 0.000228976)
(8.23225e-07 -1.14635e-06 0.000229093)
(9.60809e-07 -1.13079e-06 0.000229642)
(1.36768e-06 -1.12383e-06 0.000229858)
(1.09233e-06 -1.10353e-06 0.000230725)
(1.34285e-07 -1.4482e-06 0.000228065)
(8.44533e-07 -1.44032e-06 0.000228186)
(9.83151e-07 -1.41982e-06 0.000228748)
(1.39473e-06 -1.41078e-06 0.000228973)
(1.11263e-06 -1.3842e-06 0.000229864)
(1.37952e-07 -1.03205e-06 0.000227836)
(8.5159e-07 -1.02602e-06 0.000227959)
(9.90347e-07 -1.0101e-06 0.000228525)
(1.40329e-06 -1.003e-06 0.00022875)
(1.1191e-06 -9.82647e-07 0.000229649)
(1.46754e-07 -8.95935e-07 0.000227264)
(8.66478e-07 -8.89683e-07 0.000227389)
(1.00617e-06 -8.75649e-07 0.000227964)
(1.42218e-06 -8.69074e-07 0.000228193)
(1.13313e-06 -8.51069e-07 0.000229106)
(1.48674e-07 -1.73149e-07 0.000227141)
(8.71876e-07 -1.71956e-07 0.000227266)
(1.01096e-06 -1.66814e-07 0.000227843)
(1.42787e-06 -1.64767e-07 0.000228073)
(1.13723e-06 -1.59472e-07 0.000228989)
(2.14449e-07 -1.71331e-06 9.67851e-06)
(1.23715e-06 -1.70731e-06 9.85849e-06)
(1.42817e-06 -1.68504e-06 1.06833e-05)
(2.029e-06 -1.67293e-06 1.1009e-05)
(1.62758e-06 -1.63536e-06 1.23108e-05)
(2.22585e-07 -2.13496e-06 8.31011e-06)
(1.2652e-06 -2.12834e-06 8.49567e-06)
(1.46229e-06 -2.1008e-06 9.34145e-06)
(2.07835e-06 -2.08716e-06 9.67769e-06)
(1.66516e-06 -2.03788e-06 1.10143e-05)
(2.22983e-07 -1.50335e-06 7.96221e-06)
(1.2713e-06 -1.49924e-06 8.14981e-06)
(1.46934e-06 -1.47916e-06 9.00281e-06)
(2.09193e-06 -1.47205e-06 9.34487e-06)
(1.6772e-06 -1.43842e-06 1.06922e-05)
(2.28557e-07 -1.30456e-06 7.10578e-06)
(1.2894e-06 -1.3004e-06 7.29623e-06)
(1.48948e-06 -1.28229e-06 8.15668e-06)
(2.11909e-06 -1.27604e-06 8.50605e-06)
(1.69902e-06 -1.24839e-06 9.8751e-06)
(2.26859e-07 -2.37438e-07 6.91796e-06)
(1.29356e-06 -2.39219e-07 7.11024e-06)
(1.4937e-06 -2.34255e-07 7.97396e-06)
(2.12583e-06 -2.33578e-07 8.32565e-06)
(1.70504e-06 -2.26595e-07 9.70126e-06)
(3.14182e-07 -2.53236e-06 0.000183968)
(1.82798e-06 -2.52082e-06 0.000184223)
(2.11126e-06 -2.48409e-06 0.000185419)
(2.99518e-06 -2.46649e-06 0.000185888)
(2.40534e-06 -2.41117e-06 0.000187785)
(3.28993e-07 -3.16452e-06 0.000181941)
(1.87587e-06 -3.14903e-06 0.000182207)
(2.16517e-06 -3.1003e-06 0.000183439)
(3.06756e-06 -3.07488e-06 0.000183929)
(2.46065e-06 -3.00278e-06 0.000185894)
(3.33515e-07 -2.23639e-06 0.00018143)
(1.8922e-06 -2.22547e-06 0.000181702)
(2.18541e-06 -2.19488e-06 0.000182944)
(3.09271e-06 -2.17464e-06 0.000183441)
(2.47798e-06 -2.1218e-06 0.000185428)
(3.43439e-07 -1.94019e-06 0.000180156)
(1.91738e-06 -1.92926e-06 0.000180435)
(2.216e-06 -1.9045e-06 0.000181708)
(3.14064e-06 -1.88829e-06 0.000182215)
(2.5139e-06 -1.84201e-06 0.000184238)
(3.453e-07 -3.5647e-07 0.000179875)
(1.92788e-06 -3.5505e-07 0.000180158)
(2.22638e-06 -3.46926e-07 0.000181438)
(3.1552e-06 -3.43236e-07 0.000181952)
(2.52462e-06 -3.31744e-07 0.000183985)
(4.75688e-07 -3.75856e-06 4.79472e-05)
(2.6881e-06 -3.74176e-06 4.83169e-05)
(3.09268e-06 -3.68275e-06 5.00839e-05)
(4.39459e-06 -3.64885e-06 5.07704e-05)
(3.54094e-06 -3.54282e-06 5.35634e-05)
(4.93762e-07 -4.67338e-06 4.49039e-05)
(2.76331e-06 -4.65026e-06 4.52945e-05)
(3.1848e-06 -4.57625e-06 4.71337e-05)
(4.53341e-06 -4.53386e-06 4.78577e-05)
(3.64697e-06 -4.3951e-06 5.07775e-05)
(4.99624e-07 -3.28841e-06 4.4143e-05)
(2.78523e-06 -3.27098e-06 4.45395e-05)
(3.20907e-06 -3.21029e-06 4.63986e-05)
(4.57573e-06 -3.18606e-06 4.71378e-05)
(3.6808e-06 -3.09424e-06 5.00952e-05)
(5.12224e-07 -2.85947e-06 4.22415e-05)
(2.84143e-06 -2.84368e-06 4.26515e-05)
(3.26972e-06 -2.78762e-06 4.45474e-05)
(4.64946e-06 -2.76571e-06 4.53063e-05)
(3.73957e-06 -2.6909e-06 4.83363e-05)
(5.13481e-07 -5.14204e-07 4.18333e-05)
(2.85708e-06 -5.1308e-07 4.22464e-05)
(3.28704e-06 -5.00898e-07 4.41561e-05)
(4.67245e-06 -4.95066e-07 4.49212e-05)
(3.75621e-06 -4.77975e-07 4.79723e-05)
(6.94064e-07 -5.60243e-06 0.000148875)
(3.96468e-06 -5.56989e-06 0.00014942)
(4.56476e-06 -5.46039e-06 0.000152007)
(6.47482e-06 -5.40493e-06 0.000152994)
(5.22351e-06 -5.22211e-06 0.000157078)
(7.27747e-07 -6.9688e-06 0.000144389)
(4.10562e-06 -6.92643e-06 0.000144971)
(4.72847e-06 -6.78561e-06 0.000147669)
(6.71146e-06 -6.70752e-06 0.000148724)
(5.40633e-06 -6.47106e-06 0.000153001)
(7.37404e-07 -4.89887e-06 0.000143259)
(4.14787e-06 -4.86841e-06 0.000143856)
(4.78367e-06 -4.78122e-06 0.000146597)
(6.78936e-06 -4.72607e-06 0.000147673)
(5.4616e-06 -4.56299e-06 0.000152019)
(7.59669e-07 -4.24986e-06 0.000140464)
(4.22328e-06 -4.22237e-06 0.00014106)
(4.87082e-06 -4.14709e-06 0.000143863)
(6.92968e-06 -4.10494e-06 0.000144983)
(5.57063e-06 -3.9649e-06 0.000149439)
(7.62733e-07 -7.59805e-07 0.000139871)
(4.25064e-06 -7.56931e-07 0.000140469)
(4.9011e-06 -7.35406e-07 0.000143271)
(6.97156e-06 -7.2625e-07 0.000144405)
(5.60272e-06 -6.94085e-07 0.000148899)
(1.02663e-06 -8.28536e-06 7.26909e-05)
(5.82014e-06 -8.23055e-06 7.34623e-05)
(6.66629e-06 -8.06102e-06 7.72261e-05)
(9.46485e-06 -7.9576e-06 7.86751e-05)
(7.66253e-06 -7.65666e-06 8.46753e-05)
(1.08182e-06 -1.02902e-05 6.60026e-05)
(6.04291e-06 -1.02147e-05 6.68284e-05)
(6.93706e-06 -9.98655e-06 7.0791e-05)
(9.86618e-06 -9.85496e-06 7.23365e-05)
(7.96348e-06 -9.45362e-06 7.86848e-05)
(1.10184e-06 -7.21336e-06 6.44479e-05)
(6.12382e-06 -7.18229e-06 6.52647e-05)
(7.02607e-06 -7.01569e-06 6.92329e-05)
(9.99778e-06 -6.92713e-06 7.07966e-05)
(8.06691e-06 -6.65649e-06 7.72416e-05)
(1.11325e-06 -6.24752e-06 6.02903e-05)
(6.24057e-06 -6.23059e-06 6.11617e-05)
(7.19221e-06 -6.11391e-06 6.52739e-05)
(1.02254e-05 -6.03336e-06 6.68429e-05)
(8.2363e-06 -5.81094e-06 7.34869e-05)
(1.1151e-06 -1.10336e-06 5.94296e-05)
(6.25743e-06 -1.10127e-06 6.02974e-05)
(7.22331e-06 -1.09018e-06 6.44641e-05)
(1.03008e-05 -1.07035e-06 6.60239e-05)
(8.29089e-06 -1.01611e-06 7.27226e-05)
(1.4744e-06 -1.23525e-05 0.000123785)
(8.49989e-06 -1.22649e-05 0.000124912)
(9.77752e-06 -1.19547e-05 0.000130438)
(1.39241e-05 -1.18018e-05 0.000132489)
(1.12792e-05 -1.1268e-05 0.000141131)
(1.56145e-06 -1.5212e-05 0.000113965)
(8.89403e-06 -1.51243e-05 0.000115179)
(1.02365e-05 -1.4779e-05 0.000121001)
(1.46055e-05 -1.45862e-05 0.00012326)
(1.18129e-05 -1.39049e-05 0.0001325)
(1.56129e-06 -1.06112e-05 0.000111634)
(8.93296e-06 -1.05352e-05 0.000112846)
(1.03156e-05 -1.02982e-05 0.000118753)
(1.47982e-05 -1.02196e-05 0.000121007)
(1.19658e-05 -9.76095e-06 0.000130455)
(1.63718e-06 -9.26811e-06 0.000105454)
(9.20697e-06 -9.18962e-06 0.000106736)
(1.05521e-05 -8.91591e-06 0.000112856)
(1.51428e-05 -8.87768e-06 0.000115194)
(1.22757e-05 -8.48393e-06 0.000124938)
(1.6357e-06 -1.61616e-06 0.00010418)
(9.28516e-06 -1.61743e-06 0.000105462)
(1.06276e-05 -1.54207e-06 0.00011165)
(1.52302e-05 -1.5424e-06 0.000113988)
(1.23632e-05 -1.45631e-06 0.000123818)
(2.16158e-06 -1.81968e-05 8.36644e-05)
(1.24731e-05 -1.80546e-05 8.52697e-05)
(1.42436e-05 -1.75867e-05 9.3331e-05)
(2.01581e-05 -1.72736e-05 9.63275e-05)
(1.63875e-05 -1.63707e-05 0.00010883)
(2.30255e-06 -2.24422e-05 6.88013e-05)
(1.30787e-05 -2.2281e-05 7.06406e-05)
(1.50185e-05 -2.16721e-05 7.94052e-05)
(2.13654e-05 -2.13376e-05 8.27338e-05)
(1.72904e-05 -2.01304e-05 9.6342e-05)
(2.32107e-06 -1.57245e-05 6.50089e-05)
(1.32431e-05 -1.5625e-05 6.69347e-05)
(1.51871e-05 -1.51612e-05 7.59942e-05)
(2.16998e-05 -1.49932e-05 7.94126e-05)
(1.76034e-05 -1.42187e-05 9.33532e-05)
(2.40089e-06 -1.37007e-05 5.46997e-05)
(1.3642e-05 -1.36143e-05 5.6932e-05)
(1.56503e-05 -1.32163e-05 6.6947e-05)
(2.23078e-05 -1.30524e-05 7.06603e-05)
(1.8071e-05 -1.24475e-05 8.53038e-05)
(2.40235e-06 -2.37349e-06 5.242e-05)
(1.37275e-05 -2.37131e-06 5.47122e-05)
(1.57489e-05 -2.29246e-06 6.50324e-05)
(2.24686e-05 -2.27378e-06 6.88311e-05)
(1.82129e-05 -2.13393e-06 8.37071e-05)
(3.09004e-06 -2.73546e-05 0.000103566)
(1.81665e-05 -2.70317e-05 0.000106066)
(2.08353e-05 -2.60132e-05 0.000117869)
(2.94238e-05 -2.55252e-05 0.000122272)
(2.39041e-05 -2.38783e-05 0.000140596)
(3.40969e-06 -3.38679e-05 8.1291e-05)
(1.9498e-05 -3.34598e-05 8.42894e-05)
(2.23298e-05 -3.21162e-05 9.7469e-05)
(3.15427e-05 -3.15015e-05 0.00010251)
(2.55509e-05 -2.93823e-05 0.000122287)
(3.49524e-06 -2.47128e-05 7.51806e-05)
(1.99182e-05 -2.42437e-05 7.83001e-05)
(2.27936e-05 -2.27565e-05 9.21699e-05)
(3.21576e-05 -2.22931e-05 9.74759e-05)
(2.60392e-05 -2.07992e-05 0.000117891)
(3.8763e-06 -2.18571e-05 6.13781e-05)
(2.14543e-05 -2.14121e-05 6.45048e-05)
(2.42804e-05 -1.98778e-05 7.83139e-05)
(3.35001e-05 -1.94592e-05 8.43107e-05)
(2.7057e-05 -1.813e-05 0.000106101)
(3.93441e-06 -3.8925e-06 5.81834e-05)
(2.18976e-05 -3.83338e-06 6.13918e-05)
(2.47465e-05 -3.45386e-06 7.52083e-05)
(3.39054e-05 -3.36864e-06 8.13246e-05)
(2.73783e-05 -3.05106e-06 0.000103609)
(4.67238e-06 -4.06762e-05 8.06093e-05)
(2.67769e-05 -4.00343e-05 8.448e-05)
(3.04488e-05 -3.81838e-05 0.000101648)
(4.28856e-05 -3.7228e-05 0.000108196)
(3.48945e-05 -3.48626e-05 0.000133767)
(5.30939e-06 -5.08278e-05 4.81751e-05)
(2.92567e-05 -5.00481e-05 5.25911e-05)
(3.32392e-05 -4.73723e-05 7.1831e-05)
(4.61836e-05 -4.61341e-05 7.96706e-05)
(3.72599e-05 -4.28365e-05 0.000108219)
(5.44772e-06 -3.56374e-05 3.92751e-05)
(3.02324e-05 -3.54096e-05 4.39155e-05)
(3.43628e-05 -3.43163e-05 6.32016e-05)
(4.74215e-05 -3.31926e-05 7.18387e-05)
(3.82153e-05 -3.04046e-05 0.000101681)
(5.53247e-06 -3.0698e-05 1.96762e-05)
(3.05778e-05 -3.05226e-05 2.4471e-05)
(3.54562e-05 -3.01779e-05 4.39372e-05)
(5.00953e-05 -2.92037e-05 5.26196e-05)
(4.00639e-05 -2.6729e-05 8.45338e-05)
(5.61595e-06 -5.56672e-06 1.47145e-05)
(3.07524e-05 -5.48219e-06 1.96883e-05)
(3.56816e-05 -5.39721e-06 3.93096e-05)
(5.08704e-05 -5.25836e-06 4.82159e-05)
(4.07026e-05 -4.62452e-06 8.06734e-05)
(6.97435e-06 -6.00967e-05 7.93097e-05)
(3.92051e-05 -5.92245e-05 8.56547e-05)
(4.45509e-05 -5.6124e-05 0.000110696)
(6.15442e-05 -5.43362e-05 0.000121207)
(4.97438e-05 -4.96941e-05 0.000158131)
(7.83726e-06 -7.52033e-05 3.36177e-05)
(4.31539e-05 -7.40255e-05 4.03298e-05)
(4.94093e-05 -7.05635e-05 6.67971e-05)
(6.79322e-05 -6.78595e-05 7.93712e-05)
(5.4386e-05 -6.14699e-05 0.00012123)
(8.14677e-06 -5.32116e-05 1.99401e-05)
(4.38448e-05 -5.23638e-05 2.72031e-05)
(5.07168e-05 -5.06502e-05 5.43791e-05)
(7.06377e-05 -4.9344e-05 6.6805e-05)
(5.61752e-05 -4.44848e-05 0.000110729)
(8.68085e-06 -4.64176e-05 -1.05457e-05)
(4.57152e-05 -4.56394e-05 -2.41585e-06)
(5.24291e-05 -4.37698e-05 2.72225e-05)
(7.40978e-05 -4.3082e-05 4.03562e-05)
(5.92751e-05 -3.91373e-05 8.57046e-05)
(8.9177e-06 -8.84786e-06 -1.90094e-05)
(4.64926e-05 -8.61045e-06 -1.05379e-05)
(5.32741e-05 -8.07761e-06 1.99682e-05)
(7.52704e-05 -7.76888e-06 3.36538e-05)
(6.01439e-05 -6.90893e-06 7.93741e-05)
(1.10366e-05 -8.6836e-05 6.11261e-05)
(5.81635e-05 -8.58197e-05 7.12515e-05)
(6.60016e-05 -8.25217e-05 0.00010729)
(9.03223e-05 -7.94907e-05 0.00012299)
(7.22122e-05 -7.21573e-05 0.000177179)
(1.20365e-05 -0.000110199 -5.33832e-06)
(6.24361e-05 -0.000108501 5.6367e-06)
(7.22806e-05 -0.000103691 4.42815e-05)
(0.000100618 -0.000100538 6.23882e-05)
(7.95457e-05 -9.02408e-05 0.000123029)
(1.27257e-05 -7.98008e-05 -2.79064e-05)
(6.46714e-05 -7.81552e-05 -1.59776e-05)
(7.39647e-05 -7.38909e-05 2.53027e-05)
(0.000103773 -7.22076e-05 4.42903e-05)
(8.25779e-05 -6.59303e-05 0.000107343)
(1.36758e-05 -6.96474e-05 -7.34079e-05)
(6.8346e-05 -6.82636e-05 -6.03081e-05)
(7.82282e-05 -6.45889e-05 -1.59376e-05)
(0.000108579 -6.23549e-05 5.68378e-06)
(8.5873e-05 -5.80836e-05 7.13452e-05)
(1.41006e-05 -1.40213e-05 -8.7068e-05)
(6.973e-05 -1.35958e-05 -7.34089e-05)
(7.98733e-05 -1.26464e-05 -2.7865e-05)
(0.000110278 -1.19562e-05 -5.28882e-06)
(8.6891e-05 -1.09538e-05 6.12198e-05)
(1.7127e-05 -0.000127272 4.13606e-05)
(8.53692e-05 -0.000125533 5.58329e-05)
(9.62894e-05 -0.000119787 0.000108108)
(0.000131435 -0.000115568 0.000132873)
(0.000104502 -0.000104413 0.000211461)
(1.884e-05 -0.000164239 -6.07566e-05)
(9.27737e-05 -0.000161257 -4.27505e-05)
(0.000106161 -0.000152553 1.63468e-05)
(0.000146682 -0.000146562 4.47164e-05)
(0.000115657 -0.000131308 0.000132909)
(2.0103e-05 -0.000121281 -9.93852e-05)
(9.7054e-05 -0.000118309 -7.91783e-05)
(0.000110985 -0.000110869 -1.6292e-05)
(0.00015268 -0.000106048 1.63522e-05)
(0.000119882 -9.61687e-05 0.000108147)
(2.1807e-05 -0.000105579 -0.000170116)
(0.000103186 -0.000103071 -0.00014741)
(0.000118421 -9.69376e-05 -7.91527e-05)
(0.000161383 -9.26611e-05 -4.27197e-05)
(0.000125631 -8.52602e-05 5.58918e-05)
(2.26013e-05 -2.24867e-05 -0.000194494)
(0.000105696 -2.1693e-05 -0.000170123)
(0.000121394 -1.99898e-05 -9.93657e-05)
(0.000164358 -1.87287e-05 -6.07315e-05)
(0.000127364 -1.70268e-05 4.1421e-05)
(2.55428e-05 -0.000190049 2.64485e-05)
(0.000124911 -0.000185463 4.8071e-05)
(0.000143042 -0.000175265 0.000119381)
(0.000193678 -0.000168586 0.000156829)
(0.000151621 -0.00015153 0.000265604)
(3.00736e-05 -0.000250949 -0.000126017)
(0.00013954 -0.000243517 -9.76997e-05)
(0.000159747 -0.000228095 -1.34634e-05)
(0.000217184 -0.000217063 3.22354e-05)
(0.000168676 -0.000193557 0.000156909)
(3.29624e-05 -0.00018916 -0.000187892)
(0.000147765 -0.000182815 -0.000155667)
(0.000169495 -0.00016939 -6.47897e-05)
(0.000228216 -0.000159644 -1.34645e-05)
(0.000175355 -0.000142947 0.000119461)
(3.64039e-05 -0.000164757 -0.000292251)
(0.000159309 -0.000159208 -0.000255188)
(0.000182919 -0.000147663 -0.000155589)
(0.000243628 -0.000139439 -9.7631e-05)
(0.000185545 -0.00012481 4.82216e-05)
(3.84945e-05 -3.83856e-05 -0.000332335)
(0.000164859 -3.62932e-05 -0.000292285)
(0.000189265 -3.28519e-05 -0.000187842)
(0.000251069 -2.99591e-05 -0.000125973)
(0.000190139 -2.54268e-05 2.65932e-05)
(3.88147e-05 -0.0002814 -2.38109e-05)
(0.000178302 -0.000272898 1.33676e-05)
(0.000205047 -0.000254094 0.000116825)
(0.000277662 -0.000241532 0.000177709)
(0.000214446 -0.000214275 0.000331349)
(4.72183e-05 -0.000378585 -0.000260217)
(0.000205328 -0.000365002 -0.000211208)
(0.000236096 -0.00033673 -8.42999e-05)
(0.000317061 -0.00031686 -8.03042e-06)
(0.000241702 -0.000277455 0.000177753)
(5.23864e-05 -0.000287515 -0.000371398)
(0.000220156 -0.000275797 -0.0003125)
(0.000253187 -0.000252995 -0.000172541)
(0.000336937 -0.000235914 -8.43039e-05)
(0.000254271 -0.000204856 0.000116875)
(5.89258e-05 -0.000250023 -0.000537168)
(0.000239847 -0.000239688 -0.000468293)
(0.000275978 -0.00021999 -0.000312478)
(0.000365201 -0.00020517 -0.000211189)
(0.000273078 -0.000178128 1.34283e-05)
(6.27013e-05 -6.25219e-05 -0.00061541)
(0.000250189 -5.8751e-05 -0.000537202)
(0.000287706 -5.22074e-05 -0.00037141)
(0.0003788 -4.70425e-05 -0.000260231)
(0.000281593 -3.86341e-05 -2.3778e-05)
(6.28064e-05 -0.000429019 -3.51435e-05)
(0.000265548 -0.000412477 2.05328e-05)
(0.000307383 -0.000378606 0.000164194)
(0.000408209 -0.00035636 0.000249709)
(0.000306943 -0.000306808 0.00046063)
(7.91381e-05 -0.000598547 -0.000373854)
(0.000315457 -0.000569395 -0.000296646)
(0.000362924 -0.000517471 -0.000120193)
(0.000479246 -0.000479084 -4.84372e-06)
(0.000356495 -0.000408038 0.000249854)
(9.19189e-05 -0.000466111 -0.00055087)
(0.000346622 -0.000439899 -0.000456798)
(0.000397691 -0.000397568 -0.000256129)
(0.000517642 -0.000362801 -0.000120219)
(0.000378751 -0.000307272 0.000164351)
(0.00010531 -0.00040877 -0.000797113)
(0.000384 -0.000383911 -0.000683093)
(0.000440022 -0.000346532 -0.000456639)
(0.000569545 -0.000315366 -0.000296535)
(0.000412601 -0.000265464 2.08172e-05)
(0.000116745 -0.000116613 -0.000925021)
(0.00040886 -0.000105176 -0.000797236)
(0.000466235 -9.1786e-05 -0.000550821)
(0.000598712 -7.89961e-05 -0.000373841)
(0.000429157 -6.26526e-05 -3.49427e-05)
(9.46295e-05 -0.000623958 -0.000151657)
(0.000377639 -0.000593677 -5.1974e-05)
(0.000434222 -0.000541723 0.00016127)
(0.000574108 -0.000498969 0.000303549)
(0.000427721 -0.000427405 0.000597989)
(0.000124555 -0.00089433 -0.000680904)
(0.000458988 -0.000842349 -0.000541445)
(0.000527897 -0.000757067 -0.000271039)
(0.00068712 -0.0006868 -7.62297e-05)
(0.000499285 -0.000573744 0.000303575)
(0.000146581 -0.000710773 -0.0010196)
(0.000514898 -0.000662242 -0.000832326)
(0.000589765 -0.000589439 -0.000514925)
(0.000757431 -0.000527604 -0.000271068)
(0.000542084 -0.000433892 0.000161253)
(0.000173069 -0.000624174 -0.00142821)
(0.000580323 -0.000580127 -0.00119921)
(0.000662535 -0.000514683 -0.000832337)
(0.000842672 -0.000458792 -0.00054148)
(0.000594031 -0.000377422 -5.20389e-05)
(0.000190584 -0.000190321 -0.0017138)
(0.000624389 -0.00017282 -0.00142832)
(0.000711099 -0.000146309 -0.00101971)
(0.000894696 -0.000124291 -0.000681042)
(0.000624341 -9.43384e-05 -0.000151837)
(0.000162656 -0.000964263 -0.000111678)
(0.000578475 -0.000907475 2.7569e-05)
(0.000662905 -0.000815799 0.00030448)
(0.000844942 -0.000740385 0.000499041)
(0.000604689 -0.000604527 0.000891135)
(0.000218692 -0.00146651 -0.000862516)
(0.000725322 -0.00134977 -0.000643233)
(0.000828137 -0.00119369 -0.000278729)
(0.00105388 -0.00105372 1.07419e-05)
(0.000740547 -0.000844788 0.000499295)
(0.000279322 -0.00121341 -0.00138727)
(0.000851295 -0.00109766 -0.0010968)
(0.000958947 -0.000958865 -0.00064436)
(0.00119384 -0.000828049 -0.000278826)
(0.000815957 -0.000662885 0.0003047)
(0.000334341 -0.00110297 -0.0020148)
(0.000979873 -0.000979906 -0.00163059)
(0.00109775 -0.000851319 -0.00109649)
(0.00134987 -0.00072534 -0.000643079)
(0.000907569 -0.000578554 2.80938e-05)
(0.000402337 -0.000402209 -0.00246224)
(0.00110295 -0.000334225 -0.00201511)
(0.00121351 -0.000279222 -0.00138727)
(0.00146661 -0.000218579 -0.000862625)
(0.00096436 -0.000162569 -0.000111416)
(0.000234161 -0.00138371 -0.000336036)
(0.000793797 -0.00127246 -6.67107e-05)
(0.000905689 -0.00113186 0.000330316)
(0.00116078 -0.000992945 0.000658837)
(0.000824299 -0.000823726 0.0011876)
(0.000344101 -0.00216997 -0.001517)
(0.00104278 -0.00196676 -0.0011113)
(0.00118187 -0.00170594 -0.000546075)
(0.00146517 -0.00146469 -5.37124e-05)
(0.000993518 -0.0011602 0.000658855)
(0.000437302 -0.00186306 -0.00259104)
(0.00125781 -0.0016496 -0.00195442)
(0.00140773 -0.0014072 -0.00122434)
(0.00170652 -0.00118142 -0.000546151)
(0.00113254 -0.000905088 0.000330228)
(0.000557539 -0.00169915 -0.00367854)
(0.00149863 -0.00149844 -0.00285383)
(0.00165004 -0.0012576 -0.00195444)
(0.0019673 -0.00104259 -0.00111141)
(0.00127319 -0.000793538 -6.67982e-05)
(0.000637878 -0.000637575 -0.00488212)
(0.00169937 -0.000557246 -0.0036789)
(0.00186358 -0.000436922 -0.00259135)
(0.0021706 -0.000343751 -0.00151737)
(0.00138447 -0.00023372 -0.000336479)
(0.000432405 -0.00215931 -8.12509e-05)
(0.00124483 -0.00196448 0.000260758)
(0.00138845 -0.00170251 0.000759699)
(0.00170225 -0.00146112 0.00118371)
(0.00113959 -0.00113941 0.00182465)
(0.000624586 -0.00372159 -0.00174932)
(0.00169625 -0.00323754 -0.00110828)
(0.00188572 -0.0027484 -0.000373159)
(0.00225884 -0.00225874 0.000313991)
(0.0014613 -0.00170219 0.00118405)
(0.000916344 -0.00337498 -0.00332313)
(0.002218 -0.0028402 -0.00238713)
(0.00236722 -0.00236723 -0.00133163)
(0.00274847 -0.00188574 -0.000373381)
(0.00170265 -0.00138854 0.000759958)
(0.0011591 -0.00339407 -0.00516281)
(0.00270399 -0.0027044 -0.00371782)
(0.00284018 -0.00221833 -0.00238667)
(0.00323757 -0.00169656 -0.00110817)
(0.0019646 -0.00124527 0.000261385)
(0.00160609 -0.00160587 -0.00687359)
(0.00339374 -0.00115909 -0.00516336)
(0.00337506 -0.000916343 -0.0033233)
(0.00372156 -0.000624592 -0.00174975)
(0.00215934 -0.000432595 -8.11362e-05)
(0.000576717 -0.00307226 -0.000340676)
(0.00163474 -0.00265842 0.000320191)
(0.00182863 -0.00227857 0.00100181)
(0.00222576 -0.00187318 0.00168509)
(0.00147319 -0.00147227 0.00248714)
(0.000985639 -0.00541192 -0.00289601)
(0.00241893 -0.00461472 -0.00176795)
(0.00260413 -0.00379733 -0.000616649)
(0.00302242 -0.00302182 0.000472153)
(0.0018741 -0.00222492 0.00168506)
(0.00137377 -0.00527658 -0.00630692)
(0.00324929 -0.00425913 -0.00409246)
(0.00342147 -0.0034207 -0.00239482)
(0.00379818 -0.00260357 -0.000616805)
(0.00227974 -0.00182774 0.00100162)
(0.00200312 -0.00524955 -0.00954572)
(0.00427474 -0.00427465 -0.00642065)
(0.00425969 -0.00324925 -0.00409239)
(0.00461543 -0.00241895 -0.0017682)
(0.00265966 -0.00163463 0.000319928)
(0.00234844 -0.00234873 -0.0154361)
(0.00524959 -0.00200296 -0.009547)
(0.00527723 -0.00137335 -0.00630763)
(0.00541284 -0.000985283 -0.00289683)
(0.00307357 -0.000575977 -0.000341418)
(0.00109422 -0.00474702 0.00063659)
(0.00258732 -0.00407841 0.00139484)
(0.00275335 -0.00334074 0.00218747)
(0.00318763 -0.00268886 0.0029713)
(0.0019518 -0.00195165 0.00376544)
(0.00175305 -0.00968805 -0.00295391)
(0.00397563 -0.00765036 -0.00111098)
(0.00412584 -0.00614514 0.000273981)
(0.00456063 -0.00456071 0.00165234)
(0.00268901 -0.00318776 0.00297159)
(0.00313213 -0.010025 -0.00755378)
(0.00613011 -0.00749305 -0.00449407)
(0.00584295 -0.00584304 -0.00199578)
(0.00614501 -0.00412611 0.000273635)
(0.00334084 -0.00275367 0.00218746)
(0.00428448 -0.0125235 -0.0141781)
(0.00815723 -0.00815884 -0.00795215)
(0.00749277 -0.00613115 -0.0044936)
(0.00765005 -0.00397661 -0.00111105)
(0.00407852 -0.0025883 0.00139519)
(0.00749914 -0.00749736 -0.0212412)
(0.0125224 -0.004285 -0.0141787)
(0.0100255 -0.00313212 -0.00755444)
(0.00968798 -0.00175326 -0.00295492)
(0.00474712 -0.00109464 0.000635895)
(0.00133586 -0.00670695 0.00100042)
(0.0031856 -0.00519569 0.0023613)
(0.00340505 -0.00421635 0.00333149)
(0.00380375 -0.00320903 0.00435686)
(0.00227814 -0.00227693 0.00519891)
(0.00282957 -0.013602 -0.00378182)
(0.00564667 -0.0105035 -0.00111229)
(0.00536742 -0.00798059 0.00091517)
(0.00572007 -0.00571953 0.0027949)
(0.00321024 -0.00380292 0.00435675)
(0.00443473 -0.0165007 -0.0135122)
(0.00880675 -0.0111004 -0.006511)
(0.00818912 -0.00818823 -0.00271941)
(0.00798141 -0.00536693 0.000914886)
(0.00421786 -0.0034041 0.00333098)
(0.00823268 -0.018933 -0.0246186)
(0.0139581 -0.0139581 -0.0129988)
(0.0111008 -0.00880737 -0.00651064)
(0.0105041 -0.00564736 -0.00111253)
(0.00519737 -0.00318617 0.00236062)
(0.00942153 -0.00942798 -0.0576595)
(0.0189323 -0.00823298 -0.0246232)
(0.0165009 -0.00443472 -0.0135143)
(0.0136028 -0.00282944 -0.00378321)
(0.0067086 -0.00133491 0.000998556)
(0.00245685 -0.00959458 0.00432149)
(0.00491842 -0.00759729 0.0055625)
(0.004749 -0.00578964 0.00629856)
(0.00505515 -0.00427101 0.00703431)
(0.00280567 -0.00280563 0.00747207)
(0.00442357 -0.024201 -0.00188185)
(0.00867254 -0.0165229 0.00235254)
(0.00803324 -0.0121963 0.00417301)
(0.0080024 -0.00800288 0.00596898)
(0.00427105 -0.00505579 0.00703428)
(0.0101394 -0.0308623 -0.0141032)
(0.0169227 -0.0193806 -0.0044049)
(0.0132694 -0.0132694 0.000570394)
(0.0121956 -0.00803375 0.00417254)
(0.00578952 -0.0047499 0.00629808)
(0.0159227 -0.0568469 -0.0439207)
(0.026267 -0.0262729 -0.0125391)
(0.0193801 -0.0169258 -0.00440468)
(0.0165216 -0.00867464 0.00235205)
(0.00759693 -0.00492076 0.0055619)
(0.0407991 -0.0407824 -0.0751126)
(0.0568437 -0.0159272 -0.0439226)
(0.0308661 -0.0101387 -0.0141046)
(0.0242012 -0.00442442 -0.00188344)
(0.0095942 -0.00245783 0.00431884)
(0.00257859 -0.0129896 0.00840218)
(0.00516245 -0.00844991 0.00941647)
(0.00487679 -0.00637044 0.00972973)
(0.00497725 -0.00428928 0.0100593)
(0.00272305 -0.00272188 0.00992834)
(0.00706761 -0.0320198 0.00376309)
(0.0117004 -0.0204702 0.00606676)
(0.0089836 -0.0137083 0.00856124)
(0.00858115 -0.00858111 0.00948031)
(0.00429045 -0.00497691 0.0100589)
(0.0141542 -0.058409 -0.00980786)
(0.0234787 -0.0259814 0.000160832)
(0.0167664 -0.0167658 0.00572589)
(0.0137087 -0.0089836 0.00856125)
(0.00637194 -0.0048764 0.00972899)
(0.0406172 -0.116953 -0.0546472)
(0.0539634 -0.0539653 -0.0199186)
(0.0259814 -0.0234808 0.000160481)
(0.02047 -0.0117022 0.00606624)
(0.00845148 -0.00516518 0.00941523)
(0.0480841 -0.062938 -0.208097)
(0.116946 -0.0406155 -0.054657)
(0.0584091 -0.0141536 -0.00981677)
(0.0320194 -0.00706759 0.00376365)
(0.0129902 -0.00257813 0.0083985)
(0.00347335 -0.0143058 0.0177876)
(0.00624609 -0.0109915 0.0164672)
(0.00539201 -0.00697737 0.0151048)
(0.0052539 -0.00485811 0.0140393)
(0.00267509 -0.00267543 0.0127569)
(0.00673011 -0.0422482 0.0238289)
(0.0134693 -0.0257676 0.019084)
(0.0114469 -0.0161998 0.0177701)
(0.00950001 -0.00950084 0.0154966)
(0.00485778 -0.00525527 0.0140386)
(0.0203432 -0.0733849 0.0360079)
(0.0324547 -0.0446601 0.0266216)
(0.0216602 -0.0216606 0.0217463)