/*--------------------------------*- C++ -*----------------------------------*\
| =========                 |                                                 |
| \\      /  F ield         | OpenFOAM: The Open Source CFD Toolbox           |
|  \\    /   O peration     | Version:  5.x                                   |
|   \\  /    A nd           | Web:      www.OpenFOAM.org                      |
|    \\/     M anipulation  |                                                 |
\*---------------------------------------------------------------------------*/
FoamFile
{
    version     2.0;
    format      ascii;
    class       surfaceScalarField;
    location    "0.015";
    object      phi;
}
// * * * * * * * * * * * * * * * * * * * * * * * * * * * * * * * * * * * * * //

dimensions      [0 3 -1 0 0 0 0];

internalField   nonuniform List<scalar> 
4318
(
-5.09647e-09
1.47256e-09
-3.63783e-10
-4.34121e-09
1.52503e-09
-2.5043e-09
-3.76679e-09
1.51793e-09
-2.34302e-09
-1.94627e-09
1.57935e-09
-3.59927e-09
1.58267e-09
-3.55203e-09
-5.10857e-09
3.2304e-09
-4.33053e-10
-4.34789e-09
3.31147e-09
-2.54098e-09
-3.75877e-09
3.31938e-09
-2.38582e-09
-1.94221e-09
3.39136e-09
-3.62627e-09
3.40567e-09
-3.58888e-09
-5.02442e-09
3.82862e-09
7.09269e-10
-4.27059e-09
3.91958e-09
-1.35511e-09
-3.68717e-09
3.93223e-09
-1.18984e-09
-1.88224e-09
4.0028e-09
-2.41076e-09
4.01511e-09
-2.36669e-09
-5.00947e-09
4.59098e-09
5.43224e-10
-4.2586e-09
4.68104e-09
-1.50574e-09
-3.67136e-09
4.6975e-09
-1.34626e-09
-1.87316e-09
4.77014e-09
-2.55938e-09
4.78435e-09
-2.52091e-09
-4.91862e-09
2.49826e-09
-4.17279e-09
4.92231e-10
-3.59977e-09
6.65588e-10
-1.81447e-09
-5.27135e-10
-4.79396e-10
-3.83258e-09
1.12769e-09
-1.20656e-09
-3.89385e-09
1.28312e-09
-4.25808e-09
-3.23084e-09
1.34413e-09
-4.7947e-09
-1.87671e-09
1.44807e-09
-6.6919e-09
1.50437e-09
-6.98171e-09
-3.76328e-09
2.65546e-09
-8.90598e-10
-3.8222e-09
2.7489e-09
-3.93965e-09
-3.16579e-09
2.78697e-09
-4.47744e-09
-1.82147e-09
2.85717e-09
-6.37489e-09
2.89521e-09
-6.669e-09
-3.69432e-09
3.42748e-09
9.90226e-10
-3.7519e-09
3.49544e-09
-2.0359e-09
-3.10268e-09
3.52328e-09
-2.56718e-09
-1.77304e-09
3.57561e-09
-4.45149e-09
3.60191e-09
-4.74402e-09
-3.66702e-09
3.49416e-09
1.52195e-09
-3.72036e-09
3.543e-09
-1.492e-09
-3.07307e-09
3.55966e-09
-2.02207e-09
-1.74814e-09
3.59805e-09
-3.89899e-09
3.61267e-09
-4.19251e-09
-3.62336e-09
4.50694e-09
-3.67686e-09
1.53947e-09
-3.03362e-09
1.02255e-09
-1.72239e-09
-8.2574e-10
-1.11259e-09
-6.25642e-09
2.1972e-09
-2.14204e-09
-5.68926e-09
2.241e-09
-7.20079e-09
-4.74526e-09
2.23922e-09
-8.12395e-09
-2.5342e-09
2.28549e-09
-1.1315e-08
2.28713e-09
-1.1815e-08
-6.26055e-09
4.34591e-09
-1.64139e-09
-5.68988e-09
4.42326e-09
-6.68642e-09
-4.74484e-09
4.43387e-09
-7.61117e-09
-2.53335e-09
4.49782e-09
-1.07948e-08
4.50713e-09
-1.12977e-08
-6.18529e-09
5.28135e-09
1.43714e-09
-5.61796e-09
5.37386e-09
-3.54758e-09
-4.67847e-09
5.39071e-09
-4.45721e-09
-2.48362e-09
5.46024e-09
-7.60312e-09
5.47265e-09
-8.09874e-09
-6.16768e-09
5.85882e-09
2.3252e-09
-5.60195e-09
5.95514e-09
-2.63282e-09
-4.66436e-09
5.97594e-09
-3.53884e-09
-2.47541e-09
6.04654e-09
-6.66837e-09
6.06134e-09
-7.16296e-09
-6.07002e-09
7.18585e-09
-5.50933e-09
2.32357e-09
-4.58347e-09
1.44385e-09
-2.42045e-09
-1.62549e-09
-2.10581e-09
-8.08708e-09
2.59296e-09
-3.57131e-09
-7.45015e-09
2.76244e-09
-1.10511e-08
-6.17964e-09
2.81019e-09
-1.26066e-08
-3.34503e-09
2.92964e-09
-1.73504e-08
2.97397e-09
-1.81937e-08
-8.02298e-09
5.48799e-09
-2.73816e-09
-7.38635e-09
5.64358e-09
-1.02001e-08
-6.12145e-09
5.68875e-09
-1.17506e-08
-3.29938e-09
5.80034e-09
-1.64851e-08
5.83867e-09
-1.73259e-08
-7.89853e-09
6.81689e-09
1.87628e-09
-7.26728e-09
6.96415e-09
-5.49511e-09
-6.01677e-09
7.00629e-09
-7.02092e-09
-3.22626e-09
7.10968e-09
-1.16993e-08
7.14189e-09
-1.25286e-08
-7.85216e-09
7.53523e-09
3.36474e-09
-7.22131e-09
7.67026e-09
-3.96545e-09
-5.97587e-09
7.70728e-09
-5.48111e-09
-3.19796e-09
7.8013e-09
-1.0134e-08
7.82714e-09
-1.09582e-08
-7.72167e-09
1.05797e-08
-7.09763e-09
3.4041e-09
-5.87076e-09
1.93075e-09
-3.13293e-09
-2.62383e-09
-3.42622e-09
-1.1919e-08
4.34692e-09
-5.47099e-09
-1.08062e-08
4.43887e-09
-1.67161e-08
-8.93306e-09
4.45308e-09
-1.90526e-08
-4.71956e-09
4.52271e-09
-2.61879e-08
4.5313e-09
-2.74624e-08
-1.18977e-08
8.42357e-09
-4.24498e-09
-1.07856e-08
8.58394e-09
-1.54557e-08
-8.91649e-09
8.61902e-09
-1.77842e-08
-4.71154e-09
8.73221e-09
-2.48993e-08
8.75277e-09
-2.61677e-08
-1.17557e-08
1.02473e-08
2.59013e-09
-1.06532e-08
1.04407e-08
-8.45233e-09
-8.80258e-09
1.04855e-08
-1.07361e-08
-4.64215e-09
1.06162e-08
-1.77424e-08
1.06422e-08
-1.89884e-08
-1.17066e-08
1.13497e-08
4.79194e-09
-1.06086e-08
1.15555e-08
-6.17622e-09
-8.76557e-09
1.16059e-08
-8.44267e-09
-4.62303e-09
1.17445e-08
-1.54033e-08
1.1774e-08
-1.66397e-08
-1.15004e-08
1.55181e-08
-1.04161e-08
4.82315e-09
-8.60558e-09
2.63213e-09
-4.53067e-09
-4.15397e-09
-5.35077e-09
-1.71113e-08
6.05366e-09
-8.27786e-09
-1.55365e-08
6.25791e-09
-2.48603e-08
-1.28393e-08
6.31331e-09
-2.83509e-08
-6.79228e-09
6.45498e-09
-3.88969e-08
6.49555e-09
-4.08069e-08
-1.70342e-08
1.19399e-08
-6.48481e-09
-1.54627e-08
1.22307e-08
-2.30008e-08
-1.27737e-08
1.23128e-08
-2.64739e-08
-6.75088e-09
1.25101e-08
-3.69799e-08
1.25635e-08
-3.88767e-08
-1.67883e-08
1.45951e-08
3.52064e-09
-1.52356e-08
1.4924e-08
-1.2699e-08
-1.25811e-08
1.5015e-08
-1.60935e-08
-6.63608e-09
1.52331e-08
-2.64118e-08
1.52885e-08
-2.82671e-08
-1.66894e-08
1.61842e-08
6.76601e-09
-1.51418e-08
1.65253e-08
-9.32548e-09
-1.25009e-08
1.66181e-08
-1.26872e-08
-6.59063e-09
1.68454e-08
-2.29269e-08
1.69004e-08
-2.4765e-08
-1.63512e-08
2.24363e-08
-1.48276e-08
6.81681e-09
-1.22409e-08
3.58455e-09
-6.44473e-09
-6.35295e-09
-8.12132e-09
-2.50666e-08
9.20738e-09
-1.2278e-08
-2.26756e-08
9.43851e-09
-3.67775e-08
-1.86813e-08
9.491e-09
-4.19308e-08
-9.81422e-09
9.64597e-09
-5.74914e-08
9.67146e-09
-6.0324e-08
-2.49889e-08
1.76845e-08
-9.67469e-09
-2.26057e-08
1.81057e-08
-3.40543e-08
-1.86261e-08
1.82102e-08
-3.91764e-08
-9.78959e-09
1.84898e-08
-5.46657e-08
1.85459e-08
-5.74762e-08
-2.4626e-08
2.15018e-08
4.90392e-09
-2.2269e-08
2.20171e-08
-1.89703e-08
-1.83466e-08
2.21469e-08
-2.39556e-08
-9.63649e-09
2.24822e-08
-3.91181e-08
2.25532e-08
-4.1856e-08
-2.44828e-08
2.38264e-08
9.61464e-09
-2.21389e-08
2.43777e-08
-1.40327e-08
-1.82413e-08
2.4521e-08
-1.89616e-08
-9.58231e-09
2.48807e-08
-3.39875e-08
2.49607e-08
-3.66941e-08
-2.39316e-08
3.25105e-08
-2.16252e-08
9.66275e-09
-1.78227e-08
4.96206e-09
-9.35573e-09
-9.55323e-09
-1.21362e-08
-3.67203e-08
1.33204e-08
-1.81024e-08
-3.32437e-08
1.37405e-08
-5.41734e-08
-2.73946e-08
1.38562e-08
-6.18084e-08
-1.43893e-08
1.41266e-08
-8.47559e-08
1.41897e-08
-8.89553e-08
-3.65587e-08
2.56489e-08
-1.4323e-08
-3.30931e-08
2.63914e-08
-5.01754e-08
-2.72672e-08
2.66057e-08
-5.77572e-08
-1.43268e-08
2.70889e-08
-8.05756e-08
2.72104e-08
-8.47463e-08
-3.59209e-08
3.12201e-08
6.85395e-09
-3.25152e-08
3.21143e-08
-2.81034e-08
-2.67867e-08
3.23652e-08
-3.54483e-08
-1.40694e-08
3.29387e-08
-5.76905e-08
3.30802e-08
-6.1731e-08
-3.56529e-08
3.4579e-08
1.37133e-08
-3.22626e-08
3.55399e-08
-2.08529e-08
-2.65731e-08
3.58046e-08
-2.80946e-08
-1.39585e-08
3.64328e-08
-5.01004e-08
3.65834e-08
-5.40881e-08
-3.46935e-08
4.69421e-08
-3.13763e-08
1.37708e-08
-2.58465e-08
6.92097e-09
-1.35671e-08
-1.41861e-08
-1.79532e-08
-5.38042e-08
1.96287e-08
-2.65189e-08
-4.86978e-08
2.0267e-08
-7.95921e-08
-4.00735e-08
2.04399e-08
-9.09261e-08
-2.1047e-08
2.086e-08
-1.24694e-07
2.09495e-08
-1.30985e-07
-5.35572e-08
3.75012e-08
-2.10032e-08
-4.84754e-08
3.86898e-08
-7.36849e-08
-3.98881e-08
3.90214e-08
-8.49314e-08
-2.09586e-08
3.98011e-08
-1.18453e-07
3.99874e-08
-1.24691e-07
-5.25485e-08
4.56014e-08
9.6955e-09
-4.75361e-08
4.706e-08
-4.14911e-08
-3.91086e-08
4.74607e-08
-5.232e-08
-2.05395e-08
4.83992e-08
-8.4863e-08
4.86214e-08
-9.08535e-08
-5.21103e-08
5.04931e-08
1.96673e-08
-4.71352e-08
5.20502e-08
-3.0823e-08
-3.87764e-08
5.24881e-08
-4.14853e-08
-2.03657e-08
5.34949e-08
-7.36111e-08
5.3742e-08
-7.95127e-08
-5.05534e-08
6.7886e-08
-4.5678e-08
1.97264e-08
-3.75906e-08
9.76104e-09
-1.9732e-08
-2.08665e-08
-2.63747e-08
-7.92086e-08
2.85102e-08
-3.86368e-08
-7.18054e-08
2.96729e-08
-1.16728e-07
-5.90569e-08
2.99966e-08
-1.33737e-07
-3.1036e-08
3.07556e-08
-1.83523e-07
3.09239e-08
-1.92972e-07
-7.87585e-08
5.44255e-08
-3.05675e-08
-7.13777e-08
5.65686e-08
-1.07966e-07
-5.87081e-08
5.71932e-08
-1.24802e-07
-3.08679e-08
5.86152e-08
-1.74158e-07
5.89616e-08
-1.83533e-07
-7.69188e-08
6.62518e-08
1.37644e-08
-6.96815e-08
6.88667e-08
-6.1031e-08
-5.72875e-08
6.96062e-08
-7.71309e-08
-3.01146e-08
7.13005e-08
-1.24725e-07
7.17242e-08
-1.33669e-07
-7.61414e-08
7.32887e-08
2.83393e-08
-6.89412e-08
7.6091e-08
-4.52521e-08
-5.6663e-08
7.68667e-08
-6.10279e-08
-2.97924e-08
7.87019e-08
-1.07887e-07
7.91468e-08
-1.16656e-07
-7.33399e-08
9.79846e-08
-6.63302e-08
2.84063e-08
-5.45276e-08
1.38347e-08
-2.86436e-08
-3.04191e-08
-3.84945e-08
-1.1613e-07
4.16457e-08
-5.61141e-08
-1.05287e-07
4.35022e-08
-1.7104e-07
-8.64773e-08
4.40002e-08
-1.96533e-07
-4.55529e-08
4.52159e-08
-2.69655e-07
4.54967e-08
-2.8403e-07
-1.15357e-07
7.92192e-08
-4.42148e-08
-1.04612e-07
8.26679e-08
-1.57879e-07
-8.5912e-08
8.36373e-08
-1.83141e-07
-4.52712e-08
8.58721e-08
-2.55456e-07
8.64381e-08
-2.69684e-07
-1.12452e-07
9.64641e-08
1.96985e-08
-1.01923e-07
1.00692e-07
-8.95877e-08
-8.36761e-08
1.01893e-07
-1.13635e-07
-4.40573e-08
1.04581e-07
-1.83055e-07
1.05256e-07
-1.96476e-07
-1.11121e-07
1.06609e-07
4.1087e-08
-1.00723e-07
1.11107e-07
-6.60689e-08
-8.27075e-08
1.12438e-07
-8.95918e-08
-4.35591e-08
1.15341e-07
-1.57798e-07
1.16113e-07
-1.70991e-07
-1.06623e-07
1.41564e-07
-9.64959e-08
4.11599e-08
-7.92616e-08
1.97674e-08
-4.1708e-08
-4.40592e-08
-5.59905e-08
-1.7118e-07
6.03923e-08
-8.10109e-08
-1.55884e-07
6.37369e-08
-2.50012e-07
-1.28103e-07
6.46904e-08
-2.88962e-07
-6.76017e-08
6.70434e-08
-3.9716e-07
6.75596e-08
-4.19193e-07
-1.69861e-07
1.14702e-07
-6.34115e-08
-1.54604e-07
1.20867e-07
-2.30268e-07
-1.27035e-07
1.22695e-07
-2.68716e-07
-6.7083e-08
1.27018e-07
-3.75382e-07
1.28082e-07
-3.97227e-07
-1.64632e-07
1.39901e-07
2.83711e-08
-1.49651e-07
1.47477e-07
-1.31182e-07
-1.22709e-07
1.49647e-07
-1.67531e-07
-6.47331e-08
1.54599e-07
-2.68611e-07
1.55875e-07
-2.88927e-07
-1.62338e-07
1.54347e-07
5.99852e-08
-1.47482e-07
1.62358e-07
-9.5808e-08
-1.20883e-07
1.64651e-07
-1.31197e-07
-6.37828e-08
1.69878e-07
-2.3018e-07
1.71192e-07
-2.49995e-07
-1.54328e-07
2.04582e-07
-1.39907e-07
6.00727e-08
-1.14724e-07
2.84444e-08
-6.04493e-08
-6.32327e-08
-8.09062e-08
-2.52413e-07
8.859e-08
-1.16525e-07
-2.29436e-07
9.41096e-08
-3.66966e-07
-1.86095e-07
9.51263e-08
-4.27331e-07
-9.80872e-08
9.77879e-08
-5.82882e-07
9.80591e-08
-6.15342e-07
-2.50073e-07
1.67573e-07
-8.99473e-08
-2.27732e-07
1.77782e-07
-3.36283e-07
-1.85322e-07
1.80188e-07
-3.96187e-07
-9.78075e-08
1.85322e-07
-5.50429e-07
1.86085e-07
-5.82992e-07
-2.41884e-07
2.04465e-07
4.2067e-08
-2.20484e-07
2.16985e-07
-1.91786e-07
-1.80183e-07
2.20496e-07
-2.4814e-07
-9.51472e-08
2.27743e-07
-3.96069e-07
2.29441e-07
-4.27333e-07
-2.37749e-07
2.2446e-07
8.96593e-08
-2.16976e-07
2.37785e-07
-1.37383e-07
-1.77785e-07
2.41919e-07
-1.91813e-07
-9.41378e-08
2.5011e-07
-3.36196e-07
2.52445e-07
-3.67008e-07
-2.24425e-07
2.97202e-07
-2.04459e-07
8.9759e-08
-1.67583e-07
4.21394e-08
-8.86295e-08
-8.97537e-08
-1.16466e-07
-3.76265e-07
1.30357e-07
-1.63708e-07
-3.47588e-07
1.40305e-07
-5.35712e-07
-2.88915e-07
1.43684e-07
-6.29497e-07
-1.54348e-07
1.51937e-07
-8.69243e-07
1.54355e-07
-9.24093e-07
-3.7202e-07
2.45966e-07
-1.23879e-07
-3.43511e-07
2.64455e-07
-4.88941e-07
-2.84475e-07
2.70637e-07
-5.82176e-07
-1.51889e-07
2.8456e-07
-8.15637e-07
2.88961e-07
-8.69437e-07
-3.57132e-07
2.99637e-07
6.62554e-08
-3.29496e-07
3.22045e-07
-2.77013e-07
-2.70474e-07
3.29597e-07
-3.66123e-07
-1.43582e-07
3.43602e-07
-5.82003e-07
3.4767e-07
-6.2953e-07
-3.49254e-07
3.26411e-07
1.38284e-07
-3.21958e-07
3.49373e-07
-1.92009e-07
-2.64356e-07
3.5725e-07
-2.77069e-07
-1.40247e-07
3.72148e-07
-4.88851e-07
3.76387e-07
-5.35832e-07
-3.26292e-07
4.36194e-07
-2.99554e-07
1.38421e-07
-2.45904e-07
6.63477e-08
-1.3034e-07
-1.23634e-07
-1.63701e-07
-5.73841e-07
1.991e-07
-2.22443e-07
-5.51896e-07
2.20157e-07
-7.77442e-07
-4.7711e-07
2.33047e-07
-9.37058e-07
-2.62429e-07
2.54532e-07
-1.33827e-06
2.62371e-07
-1.44896e-06
-5.64005e-07
3.7076e-07
-1.59306e-07
-5.39012e-07
4.06678e-07
-7.00452e-07
-4.64387e-07
4.31418e-07
-8.5517e-07
-2.54534e-07
4.64426e-07
-1.23538e-06
4.77041e-07
-1.33855e-06
-5.37633e-07
4.47443e-07
1.17765e-07
-5.1065e-07
4.89827e-07
-3.87144e-07
-4.31159e-07
5.10841e-07
-5.25035e-07
-2.32891e-07
5.39119e-07
-8.54961e-07
5.51888e-07
-9.37137e-07
-5.19641e-07
4.77759e-07
2.27959e-07
-4.89705e-07
5.19767e-07
-2.51883e-07
-4.06445e-07
5.37757e-07
-3.87244e-07
-2.19944e-07
5.64137e-07
-7.00366e-07
5.73944e-07
-7.77643e-07
-4.77638e-07
6.51424e-07
-4.47347e-07
2.28129e-07
-3.70666e-07
1.17868e-07
-1.99007e-07
-1.59049e-07
-2.22534e-07
-8.87575e-07
3.06757e-07
-2.77335e-07
-9.17244e-07
3.5158e-07
-1.09876e-06
-8.66546e-07
3.77608e-07
-1.36491e-06
-4.78799e-07
4.54289e-07
-2.17991e-06
4.78971e-07
-2.40683e-06
-8.61783e-07
5.58887e-07
-1.77081e-07
-8.76091e-07
6.40275e-07
-9.74834e-07
-8.12092e-07
6.87242e-07
-1.2288e-06
-4.54113e-07
8.12333e-07
-1.9514e-06
8.66801e-07
-2.18047e-06
-8.03239e-07
6.59849e-07
2.2495e-07
-7.8789e-07
7.3998e-07
-5.02195e-07
-6.86822e-07
7.88536e-07
-7.27393e-07
-3.7737e-07
8.76462e-07
-1.22854e-06
9.17427e-07
-1.36504e-06
-7.63598e-07
6.87343e-07
3.85846e-07
-7.39597e-07
7.63975e-07
-2.99877e-07
-6.39721e-07
8.03731e-07
-5.02312e-07
-3.51133e-07
8.62217e-07
-9.74704e-07
8.87815e-07
-1.099e-06
-6.86976e-07
9.62242e-07
-6.59466e-07
3.86104e-07
-5.58357e-07
2.25101e-07
-3.06226e-07
-1.76692e-07
-2.77361e-07
-1.39513e-06
4.63013e-07
-2.86101e-07
-1.37247e-06
5.62715e-07
-1.68333e-06
-1.09114e-06
5.9151e-07
-2.23712e-06
-5.73337e-07
5.81098e-07
-3.27836e-06
5.73581e-07
-3.55394e-06
-1.31587e-06
8.24384e-07
-1.4503e-07
-1.33489e-06
9.89198e-07
-1.3823e-06
-1.10818e-06
1.08541e-06
-1.9494e-06
-5.8056e-07
1.10878e-06
-3.0067e-06
1.09128e-06
-3.2787e-06
-1.19479e-06
9.48981e-07
4.18471e-07
-1.18948e-06
1.10074e-06
-6.1904e-07
-1.08473e-06
1.19017e-06
-9.36905e-07
-5.9091e-07
1.33531e-06
-1.94888e-06
1.37256e-06
-2.23704e-06
-1.11362e-06
9.61202e-07
6.41989e-07
-1.10029e-06
1.11394e-06
-3.26401e-07
-9.88492e-07
1.19523e-06
-6.19162e-07
-5.62157e-07
1.31627e-06
-1.382e-06
1.39534e-06
-1.68364e-06
-9.60948e-07
1.35186e-06
-9.48655e-07
6.42286e-07
-8.23772e-07
4.1857e-07
-4.6232e-07
-1.44516e-07
-2.8594e-07
-1.91715e-06
5.98146e-07
-3.48576e-07
-1.70233e-06
6.90926e-07
-2.58807e-06
-1.3268e-06
6.91631e-07
-3.30341e-06
-7.18734e-07
7.1497e-07
-4.60069e-06
7.19296e-07
-4.99219e-06
-1.86731e-06
1.09532e-06
-1.31171e-07
-1.68233e-06
1.33802e-06
-2.21436e-06
-1.32219e-06
1.31166e-06
-2.92957e-06
-7.14306e-07
1.32293e-06
-4.22255e-06
1.32736e-06
-4.60124e-06
-1.6714e-06
1.29087e-06
6.37313e-07
-1.62265e-06
1.51738e-06
-8.47149e-07
-1.3106e-06
1.62362e-06
-1.56091e-06
-6.90829e-07
1.68292e-06
-2.92863e-06
1.70271e-06
-3.30321e-06
-1.55133e-06
1.31427e-06
9.59274e-07
-1.51653e-06
1.55209e-06
-3.959e-07
-1.33669e-06
1.67218e-06
-8.47557e-07
-6.90029e-07
1.86813e-06
-2.21387e-06
1.91765e-06
-2.58847e-06
-1.31357e-06
1.83265e-06
-1.29016e-06
9.59724e-07
-1.09443e-06
6.37427e-07
-5.97384e-07
-1.30327e-07
-3.4848e-07
-2.63661e-06
8.29006e-07
-5.7216e-07
-2.40425e-06
9.34953e-07
-3.7544e-06
-1.89018e-06
9.65471e-07
-4.78213e-06
-1.05624e-06
1.02758e-06
-6.46164e-06
1.05646e-06
-7.1051e-06
-2.58546e-06
1.48254e-06
-1.81438e-07
-2.35698e-06
1.70845e-06
-3.21634e-06
-1.85078e-06
1.74252e-06
-4.21282e-06
-1.0273e-06
1.85102e-06
-5.86947e-06
1.89026e-06
-6.46236e-06
-2.4133e-06
1.81651e-06
8.54534e-07
-2.22603e-06
2.16706e-06
-1.49302e-06
-1.74224e-06
2.22622e-06
-2.52839e-06
-9.65197e-07
2.35713e-06
-4.21179e-06
2.40417e-06
-4.78204e-06
-2.20678e-06
1.95858e-06
1.27052e-06
-2.16675e-06
2.20702e-06
-4.75883e-07
-1.70798e-06
2.41365e-06
-1.49376e-06
-9.34592e-07
2.5857e-06
-3.21582e-06
2.63652e-06
-3.75495e-06
-1.95835e-06
2.60306e-06
-1.8163e-06
1.27094e-06
-1.4822e-06
8.5457e-07
-8.28717e-07
-1.80564e-07
-5.72471e-07
-3.64024e-06
1.22034e-06
-1.07887e-06
-3.45535e-06
1.3504e-06
-5.28811e-06
-2.79348e-06
1.41152e-06
-6.85412e-06
-1.598e-06
1.53466e-06
-9.19058e-06
1.59899e-06
-1.03024e-05
-3.59503e-06
2.08794e-06
-3.09095e-07
-3.36917e-06
2.41386e-06
-4.50565e-06
-2.70101e-06
2.51071e-06
-5.98017e-06
-1.53369e-06
2.70212e-06
-8.20426e-06
2.79451e-06
-9.19194e-06
-3.34112e-06
2.56372e-06
1.07275e-06
-3.13506e-06
3.00623e-06
-2.29145e-06
-2.50952e-06
3.13622e-06
-3.77943e-06
-1.41055e-06
3.37027e-06
-5.97891e-06
3.45623e-06
-6.85436e-06
-3.13358e-06
2.73208e-06
1.74507e-06
-3.00506e-06
3.1349e-06
-7.33072e-07
-2.4126e-06
3.34251e-06
-2.29249e-06
-1.34942e-06
3.59639e-06
-4.50511e-06
3.64113e-06
-5.28904e-06
-2.73072e-06
3.64899e-06
-2.56251e-06
1.74573e-06
-2.08662e-06
1.07278e-06
-1.21934e-06
-3.07862e-07
-1.07982e-06
-5.43507e-06
1.81103e-06
-1.80881e-06
-5.49409e-06
2.07574e-06
-7.30337e-06
-4.6918e-06
2.3028e-06
-9.95799e-06
-2.83257e-06
2.61286e-06
-1.36621e-05
2.83232e-06
-1.59673e-05
-5.2599e-06
3.17224e-06
-6.16841e-07
-5.21171e-06
3.61684e-06
-6.09494e-06
-4.38259e-06
3.90193e-06
-8.40842e-06
-2.61318e-06
4.38256e-06
-1.17434e-05
4.69203e-06
-1.36644e-05
-4.91301e-06
3.84068e-06
1.42444e-06
-4.77129e-06
4.4619e-06
-3.27822e-06
-3.90207e-06
4.77127e-06
-5.51798e-06
-2.30301e-06
5.21178e-06
-8.40717e-06
5.49432e-06
-9.95883e-06
-4.6531e-06
4.00422e-06
2.56614e-06
-4.46183e-06
4.65337e-06
-1.11581e-06
-3.61671e-06
4.91322e-06
-3.27957e-06
-2.07561e-06
5.25996e-06
-6.09439e-06
5.43478e-06
-7.3044e-06
-4.00395e-06
5.29906e-06
-3.84067e-06
2.56689e-06
-3.17213e-06
1.42416e-06
-1.81117e-06
-6.156e-07
-1.81077e-06
-8.21219e-06
2.57879e-06
-2.541e-06
-8.51641e-06
3.13483e-06
-1.01316e-05
-7.30038e-06
3.54824e-06
-1.47201e-05
-4.40901e-06
4.08743e-06
-2.06393e-05
4.41007e-06
-2.47866e-05
-7.83412e-06
4.41243e-06
-6.91407e-07
-7.98666e-06
5.35592e-06
-8.16348e-06
-6.79104e-06
5.97398e-06
-1.20298e-05
-4.08645e-06
6.79269e-06
-1.71532e-05
7.3021e-06
-2.06428e-05
-7.09878e-06
5.33018e-06
2.06836e-06
-7.09649e-06
6.48207e-06
-4.40665e-06
-5.97225e-06
7.0984e-06
-7.76663e-06
-3.54719e-06
7.98852e-06
-1.20281e-05
8.51824e-06
-1.47216e-05
-6.50252e-06
5.49775e-06
3.81867e-06
-6.48034e-06
6.5048e-06
-1.16071e-06
-5.35436e-06
7.10122e-06
-4.40836e-06
-3.13386e-06
7.83672e-06
-8.16309e-06
8.2144e-06
-1.01338e-05
-5.49534e-06
7.56556e-06
-5.32819e-06
3.81971e-06
-4.41049e-06
2.06798e-06
-2.57776e-06
-6.89414e-07
-2.54378e-06
-1.32621e-05
4.06805e-06
-3.12322e-06
-1.46854e-05
5.26932e-06
-1.39758e-05
-1.30189e-05
6.32477e-06
-2.27097e-05
-8.5053e-06
7.37042e-06
-3.25234e-05
8.50352e-06
-4.1795e-05
-1.22451e-05
6.93225e-06
-4.9422e-07
-1.33553e-05
8.65759e-06
-1.04416e-05
-1.16471e-05
1.01386e-05
-1.75518e-05
-7.37259e-06
1.16457e-05
-2.5703e-05
1.30179e-05
-3.25283e-05
-1.08774e-05
8.20105e-06
3.44828e-06
-1.16643e-05
1.01101e-05
-5.07227e-06
-1.01398e-05
1.16634e-05
-1.08158e-05
-6.32658e-06
1.33541e-05
-1.75497e-05
1.46846e-05
-2.27124e-05
-9.83261e-06
8.06316e-06
6.29154e-06
-1.01111e-05
9.83252e-06
-6.04709e-07
-8.65904e-06
1.08774e-05
-5.07436e-06
-5.27117e-06
1.22449e-05
-1.04417e-05
1.32628e-05
-1.39805e-05
-8.06313e-06
1.13295e-05
-8.20195e-06
6.2929e-06
-6.93351e-06
3.44759e-06
-4.06879e-06
-4.9354e-07
-3.12704e-06
-1.96329e-05
5.72691e-06
-3.34065e-06
-2.19966e-05
7.74076e-06
-1.93494e-05
-1.99416e-05
9.31423e-06
-3.40758e-05
-1.29437e-05
1.14972e-05
-5.10166e-05
1.29442e-05
-6.7683e-05
-1.79398e-05
9.48619e-06
7.23742e-07
-1.97552e-05
1.24637e-05
-1.33492e-05
-1.76222e-05
1.48242e-05
-2.51948e-05
-1.14963e-05
1.76242e-05
-3.7956e-05
1.99433e-05
-5.10231e-05
-1.5643e-05
1.1144e-05
5.95429e-06
-1.68763e-05
1.44604e-05
-5.8357e-06
-1.48222e-05
1.68792e-05
-1.49249e-05
-9.31335e-06
1.97578e-05
-2.51921e-05
2.19989e-05
-3.40798e-05
-1.35983e-05
1.08543e-05
1.00958e-05
-1.4458e-05
1.36021e-05
1.11333e-06
-1.24619e-05
1.56473e-05
-5.83842e-06
-7.74003e-06
1.7944e-05
-1.33498e-05
1.96361e-05
-1.9356e-05
-1.08502e-05
1.64983e-05
-1.11409e-05
1.00977e-05
-9.48401e-06
5.95409e-06
-5.72564e-06
7.24429e-07
-3.34669e-06
-3.29019e-05
9.69104e-06
-2.03922e-06
-3.96066e-05
1.31801e-05
-2.5823e-05
-3.83116e-05
1.78496e-05
-5.32181e-05
-2.87693e-05
2.19869e-05
-8.25473e-05
2.87652e-05
-0.000125216
-2.91321e-05
1.51895e-05
4.45289e-06
-3.3751e-05
2.03102e-05
-1.58604e-05
-3.12687e-05
2.58772e-05
-3.57048e-05
-2.19938e-05
3.12638e-05
-5.65077e-05
3.83088e-05
-8.2558e-05
-2.51065e-05
1.70364e-05
1.19703e-05
-2.84257e-05
2.31747e-05
-5.38102e-06
-2.58811e-05
2.84228e-05
-2.00151e-05
-1.78548e-05
3.37472e-05
-3.57018e-05
3.96042e-05
-5.3225e-05
-2.0857e-05
1.56561e-05
1.75328e-05
-2.31776e-05
2.08564e-05
5.75228e-06
-2.03144e-05
2.5106e-05
-5.38485e-06
-1.31853e-05
2.91306e-05
-1.58622e-05
3.29005e-05
-2.58329e-05
-1.56569e-05
2.49307e-05
-1.70394e-05
1.75359e-05
-1.5194e-05
1.19709e-05
-9.69587e-06
4.45237e-06
-2.04908e-06
-4.76862e-05
1.23255e-05
1.73825e-06
-5.94013e-05
1.94195e-05
-3.35238e-05
-5.99435e-05
2.57327e-05
-7.84055e-05
-4.28996e-05
3.60404e-05
-0.000135631
4.28942e-05
-0.000211008
-4.07771e-05
1.94843e-05
1.09877e-05
-4.93386e-05
2.857e-05
-1.64494e-05
-4.84296e-05
3.75826e-05
-4.84636e-05
-3.60401e-05
4.84314e-05
-8.12882e-05
5.99422e-05
-0.000135643
-3.37853e-05
2.21264e-05
1.99737e-05
-3.97302e-05
3.14671e-05
-2.33315e-06
-3.7582e-05
3.97338e-05
-2.43145e-05
-2.57339e-05
4.93425e-05
-4.84611e-05
5.94029e-05
-7.84156e-05
-2.70913e-05
2.02066e-05
2.75993e-05
-3.14641e-05
2.70961e-05
1.44961e-05
-2.85694e-05
3.37922e-05
-2.3379e-06
-1.94202e-05
4.07849e-05
-1.64538e-05
4.76913e-05
-3.35377e-05
-2.0201e-05
3.61086e-05
-2.21206e-05
2.76008e-05
-1.94821e-05
1.99778e-05
-1.23243e-05
1.09876e-05
1.72506e-06
-8.09333e-05
2.15871e-05
1.33947e-05
-0.000110882
3.28368e-05
-3.64122e-05
-0.000127761
5.32737e-05
-0.000114797
-0.000115986
7.14133e-05
-0.000218826
0.000115984
-0.000442972
-6.57723e-05
3.08385e-05
2.64737e-05
-8.46395e-05
4.66261e-05
-1.13715e-05
-8.84197e-05
6.77699e-05
-5.91796e-05
-7.14348e-05
8.84055e-05
-0.000115265
0.000127757
-0.000218849
-5.29543e-05
3.31637e-05
3.70081e-05
-6.74282e-05
4.8813e-05
9.95381e-06
-6.77788e-05
6.7421e-05
-2.3615e-05
-5.32851e-05
8.46288e-05
-5.91781e-05
0.00011088
-0.000114814
-4.03835e-05
2.83864e-05
4.56986e-05
-4.88216e-05
4.03788e-05
3.13685e-05
-4.66351e-05
5.29492e-05
9.94731e-06
-3.28491e-05
6.57656e-05
-1.13766e-05
8.09271e-05
-3.64266e-05
-2.83911e-05
5.41511e-05
-3.31727e-05
4.57012e-05
-3.08478e-05
3.7009e-05
-2.15998e-05
2.6472e-05
1.33715e-05
-0.000114307
2.52688e-05
3.31669e-05
-0.000169678
4.98831e-05
-3.09212e-05
-0.000205361
7.46834e-05
-0.000153797
-0.000164565
0.000130654
-0.000390276
0.000164523
-0.000772049
-8.71137e-05
3.73927e-05
4.87261e-05
-0.000121749
6.31413e-05
1.00051e-05
-0.000143343
9.66871e-05
-5.95893e-05
-0.000130654
0.000143342
-0.000140642
0.000205348
-0.000390317
-6.67317e-05
3.96278e-05
5.85829e-05
-8.9975e-05
6.1316e-05
3.50224e-05
-9.66937e-05
8.99734e-05
-1.01826e-05
-7.46925e-05
0.00012175
-5.95874e-05
0.000169671
-0.000153818
-4.91565e-05
3.34648e-05
6.88503e-05
-6.13172e-05
4.91584e-05
5.56868e-05
-6.31462e-05
6.67329e-05
3.50167e-05
-4.98869e-05
8.71207e-05
9.99373e-06
0.000114308
-3.09421e-05
-3.34625e-05
7.58328e-05
-3.96264e-05
6.88503e-05
-3.73914e-05
5.85803e-05
-2.52682e-05
4.87243e-05
3.31455e-05
-0.000188206
4.27912e-05
8.27855e-05
-0.000311891
7.57782e-05
1.69773e-05
-0.000497177
0.000155599
-0.000124109
-0.000564895
0.000244865
-0.000567457
0.000564949
-0.00045898
-0.000646193
-0.000337673
-0.000459024
-0.000133238
5.5283e-05
9.33888e-05
-0.000202062
9.43928e-05
6.02143e-05
-0.000258507
0.000171425
-1.89695e-05
-0.000244937
0.000258467
-0.000167814
0.000497175
-0.000567499
-9.89519e-05
5.49749e-05
0.000100317
-0.00014191
8.9151e-05
8.32219e-05
-0.000171445
0.000141898
4.88793e-05
-0.000155622
0.000202039
-1.89825e-05
0.000311906
-0.000124161
-6.81718e-05
4.36338e-05
0.000105595
-8.91668e-05
6.81597e-05
9.76731e-05
-9.44143e-05
9.89383e-05
8.32245e-05
-7.58049e-05
0.00013322
6.02028e-05
0.000188198
1.6971e-05
-4.36459e-05
0.000108219
-5.49905e-05
0.000105593
-5.53034e-05
0.000100312
-4.28118e-05
9.33753e-05
8.27573e-05
-0.000250613
4.38137e-05
0.000156757
-0.000510577
0.000108374
0.000168571
-0.00101131
0.00021214
0.000164489
-0.000256827
0.000565637
-0.000102088
-0.000321702
-3.16534e-05
-0.000183254
-0.00021779
-0.000597855
-0.000433197
-0.000194585
0.000154836
-0.000676136
-0.000159192
5.70482e-05
0.000155555
-0.00025707
0.000115785
0.000150681
-0.000452456
0.000224478
0.000164079
-0.000565642
0.000452435
5.8574e-05
0.00101126
-0.000183309
-0.000321751
-3.16185e-05
-0.000101956
-0.000217859
-0.000256854
-0.000433175
-0.000597832
-0.000110597
5.42074e-05
0.000149331
-0.000167032
9.7322e-05
0.00015812
-0.000224497
0.000167016
0.000163807
-0.00021215
0.000257058
0.000164048
0.000510552
0.000164411
-7.12291e-05
4.2447e-05
0.000146156
-9.73342e-05
7.12203e-05
0.00014988
-0.000115803
0.000110584
0.000158125
-0.000108391
0.00015918
0.000150669
0.000250585
0.000168565
-4.24562e-05
0.000139539
-5.42207e-05
0.000146151
-5.70681e-05
0.000149326
-4.38318e-05
0.000155532
0.000156711
-0.000310201
5.5698e-05
0.000271588
-0.000633415
0.000111292
0.000380473
-0.000409802
0.000298142
0.000691209
-0.000304769
-0.000407577
-0.000336165
-0.000735029
0.000122502
0.000100582
0.000287255
0.000221897
-0.000344924
9.92483e-05
-0.000263479
-0.000202384
6.57092e-05
0.000238981
-0.000387572
0.000138346
0.000308815
-0.000688986
0.000299952
0.000463683
-0.000354029
0.000688919
0.000229342
-0.000166055
-0.000353971
-0.000208161
-0.000429948
-0.000166095
-0.000430128
-0.000208074
0.000341417
0.000197012
0.000229359
-0.000204576
-0.000303694
0.000497961
9.15179e-05
-0.000201612
-0.000198897
-0.000218037
-0.000127121
5.9146e-05
0.000214124
-0.000208397
0.000115719
0.000262022
-0.000300033
0.000208367
0.000347028
-0.000298243
0.00038754
0.000463637
0.000633364
0.000691209
-0.000304709
-0.000409801
-0.000336177
-0.000407716
-7.98187e-05
4.36342e-05
0.00019307
-0.000115747
7.97931e-05
0.000221734
-0.000138371
0.000127086
0.00026203
-0.000111319
0.00020235
0.000308806
0.000310175
0.000380449
-4.36634e-05
0.000175342
-5.91779e-05
0.000193061
-6.57574e-05
0.000214128
-5.575e-05
0.000238952
0.000271553
-9.51013e-05
1.86486e-05
0.000283435
-0.000136486
3.84247e-05
0.000383424
-0.00023265
5.18611e-05
0.000587431
-0.000158987
0.000205528
0.000101486
-0.000460047
5.35824e-05
0.000556089
-3.89538e-05
-0.000154481
-0.000147994
-4.08324e-05
0.000828636
0.00032629
-5.18725e-05
0.000180022
-0.00128304
-7.9048e-05
2.51069e-05
0.00025604
-0.000121818
5.62804e-05
0.00033373
-0.000109361
7.21081e-05
0.000443061
-7.16826e-05
6.06877e-05
-1.08798e-06
-7.8092e-05
-0.000150843
8.30744e-05
0.000265842
-0.000171872
-0.000163623
9.12359e-05
-0.00010551
0.000118113
0.000231656
-5.2579e-05
2.48727e-05
0.000232426
-6.87761e-05
5.14041e-05
0.000283095
-7.21664e-05
6.87264e-05
0.0003538
-5.19672e-05
0.000121785
0.000443037
-7.16496e-05
-0.000109342
-1.08745e-06
6.0694e-05
0.000136468
0.000587422
-0.000158963
-0.000232591
0.000101471
0.000205479
-3.95685e-05
2.00395e-05
0.000210551
-5.14332e-05
3.95401e-05
0.000245462
-5.63181e-05
5.25419e-05
0.000283099
-3.84661e-05
7.90177e-05
0.000333721
9.50516e-05
0.000383427
-2.00707e-05
0.000190249
-2.48947e-05
0.000210525
-2.51185e-05
0.000232415
-1.86558e-05
0.000256012
0.000283429
5.52444e-05
-7.54189e-06
0.000231621
0.000169082
-1.0693e-05
0.00028028
0.000283805
-0.000102414
0.000176456
0.000202588
0.000120487
7.5494e-05
-0.000284867
0.000702703
-9.60688e-05
-3.77628e-05
0.000533199
-0.000507149
0.000520246
-0.000165985
-0.000380208
1.57674e-05
-3.46474e-06
0.000231226
7.12668e-05
-6.77637e-06
0.000274314
0.000223157
-7.45234e-05
0.00026328
0.000295215
-0.0002232
0.000102155
-0.000173833
-0.00026442
-0.000145626
-0.000173859
0.000102378
0.000295326
4.10356e-05
0.000112244
0.000102351
0.000112368
4.10227e-05
-8.08028e-05
0.000193405
0.000320571
-0.00042371
-0.000202435
-8.55012e-05
-8.22778e-05
-8.39286e-05
0.000333499
0.000151718
0.000254677
2.66002e-06
1.69764e-06
0.000218354
2.6435e-05
1.77925e-06
0.000250765
7.44515e-05
-2.63625e-05
0.000257623
0.00010237
-7.13141e-05
0.000263233
-0.000169142
0.000176354
0.000202654
0.000283768
7.54679e-05
0.000120609
-6.92756e-06
3.44348e-06
0.000208579
-1.82001e-06
6.87745e-06
0.000235257
6.86378e-06
-2.74131e-06
0.000250794
1.07433e-05
-1.58269e-05
0.000274355
-5.53011e-05
0.000280364
-3.50091e-06
0.00019027
-1.75481e-06
0.000208544
3.39525e-06
0.000218328
7.48761e-06
0.000231187
0.000231607
-4.195e-05
-1.19039e-06
0.000265085
-0.000121229
5.37111e-06
0.000354171
-5.54117e-05
6.97777e-05
0.000509683
-3.74237e-05
-0.000269424
-0.000161986
0.000154824
-0.000125702
2.01859e-05
-0.000104686
0.00154637
0.000266684
-0.00026418
0.00015592
-0.000484722
-0.000349451
-0.000306012
-0.000564619
-1.46766e-05
-8.19657e-06
0.000243058
-5.9478e-05
5.75506e-06
0.000318731
-0.000179504
4.50392e-05
0.000408045
-5.48441e-05
0.000179339
0.00013856
-2.92724e-05
-5.48635e-05
-7.02115e-05
-0.000251223
-2.91824e-05
-0.000251218
-7.01973e-05
0.000158922
0.000118046
0.000138795
0.000348642
-0.000154604
-4.5942e-05
7.73489e-05
-0.000280289
4.0011e-06
-1.26133e-05
0.00022235
-7.96158e-06
-4.05977e-06
0.000272542
-4.51405e-05
7.89351e-06
0.000331947
-6.99294e-05
5.941e-05
0.000407951
0.000121063
0.000509825
-3.75252e-05
-5.53916e-05
-0.000162101
-0.000269379
6.65862e-06
-1.21765e-05
0.000204072
4.02421e-06
-6.67876e-06
0.00024051
-5.78393e-06
-4.09318e-06
0.000272589
-5.37472e-06
1.46108e-05
0.000318745
4.18703e-05
0.000354226
1.21077e-05
0.000184139
1.25491e-05
0.000204064
8.1113e-06
0.000222329
1.12243e-06
0.000243004
0.000265091
2.5084e-05
-6.81503e-06
0.000290602