/*--------------------------------*- C++ -*----------------------------------*\
| =========                 |                                                 |
| \\      /  F ield         | OpenFOAM: The Open Source CFD Toolbox           |
|  \\    /   O peration     | Version:  5.x                                   |
|   \\  /    A nd           | Web:      www.OpenFOAM.org                      |
|    \\/     M anipulation  |                                                 |
\*---------------------------------------------------------------------------*/
FoamFile
{
    version     2.0;
    format      ascii;
    class       volVectorField;
    location    "0.003";
    object      U;
}
// * * * * * * * * * * * * * * * * * * * * * * * * * * * * * * * * * * * * * //

dimensions      [0 1 -1 0 0 0 0];

internalField   nonuniform List<vector> 
1567
(
(-6.56916e-09 -6.56931e-09 -0.000391217)
(3.84734e-09 -4.42122e-09 -0.000391214)
(9.4859e-09 -2.70392e-09 -0.000391211)
(1.39017e-08 -1.52129e-09 -0.00039121)
(9.01448e-09 -5.01023e-10 -0.000391223)
(-4.42081e-09 3.84712e-09 -0.000391214)
(5.59607e-09 5.59593e-09 -0.000391212)
(1.06857e-08 6.76797e-09 -0.00039121)
(1.48488e-08 7.65033e-09 -0.000391209)
(9.44114e-09 8.41663e-09 -0.000391222)
(-2.70397e-09 9.48593e-09 -0.000391211)
(6.76818e-09 1.06858e-08 -0.00039121)
(1.15403e-08 1.15403e-08 -0.000391208)
(1.5548e-08 1.21507e-08 -0.000391207)
(9.78104e-09 1.27071e-08 -0.00039122)
(-1.52123e-09 1.39014e-08 -0.00039121)
(7.6507e-09 1.48486e-08 -0.000391209)
(1.21505e-08 1.55481e-08 -0.000391207)
(1.60139e-08 1.60137e-08 -0.000391207)
(9.99782e-09 1.63981e-08 -0.00039122)
(-5.00669e-10 9.01438e-09 -0.000391223)
(8.41673e-09 9.44083e-09 -0.000391222)
(1.27071e-08 9.78084e-09 -0.00039122)
(1.63982e-08 9.99749e-09 -0.00039122)
(1.01659e-08 1.01656e-08 -0.000391232)
(-5.86843e-09 -5.86836e-09 9.75091e-05)
(3.36646e-09 -3.57583e-09 9.75132e-05)
(1.06267e-08 -1.79409e-09 9.75204e-05)
(1.12563e-08 -6.3612e-10 9.75279e-05)
(4.12559e-09 8.40975e-11 9.75408e-05)
(-3.57568e-09 3.36638e-09 9.75132e-05)
(5.21745e-09 5.21755e-09 9.75171e-05)
(1.19391e-08 6.60023e-09 9.75241e-05)
(1.209e-08 7.57204e-09 9.75315e-05)
(4.43758e-09 8.15063e-09 9.75443e-05)
(-1.79387e-09 1.06267e-08 9.75204e-05)
(6.60016e-09 1.1939e-08 9.75241e-05)
(1.2981e-08 1.29809e-08 9.75311e-05)
(1.28044e-08 1.37082e-08 9.75384e-05)
(4.70537e-09 1.41617e-08 9.75511e-05)
(-6.36159e-10 1.12564e-08 9.75279e-05)
(7.57176e-09 1.20901e-08 9.75315e-05)
(1.37083e-08 1.28046e-08 9.75384e-05)
(1.3269e-08 1.32692e-08 9.75456e-05)
(4.89152e-09 1.35525e-08 9.75582e-05)
(8.40801e-11 4.12584e-09 9.75408e-05)
(8.15038e-09 4.43773e-09 9.75443e-05)
(1.41618e-08 4.70527e-09 9.75511e-05)
(1.35525e-08 4.89166e-09 9.75582e-05)
(4.98888e-09 4.98905e-09 9.75708e-05)
(-1.95508e-09 -1.95497e-09 -0.000243205)
(1.51014e-08 2.60276e-11 -0.000243198)
(2.41303e-08 1.61714e-09 -0.000243185)
(3.43455e-08 2.54869e-09 -0.000243174)
(2.19708e-08 3.43797e-09 -0.000243157)
(2.60484e-11 1.51013e-08 -0.000243198)
(1.64866e-08 1.64866e-08 -0.000243191)
(2.50928e-08 1.7514e-08 -0.000243179)
(3.5096e-08 1.8181e-08 -0.000243168)
(2.23196e-08 1.87829e-08 -0.000243151)
(1.61723e-09 2.41303e-08 -0.000243185)
(1.75141e-08 2.50927e-08 -0.000243179)
(2.58247e-08 2.58246e-08 -0.000243166)
(3.56122e-08 2.62535e-08 -0.000243156)
(2.25733e-08 2.66405e-08 -0.000243139)
(2.54903e-09 3.43454e-08 -0.000243174)
(1.8181e-08 3.5096e-08 -0.000243168)
(2.62536e-08 3.56122e-08 -0.000243156)
(3.59105e-08 3.59103e-08 -0.000243146)
(2.27071e-08 3.61477e-08 -0.000243129)
(3.438e-09 2.19708e-08 -0.000243157)
(1.87828e-08 2.23195e-08 -0.000243151)
(2.66407e-08 2.25732e-08 -0.000243139)
(3.61477e-08 2.2707e-08 -0.000243129)
(2.28111e-08 2.2811e-08 -0.000243111)
(2.10494e-09 2.10503e-09 -2.95001e-05)
(2.33662e-08 3.87938e-09 -2.94893e-05)
(3.41804e-08 5.2295e-09 -2.94701e-05)
(3.96391e-08 5.96252e-09 -2.94517e-05)
(2.18823e-08 6.70238e-09 -2.94265e-05)
(3.87909e-09 2.33661e-08 -2.94893e-05)
(2.44202e-08 2.44202e-08 -2.94789e-05)
(3.4866e-08 2.52392e-08 -2.94601e-05)
(4.01753e-08 2.57268e-08 -2.94419e-05)
(2.21145e-08 2.61448e-08 -2.94169e-05)
(5.22958e-09 3.41804e-08 -2.94701e-05)
(2.52392e-08 3.48662e-08 -2.94601e-05)
(3.54869e-08 3.54868e-08 -2.94415e-05)
(4.05432e-08 3.57487e-08 -2.94235e-05)
(2.23004e-08 3.59838e-08 -2.93988e-05)
(5.96141e-09 3.96391e-08 -2.94517e-05)
(2.57269e-08 4.01753e-08 -2.94419e-05)
(3.57487e-08 4.05431e-08 -2.94235e-05)
(4.06709e-08 4.06708e-08 -2.94058e-05)
(2.23497e-08 4.07245e-08 -2.93813e-05)
(6.70244e-09 2.18824e-08 -2.94265e-05)
(2.61448e-08 2.21143e-08 -2.94169e-05)
(3.59839e-08 2.23005e-08 -2.93988e-05)
(4.07245e-08 2.23499e-08 -2.93813e-05)
(2.23543e-08 2.23544e-08 -2.9357e-05)
(9.90258e-09 9.9023e-09 -0.000155515)
(4.50329e-08 1.13472e-08 -0.000155498)
(6.17359e-08 1.24757e-08 -0.000155466)
(7.79727e-08 1.30316e-08 -0.000155436)
(4.72206e-08 1.36302e-08 -0.000155389)
(1.13474e-08 4.5033e-08 -0.000155498)
(4.56993e-08 4.56993e-08 -0.000155481)
(6.21474e-08 4.61191e-08 -0.00015545)
(7.83041e-08 4.63371e-08 -0.00015542)
(4.7348e-08 4.64759e-08 -0.000155373)
(1.24756e-08 6.17359e-08 -0.000155466)
(4.61193e-08 6.21473e-08 -0.00015545)
(6.2374e-08 6.2374e-08 -0.000155418)
(7.83278e-08 6.23663e-08 -0.000155389)
(4.73594e-08 6.2272e-08 -0.000155343)
(1.3032e-08 7.79725e-08 -0.000155436)
(4.63373e-08 7.83041e-08 -0.00015542)
(6.23662e-08 7.83277e-08 -0.000155389)
(7.82011e-08 7.8201e-08 -0.00015536)
(4.72534e-08 7.79235e-08 -0.000155314)
(1.36304e-08 4.72207e-08 -0.000155389)
(4.64762e-08 4.73481e-08 -0.000155373)
(6.2272e-08 4.73594e-08 -0.000155343)
(7.79232e-08 4.72533e-08 -0.000155314)
(4.70814e-08 4.70812e-08 -0.000155268)
(2.01262e-08 2.01262e-08 -8.78901e-05)
(7.22727e-08 2.12183e-08 -8.78652e-05)
(9.62697e-08 2.2104e-08 -8.78167e-05)
(1.16749e-07 2.24155e-08 -8.77706e-05)
(6.92504e-08 2.27987e-08 -8.77027e-05)
(2.12195e-08 7.22727e-08 -8.78652e-05)
(7.2607e-08 7.2607e-08 -8.78403e-05)
(9.62957e-08 7.25635e-08 -8.77924e-05)
(1.16812e-07 7.24883e-08 -8.77465e-05)
(6.9206e-08 7.21923e-08 -8.7679e-05)
(2.21041e-08 9.62697e-08 -8.78167e-05)
(7.25634e-08 9.62957e-08 -8.77924e-05)
(9.61512e-08 9.61511e-08 -8.77449e-05)
(1.16377e-07 9.57734e-08 -8.76996e-05)
(6.89536e-08 9.51654e-08 -8.76329e-05)
(2.24162e-08 1.16749e-07 -8.77706e-05)
(7.24883e-08 1.16811e-07 -8.77465e-05)
(9.57737e-08 1.16377e-07 -8.76996e-05)
(1.15825e-07 1.15825e-07 -8.76548e-05)
(6.85966e-08 1.14956e-07 -8.75887e-05)
(2.27995e-08 6.92502e-08 -8.77027e-05)
(7.21923e-08 6.92062e-08 -8.7679e-05)
(9.51657e-08 6.89536e-08 -8.76329e-05)
(1.14956e-07 6.85966e-08 -8.75887e-05)
(6.80827e-08 6.80826e-08 -8.75236e-05)
(3.63769e-08 3.63779e-08 -0.000120836)
(1.18462e-07 3.70937e-08 -0.000120797)
(1.56308e-07 3.77914e-08 -0.000120719)
(1.91978e-07 3.78468e-08 -0.000120646)
(1.1531e-07 3.79363e-08 -0.000120533)
(3.70937e-08 1.18463e-07 -0.000120797)
(1.18536e-07 1.18536e-07 -0.000120758)
(1.55911e-07 1.17873e-07 -0.000120681)
(1.9167e-07 1.17333e-07 -0.000120608)
(1.15022e-07 1.16297e-07 -0.000120496)
(3.77912e-08 1.56308e-07 -0.000120719)
(1.17874e-07 1.55911e-07 -0.000120681)
(1.55105e-07 1.55106e-07 -0.000120605)
(1.904e-07 1.54091e-07 -0.000120533)
(1.14271e-07 1.52532e-07 -0.000120422)
(3.78459e-08 1.91977e-07 -0.000120646)
(1.17333e-07 1.9167e-07 -0.000120608)
(1.54091e-07 1.904e-07 -0.000120533)
(1.89096e-07 1.89096e-07 -0.000120461)
(1.13459e-07 1.87133e-07 -0.000120352)
(3.79364e-08 1.1531e-07 -0.000120533)
(1.16297e-07 1.15022e-07 -0.000120496)
(1.52532e-07 1.14271e-07 -0.000120422)
(1.87133e-07 1.13459e-07 -0.000120352)
(1.12305e-07 1.12305e-07 -0.000120244)
(6.07201e-08 6.07203e-08 -0.000106897)
(1.88746e-07 6.10761e-08 -0.000106836)
(2.47352e-07 6.14614e-08 -0.000106714)
(3.02972e-07 6.11451e-08 -0.000106599)
(1.82164e-07 6.07398e-08 -0.000106424)
(6.10766e-08 1.88746e-07 -0.000106836)
(1.8851e-07 1.8851e-07 -0.000106775)
(2.46345e-07 1.86894e-07 -0.000106654)
(3.01997e-07 1.85516e-07 -0.00010654)
(1.81428e-07 1.83144e-07 -0.000106366)
(6.14614e-08 2.47352e-07 -0.000106714)
(1.86894e-07 2.46345e-07 -0.000106654)
(2.44358e-07 2.44358e-07 -0.000106536)
(2.99221e-07 2.42181e-07 -0.000106423)
(1.79787e-07 2.38879e-07 -0.000106252)
(6.11451e-08 3.02972e-07 -0.000106599)
(1.85516e-07 3.01997e-07 -0.00010654)
(2.42181e-07 2.99221e-07 -0.000106423)
(2.96517e-07 2.96517e-07 -0.000106312)
(1.78119e-07 2.925e-07 -0.000106143)
(6.07397e-08 1.82164e-07 -0.000106424)
(1.83144e-07 1.81428e-07 -0.000106366)
(2.38878e-07 1.79787e-07 -0.000106252)
(2.925e-07 1.78118e-07 -0.000106143)
(1.75762e-07 1.75761e-07 -0.000105978)
(9.89095e-08 9.89103e-08 -0.00011257)
(3.00662e-07 9.87512e-08 -0.000112473)
(3.92653e-07 9.86021e-08 -0.000112281)
(4.82277e-07 9.76453e-08 -0.000112099)
(2.91029e-07 9.63511e-08 -0.00011182)
(9.87525e-08 3.00661e-07 -0.000112473)
(2.9985e-07 2.9985e-07 -0.000112377)
(3.90477e-07 2.96433e-07 -0.000112186)
(4.79931e-07 2.93416e-07 -0.000112006)
(2.89418e-07 2.88506e-07 -0.000111729)
(9.86021e-08 3.92653e-07 -0.000112281)
(2.96433e-07 3.90477e-07 -0.000112186)
(3.8622e-07 3.8622e-07 -0.000111999)
(4.74349e-07 3.81848e-07 -0.000111823)
(2.86108e-07 3.75269e-07 -0.00011155)
(9.76453e-08 4.82277e-07 -0.000112099)
(2.93416e-07 4.7993e-07 -0.000112006)
(3.81848e-07 4.74349e-07 -0.000111823)
(4.6898e-07 4.6898e-07 -0.000111649)
(2.82824e-07 4.61113e-07 -0.000111381)
(9.63521e-08 2.91028e-07 -0.00011182)
(2.88506e-07 2.89418e-07 -0.000111729)
(3.75269e-07 2.86108e-07 -0.00011155)
(4.61113e-07 2.82824e-07 -0.000111381)
(2.78225e-07 2.78225e-07 -0.00011112)
(1.58877e-07 1.58878e-07 -0.000111297)
(4.77444e-07 1.57824e-07 -0.000111144)
(6.21251e-07 1.56556e-07 -0.00011084)
(7.64169e-07 1.54433e-07 -0.000110555)
(4.62449e-07 1.51479e-07 -0.000110112)
(1.57824e-07 4.77444e-07 -0.000111144)
(4.75175e-07 4.75175e-07 -0.000110993)
(6.16784e-07 4.6832e-07 -0.000110692)
(7.59143e-07 4.62154e-07 -0.00011041)
(4.59184e-07 4.52471e-07 -0.000109972)
(1.56556e-07 6.21251e-07 -0.00011084)
(4.6832e-07 6.16785e-07 -0.000110692)
(6.0823e-07 6.0823e-07 -0.000110398)
(7.48319e-07 5.9977e-07 -0.000110122)
(4.52743e-07 5.87071e-07 -0.000109693)
(1.54432e-07 7.64169e-07 -0.000110555)
(4.62154e-07 7.59143e-07 -0.00011041)
(5.9977e-07 7.48319e-07 -0.000110122)
(7.37983e-07 7.37983e-07 -0.000109851)
(4.46455e-07 7.2292e-07 -0.000109431)
(1.51479e-07 4.62449e-07 -0.000110112)
(4.52471e-07 4.59184e-07 -0.000109972)
(5.87071e-07 4.52743e-07 -0.000109693)
(7.2292e-07 4.46455e-07 -0.000109431)
(4.37648e-07 4.37648e-07 -0.000109022)
(2.53335e-07 2.53335e-07 -0.000112583)
(7.57252e-07 2.50705e-07 -0.000112342)
(9.82112e-07 2.4726e-07 -0.000111861)
(1.21032e-06 2.43045e-07 -0.000111412)
(7.34687e-07 2.37008e-07 -0.00011071)
(2.50705e-07 7.57252e-07 -0.000112342)
(7.51915e-07 7.51915e-07 -0.000112104)
(9.73368e-07 7.38653e-07 -0.000111629)
(1.20021e-06 7.26601e-07 -0.000111186)
(7.28326e-07 7.0801e-07 -0.000110492)
(2.4726e-07 9.82112e-07 -0.000111861)
(7.38653e-07 9.73368e-07 -0.000111629)
(9.56798e-07 9.56798e-07 -0.000111166)
(1.17968e-06 9.40831e-07 -0.000110734)
(7.16052e-07 9.16755e-07 -0.000110057)
(2.43045e-07 1.21032e-06 -0.000111412)
(7.26601e-07 1.20021e-06 -0.000111186)
(9.40831e-07 1.17968e-06 -0.000110734)
(1.16017e-06 1.16017e-06 -0.000110312)
(7.04193e-07 1.13169e-06 -0.000109651)
(2.37008e-07 7.34687e-07 -0.00011071)
(7.0801e-07 7.28326e-07 -0.000110492)
(9.16755e-07 7.16052e-07 -0.000110057)
(1.13169e-06 7.04193e-07 -0.000109651)
(6.87516e-07 6.87516e-07 -0.000109012)
(4.01849e-07 4.01849e-07 -0.000113692)
(1.19952e-06 3.96638e-07 -0.000113311)
(1.55109e-06 3.89146e-07 -0.00011255)
(1.9153e-06 3.81233e-07 -0.000111843)
(1.16631e-06 3.69516e-07 -0.000110729)
(3.96638e-07 1.19952e-06 -0.000113311)
(1.18827e-06 1.18827e-06 -0.000112935)
(1.53468e-06 1.16336e-06 -0.000112185)
(1.89585e-06 1.14054e-06 -0.000111489)
(1.15427e-06 1.10544e-06 -0.000110392)
(3.89146e-07 1.55109e-06 -0.00011255)
(1.16336e-06 1.53468e-06 -0.000112185)
(1.50336e-06 1.50336e-06 -0.000111457)
(1.85739e-06 1.47374e-06 -0.000110781)
(1.13113e-06 1.42858e-06 -0.000109715)
(3.81233e-07 1.9153e-06 -0.000111843)
(1.14054e-06 1.89585e-06 -0.000111489)
(1.47374e-06 1.85739e-06 -0.000110781)
(1.82106e-06 1.82106e-06 -0.000110124)
(1.109e-06 1.76769e-06 -0.000109087)
(3.69516e-07 1.16631e-06 -0.000110729)
(1.10544e-06 1.15427e-06 -0.000110392)
(1.42858e-06 1.13113e-06 -0.000109715)
(1.76769e-06 1.109e-06 -0.000109087)
(1.07764e-06 1.07764e-06 -0.000108092)
(6.36034e-07 6.36034e-07 -0.00011566)
(1.90011e-06 6.2655e-07 -0.000115056)
(2.44998e-06 6.11512e-07 -0.000113849)
(3.03054e-06 5.9687e-07 -0.000112737)
(1.8513e-06 5.74613e-07 -0.00011097)
(6.26551e-07 1.90011e-06 -0.000115056)
(1.87767e-06 1.87767e-06 -0.000114464)
(2.41951e-06 1.83106e-06 -0.000113278)
(2.99381e-06 1.78838e-06 -0.000112185)
(1.82872e-06 1.7225e-06 -0.000110447)
(6.11512e-07 2.44998e-06 -0.000113849)
(1.83106e-06 2.41951e-06 -0.000113278)
(2.3607e-06 2.3607e-06 -0.000112132)
(2.92198e-06 2.30596e-06 -0.000111076)
(1.78526e-06 2.22154e-06 -0.000109396)
(5.96871e-07 3.03054e-06 -0.000112737)
(1.78838e-06 2.99381e-06 -0.000112185)
(2.30596e-06 2.92198e-06 -0.000111076)
(2.85465e-06 2.85465e-06 -0.000110053)
(1.74408e-06 2.75481e-06 -0.000108427)
(5.74614e-07 1.8513e-06 -0.00011097)
(1.7225e-06 1.82872e-06 -0.000110447)
(2.22154e-06 1.78526e-06 -0.000109396)
(2.75481e-06 1.74408e-06 -0.000108427)
(1.6852e-06 1.6852e-06 -0.000106879)
(1.00541e-06 1.00541e-06 -0.000118735)
(3.00978e-06 9.88859e-07 -0.000117774)
(3.8703e-06 9.60266e-07 -0.000115852)
(4.7951e-06 9.3344e-07 -0.000114097)
(2.93857e-06 8.91727e-07 -0.000111289)
(9.88859e-07 3.00978e-06 -0.000117774)
(2.96705e-06 2.96705e-06 -0.000116835)
(3.81445e-06 2.88091e-06 -0.000114952)
(4.72671e-06 2.80199e-06 -0.000113233)
(2.89655e-06 2.67923e-06 -0.000110481)
(9.60266e-07 3.8703e-06 -0.000115852)
(2.88091e-06 3.81445e-06 -0.000114952)
(3.70524e-06 3.70524e-06 -0.000113147)
(4.59342e-06 3.60489e-06 -0.000111497)
(2.8155e-06 3.44827e-06 -0.000108853)
(9.3344e-07 4.7951e-06 -0.000114097)
(2.80199e-06 4.72671e-06 -0.000113233)
(3.60489e-06 4.59342e-06 -0.000111497)
(4.46974e-06 4.46974e-06 -0.000109908)
(2.73953e-06 4.28492e-06 -0.000107363)
(8.91727e-07 2.93857e-06 -0.000111289)
(2.67923e-06 2.89655e-06 -0.000110481)
(3.44827e-06 2.8155e-06 -0.000108853)
(4.28492e-06 2.73953e-06 -0.000107363)
(2.63025e-06 2.63025e-06 -0.000104965)
(1.59563e-06 1.59563e-06 -0.000123609)
(4.78297e-06 1.56538e-06 -0.000122074)
(6.12711e-06 1.50984e-06 -0.000119008)
(7.59346e-06 1.45989e-06 -0.000116232)
(4.66683e-06 1.38134e-06 -0.00011177)
(1.56538e-06 4.78297e-06 -0.000122074)
(4.69959e-06 4.69959e-06 -0.000120581)
(6.02157e-06 4.53609e-06 -0.000117589)
(7.46507e-06 4.38892e-06 -0.00011488)
(4.58795e-06 4.15861e-06 -0.000110522)
(1.50984e-06 6.12711e-06 -0.000119008)
(4.53609e-06 6.02157e-06 -0.000117589)
(5.81644e-06 5.81644e-06 -0.000114741)
(7.21597e-06 5.6314e-06 -0.000112161)
(4.43594e-06 5.33949e-06 -0.000108003)
(1.45989e-06 7.59346e-06 -0.000116232)
(4.38892e-06 7.46507e-06 -0.00011488)
(5.6314e-06 7.21597e-06 -0.000112161)
(6.98812e-06 6.98812e-06 -0.000109693)
(4.29529e-06 6.64279e-06 -0.000105716)
(1.38134e-06 4.66683e-06 -0.00011177)
(4.15861e-06 4.58795e-06 -0.000110522)
(5.33949e-06 4.43594e-06 -0.000108003)
(6.64279e-06 4.29529e-06 -0.000105716)
(4.08978e-06 4.08978e-06 -0.000102004)
(2.5378e-06 2.53779e-06 -0.000131357)
(7.61091e-06 2.48026e-06 -0.000128884)
(9.71203e-06 2.37716e-06 -0.000123969)
(1.20328e-05 2.28333e-06 -0.00011957)
(7.41249e-06 2.13751e-06 -0.000112474)
(2.48026e-06 7.61091e-06 -0.000128884)
(7.45215e-06 7.45215e-06 -0.00012649)
(9.51539e-06 7.14744e-06 -0.000121721)
(1.17933e-05 6.87309e-06 -0.000117447)
(7.26627e-06 6.44657e-06 -0.000110548)
(2.37716e-06 9.71203e-06 -0.000123969)
(7.14744e-06 9.51539e-06 -0.000121721)
(9.13297e-06 9.13297e-06 -0.000117227)
(1.13319e-05 8.79203e-06 -0.000113192)
(6.98487e-06 8.25388e-06 -0.000106668)
(2.28334e-06 1.20328e-05 -0.00011957)
(6.87309e-06 1.17933e-05 -0.000117447)
(8.79203e-06 1.13319e-05 -0.000113192)
(1.09142e-05 1.09142e-05 -0.000109358)
(6.72669e-06 1.0284e-05 -0.000103165)
(2.13751e-06 7.41249e-06 -0.000112474)
(6.44657e-06 7.26627e-06 -0.000110548)
(8.25388e-06 6.98487e-06 -0.000106668)
(1.0284e-05 6.72669e-06 -0.000103165)
(6.35308e-06 6.35308e-06 -9.74696e-05)
(4.06431e-06 4.06431e-06 -0.000143772)
(1.21714e-05 3.95672e-06 -0.000139721)
(1.54412e-05 3.754e-06 -0.00013181)
(1.90885e-05 3.57955e-06 -0.000124778)
(1.17823e-05 3.30345e-06 -0.000113492)
(3.95672e-06 1.21714e-05 -0.000139721)
(1.18624e-05 1.18624e-05 -0.000135855)
(1.50645e-05 1.12779e-05 -0.000128221)
(1.86383e-05 1.07675e-05 -0.000121442)
(1.15056e-05 9.96423e-06 -0.000110519)
(3.754e-06 1.54412e-05 -0.00013181)
(1.12779e-05 1.50645e-05 -0.000128221)
(1.43463e-05 1.43463e-05 -0.00012111)
(1.77748e-05 1.37207e-05 -0.000114782)
(1.09769e-05 1.27227e-05 -0.000104548)
(3.57955e-06 1.90885e-05 -0.000124778)
(1.07675e-05 1.86383e-05 -0.000121442)
(1.37207e-05 1.77748e-05 -0.000114782)
(1.70147e-05 1.70147e-05 -0.000108834)
(1.05049e-05 1.58416e-05 -9.9211e-05)
(3.30345e-06 1.17823e-05 -0.000113492)
(9.96423e-06 1.15056e-05 -0.000110519)
(1.27227e-05 1.09769e-05 -0.000104548)
(1.58416e-05 1.05049e-05 -9.9211e-05)
(9.80084e-06 9.80084e-06 -9.04588e-05)
(6.58171e-06 6.58171e-06 -0.00016372)
(1.95729e-05 6.34157e-06 -0.000157028)
(2.46552e-05 5.96037e-06 -0.000144163)
(3.03505e-05 5.61434e-06 -0.000132848)
(1.87295e-05 5.10429e-06 -0.000114874)
(6.34157e-06 1.95729e-05 -0.000157028)
(1.89518e-05 1.89518e-05 -0.000150667)
(2.39285e-05 1.78472e-05 -0.000138372)
(2.94953e-05 1.68689e-05 -0.000127544)
(1.82186e-05 1.53908e-05 -0.000110278)
(5.96037e-06 2.46552e-05 -0.000144163)
(1.78472e-05 2.39285e-05 -0.000138372)
(2.25722e-05 2.25722e-05 -0.000127103)
(2.78941e-05 2.13993e-05 -0.000117145)
(1.72474e-05 1.95624e-05 -0.000101177)
(5.61434e-06 3.03505e-05 -0.000132848)
(1.68689e-05 2.94953e-05 -0.000127544)
(2.13993e-05 2.78941e-05 -0.000117145)
(2.64854e-05 2.64854e-05 -0.000107903)
(1.63766e-05 2.43733e-05 -9.30468e-05)
(5.10429e-06 1.87295e-05 -0.000114874)
(1.53908e-05 1.82186e-05 -0.000110278)
(1.95624e-05 1.72474e-05 -0.000101177)
(2.43733e-05 1.63766e-05 -9.30468e-05)
(1.51298e-05 1.51298e-05 -7.98382e-05)
(1.07493e-05 1.07493e-05 -0.000196529)
(3.17278e-05 1.03112e-05 -0.000184779)
(3.96216e-05 9.53895e-06 -0.000163618)
(4.83779e-05 8.87552e-06 -0.000145189)
(2.98069e-05 7.88994e-06 -0.0001167)
(1.03112e-05 3.17278e-05 -0.000184779)
(3.05191e-05 3.05191e-05 -0.000174016)
(3.8188e-05 2.83382e-05 -0.000154176)
(4.67319e-05 2.64705e-05 -0.000136793)
(2.88202e-05 2.36613e-05 -0.000109588)
(9.53895e-06 3.96216e-05 -0.000163618)
(2.83382e-05 3.8188e-05 -0.000154176)
(3.55731e-05 3.55731e-05 -0.000136321)
(4.3701e-05 3.33613e-05 -0.000120617)
(2.699e-05 2.9954e-05 -9.57351e-05)
(8.87552e-06 4.83779e-05 -0.000145189)
(2.64705e-05 4.67319e-05 -0.000136793)
(3.33613e-05 4.3701e-05 -0.000120617)
(4.11128e-05 4.11128e-05 -0.000106324)
(2.54034e-05 3.71802e-05 -8.34772e-05)
(7.88994e-06 2.98069e-05 -0.0001167)
(2.36613e-05 2.88202e-05 -0.000109588)
(2.9954e-05 2.699e-05 -9.57351e-05)
(3.71802e-05 2.54034e-05 -8.34772e-05)
(2.30471e-05 2.30471e-05 -6.33343e-05)
(1.83237e-05 1.83237e-05 -0.000247397)
(5.24836e-05 1.70967e-05 -0.000228048)
(6.42459e-05 1.53939e-05 -0.000194478)
(7.72691e-05 1.39995e-05 -0.000164027)
(4.73002e-05 1.2203e-05 -0.000118838)
(1.70967e-05 5.24836e-05 -0.000228048)
(4.95553e-05 4.95553e-05 -0.000210309)
(6.11515e-05 4.51443e-05 -0.000178621)
(7.40836e-05 4.14406e-05 -0.000150489)
(4.55019e-05 3.63551e-05 -0.000107786)
(1.53939e-05 6.42459e-05 -0.000194478)
(4.51443e-05 6.11515e-05 -0.000178621)
(5.61312e-05 5.61312e-05 -0.000150345)
(6.84799e-05 5.18683e-05 -0.000125369)
(4.22006e-05 4.56728e-05 -8.69757e-05)
(1.39995e-05 7.72691e-05 -0.000164027)
(4.14406e-05 7.40836e-05 -0.000150489)
(5.18683e-05 6.84799e-05 -0.000125369)
(6.36251e-05 6.36251e-05 -0.00010312)
(3.9289e-05 5.67742e-05 -6.84407e-05)
(1.2203e-05 4.73002e-05 -0.000118838)
(3.63551e-05 4.55019e-05 -0.000107786)
(4.56728e-05 4.22006e-05 -8.69757e-05)
(5.67742e-05 3.9289e-05 -6.84407e-05)
(3.53316e-05 3.53316e-05 -3.91741e-05)
(3.00971e-05 3.00971e-05 -0.000331686)
(8.4647e-05 2.80456e-05 -0.000296399)
(0.000103643 2.53868e-05 -0.000240627)
(0.000124018 2.24021e-05 -0.000191988)
(7.51277e-05 1.89241e-05 -0.00012099)
(2.80456e-05 8.4647e-05 -0.000296399)
(7.99462e-05 7.99462e-05 -0.00026554)
(9.80085e-05 7.24709e-05 -0.000214781)
(0.000117568 6.51291e-05 -0.000169999)
(7.16474e-05 5.55238e-05 -0.000103779)
(2.53868e-05 0.000103643 -0.000240627)
(7.24709e-05 9.80085e-05 -0.000214781)
(8.88256e-05 8.88256e-05 -0.000170731)
(0.000107071 8.07296e-05 -0.000131348)
(6.54957e-05 6.92989e-05 -7.22911e-05)
(2.24021e-05 0.000124018 -0.000191988)
(6.51291e-05 0.000117568 -0.000169999)
(8.07296e-05 0.000107071 -0.000131348)
(9.80409e-05 9.80409e-05 -9.72851e-05)
(6.01854e-05 8.4982e-05 -4.51315e-05)
(1.89241e-05 7.51277e-05 -0.00012099)
(5.55238e-05 7.16474e-05 -0.000103779)
(6.92989e-05 6.54957e-05 -7.22911e-05)
(8.4982e-05 6.01854e-05 -4.51315e-05)
(5.24029e-05 5.24029e-05 -9.32146e-07)
(5.36185e-05 5.36185e-05 -0.000483213)
(0.000143542 4.7955e-05 -0.000414501)
(0.000168657 4.12363e-05 -0.000319831)
(0.000196907 3.59763e-05 -0.000233797)
(0.000118509 2.93924e-05 -0.000123212)
(4.7955e-05 0.000143542 -0.000414501)
(0.000131172 0.000131172 -0.000357763)
(0.000156693 0.00011504 -0.000273748)
(0.000185086 0.000102081 -0.000198648)
(0.00011192 8.50537e-05 -9.57065e-05)
(4.12363e-05 0.000168657 -0.000319831)
(0.00011504 0.000156693 -0.000273748)
(0.000139565 0.000139565 -0.000202804)
(0.000166921 0.000124582 -0.000138787)
(0.000101435 0.000104321 -4.95318e-05)
(3.59763e-05 0.000196907 -0.000233797)
(0.000102081 0.000185086 -0.000198648)
(0.000124582 0.000166921 -0.000138787)
(0.000149841 0.000149841 -8.48572e-05)
(9.16006e-05 0.000128133 -6.51709e-06)
(2.93924e-05 0.000118509 -0.000123212)
(8.50537e-05 0.00011192 -9.57065e-05)
(0.000104321 0.000101435 -4.95318e-05)
(0.000128133 9.16006e-05 -6.51709e-06)
(7.96685e-05 7.96685e-05 5.28214e-05)
(9.88303e-05 9.88303e-05 -0.000728561)
(0.000248029 8.47944e-05 -0.000598297)
(0.000284346 7.14764e-05 -0.000441858)
(0.000320637 5.75468e-05 -0.000292857)
(0.000186054 4.64098e-05 -0.000120816)
(8.47944e-05 0.000248029 -0.000598297)
(0.0002207 0.0002207 -0.000494843)
(0.000257124 0.000189498 -0.000360121)
(0.000295609 0.000160139 -0.000233402)
(0.000174904 0.000129204 -7.99063e-05)
(7.14764e-05 0.000284346 -0.000441858)
(0.000189498 0.000257124 -0.000360121)
(0.000223786 0.000223786 -0.000246731)
(0.000260343 0.000194521 -0.00014431)
(0.000155028 0.000158488 -9.73241e-06)
(5.75468e-05 0.000320637 -0.000292857)
(0.000160139 0.000295609 -0.000233402)
(0.000194521 0.000260343 -0.00014431)
(0.000230311 0.000230311 -6.22294e-05)
(0.000138766 0.000187335 4.74476e-05)
(4.64098e-05 0.000186054 -0.000120816)
(0.000129204 0.000174904 -7.99063e-05)
(0.000158488 0.000155028 -9.73241e-06)
(0.000187335 0.000138766 4.74476e-05)
(0.00011193 0.00011193 0.000129563)
(0.000183976 0.000183976 -0.0011926)
(0.000430246 0.000151453 -0.000919442)
(0.000474096 0.000123015 -0.000652024)
(0.000517949 9.54411e-05 -0.000390052)
(0.000291101 7.02967e-05 -0.000118022)
(0.000151453 0.000430246 -0.000919442)
(0.000369349 0.000369349 -0.000722168)
(0.000418134 0.000310167 -0.000501233)
(0.000465301 0.000250628 -0.000287527)
(0.000265911 0.000196137 -4.86693e-05)
(0.000123015 0.000474096 -0.000652024)
(0.000310167 0.000418134 -0.000501233)
(0.000355375 0.000355375 -0.000322171)
(0.00040392 0.000295755 -0.000150888)
(0.00023644 0.000231675 4.78691e-05)
(9.54411e-05 0.000517949 -0.000390052)
(0.000250628 0.000465301 -0.000287527)
(0.000295755 0.00040392 -0.000150888)
(0.0003416 0.0003416 -2.03797e-05)
(0.000201619 0.000267429 0.000133665)
(7.02967e-05 0.000291101 -0.000118022)
(0.000196137 0.000265911 -4.86693e-05)
(0.000231675 0.00023644 4.78691e-05)
(0.000267429 0.000201619 0.000133665)
(0.000162037 0.000162037 0.000252638)
(0.000372149 0.000372149 -0.00197167)
(0.000788607 0.000282175 -0.00140788)
(0.000813736 0.000222361 -0.000939268)
(0.000854641 0.000160118 -0.00048883)
(0.000458979 0.000115789 -7.7659e-05)
(0.000282175 0.000788607 -0.00140788)
(0.000638908 0.000638908 -0.00102561)
(0.000691765 0.000519351 -0.000669781)
(0.000748174 0.000399303 -0.000321241)
(0.000414545 0.000295095 2.32162e-05)
(0.000222361 0.000813736 -0.000939268)
(0.000519351 0.000691765 -0.000669781)
(0.00057413 0.00057413 -0.000393532)
(0.000630385 0.000461668 -0.000122099)
(0.00035442 0.000340822 0.000152162)
(0.000160118 0.000854641 -0.00048883)
(0.000399303 0.000748174 -0.000321241)
(0.000461668 0.000630385 -0.000122099)
(0.000514865 0.000514865 6.56315e-05)
(0.000293298 0.000392105 0.000276316)
(0.000115789 0.000458979 -7.7659e-05)
(0.000295095 0.000414545 2.32162e-05)
(0.000340822 0.00035442 0.000152162)
(0.000392105 0.000293298 0.000276316)
(0.000231273 0.000231273 0.000430858)
(0.000748329 0.000748329 -0.00357678)
(0.00146265 0.00053397 -0.00230303)
(0.00139315 0.000392784 -0.00147705)
(0.00137956 0.000263166 -0.000658049)
(0.000703682 0.00017129 -3.18133e-05)
(0.00053397 0.00146265 -0.00230303)
(0.00110745 0.00110745 -0.00155829)
(0.0011225 0.000855902 -0.000963257)
(0.0011583 0.000617359 -0.000378251)
(0.000611534 0.000425959 0.000124971)
(0.000392784 0.00139315 -0.00147705)
(0.000855902 0.0011225 -0.000963257)
(0.000903057 0.000903057 -0.000519648)
(0.000949615 0.000682627 -7.51918e-05)
(0.000511609 0.000484774 0.00031221)
(0.000263166 0.00137956 -0.000658049)
(0.000617359 0.0011583 -0.000378251)
(0.000682627 0.000949615 -7.51918e-05)
(0.000740015 0.000740015 0.000200187)
(0.000412976 0.000546125 0.000494567)
(0.00017129 0.000703682 -3.18133e-05)
(0.000425959 0.000611534 0.000124971)
(0.000484774 0.000511609 0.00031221)
(0.000546125 0.000412976 0.000494567)
(0.00031707 0.00031707 0.000702528)
(0.00164605 0.00164605 -0.00656747)
(0.00288834 0.00102725 -0.00366275)
(0.00245872 0.000736453 -0.00209754)
(0.00229988 0.000440137 -0.00072385)
(0.00108741 0.000272735 0.000157454)
(0.00102725 0.00288834 -0.00366275)
(0.00197868 0.00197868 -0.00211325)
(0.00187181 0.00147676 -0.00117355)
(0.0018364 0.00098216 -0.000254372)
(0.000919496 0.000639119 0.000390101)
(0.000736453 0.00245872 -0.00209754)
(0.00147676 0.00187181 -0.00117355)
(0.0014622 0.0014622 -0.00050886)
(0.00146224 0.00104011 0.000125386)
(0.000743121 0.000710419 0.000633425)
(0.000440137 0.00229988 -0.00072385)
(0.00098216 0.0018364 -0.000254372)
(0.00104011 0.00146224 0.000125386)
(0.00108463 0.00108463 0.000509445)
(0.000588627 0.000782423 0.000866447)
(0.000272735 0.00108741 0.000157454)
(0.000639119 0.000919496 0.000390101)
(0.000710419 0.000743121 0.000633425)
(0.000782423 0.000588627 0.000866447)
(0.000439902 0.000439902 0.00110279)
(0.00365604 0.00365604 -0.0128552)
(0.00593253 0.00208411 -0.00610278)
(0.00433206 0.0013181 -0.00319801)
(0.00363455 0.000733058 -0.000816295)
(0.00158815 0.000404274 0.000425991)
(0.00208411 0.00593253 -0.00610278)
(0.00359663 0.00359663 -0.00318718)
(0.00298139 0.00244457 -0.00153969)
(0.00272195 0.00146659 -0.000103926)
(0.00125831 0.000901929 0.000775953)
(0.0013181 0.00433206 -0.00319801)
(0.00244457 0.00298139 -0.00153969)
(0.00220199 0.00220199 -0.000502192)
(0.0020919 0.00144644 0.000424141)
(0.00102137 0.00096112 0.00107716)
(0.000733058 0.00363455 -0.000816295)
(0.00146659 0.00272195 -0.000103926)
(0.00144644 0.0020919 0.000424141)
(0.00148108 0.00148108 0.000947507)
(0.000771182 0.00101549 0.00135459)
(0.000404274 0.00158815 0.000425991)
(0.000901929 0.00125831 0.000775953)
(0.00096112 0.00102137 0.00107716)
(0.00101549 0.000771182 0.00135459)
(0.000554229 0.000554229 0.00160043)
(0.0084057 0.0084057 -0.0272058)
(0.0125522 0.00394417 -0.00971951)
(0.0077448 0.00239429 -0.00373255)
(0.00592388 0.00115322 -0.000175791)
(0.00233429 0.000622786 0.0012915)
(0.00394417 0.0125522 -0.00971951)
(0.00654266 0.00654266 -0.00331257)
(0.00495507 0.00417256 -0.00100095)
(0.00415205 0.00222259 0.000772502)
(0.00180257 0.00129029 0.00166708)
(0.00239429 0.0077448 -0.00373255)
(0.00417256 0.00495507 -0.00100095)
(0.00342603 0.00342603 0.000279129)
(0.0030416 0.00209154 0.00132429)
(0.00139846 0.00128906 0.00191142)
(0.00115322 0.00592388 -0.000175791)
(0.00222259 0.00415205 0.000772502)
(0.00209154 0.0030416 0.00132429)
(0.00201508 0.00201508 0.00181639)
(0.000997167 0.0013057 0.0021409)
(0.000622786 0.00233429 0.0012915)
(0.00129029 0.00180257 0.00166708)
(0.00128906 0.00139846 0.00191142)
(0.0013057 0.000997167 0.0021409)
(0.000686633 0.000686633 0.00230917)
(0.0244382 0.0244382 -0.0553116)
(0.0320142 0.00857987 -0.0154782)
(0.0136739 0.00405536 -0.00333075)
(0.00865805 0.00168165 0.00091379)
(0.0030612 0.000780595 0.00247095)
(0.00857987 0.0320142 -0.0154782)
(0.0126737 0.0126737 -0.00473505)
(0.00706521 0.0064571 -0.000140033)
(0.00538997 0.00296665 0.00198443)
(0.00215639 0.00152185 0.0027767)
(0.00405536 0.0136739 -0.00333075)
(0.0064571 0.00706521 -0.000140033)
(0.00452723 0.00452723 0.00157553)
(0.00372419 0.00249033 0.00252878)
(0.00161076 0.00143494 0.00295258)
(0.00168165 0.00865805 0.00091379)
(0.00296665 0.00538997 0.00198443)
(0.00249033 0.00372419 0.00252878)
(0.00229769 0.00229769 0.00290971)
(0.00109694 0.00141325 0.00307771)
(0.000780595 0.0030612 0.00247095)
(0.00152185 0.00215639 0.0027767)
(0.00143494 0.00161076 0.00295258)
(0.00141325 0.00109694 0.00307771)
(0.000723156 0.000723156 0.00311782)
(0.06116 0.06116 -0.23123)
(0.0794846 0.0145969 -0.0348184)
(0.0218915 0.00559316 0.00837348)
(0.0117201 0.00222676 0.00592107)
(0.00389787 0.000927165 0.00505501)
(0.0145969 0.0794846 -0.0348184)
(0.0227512 0.0227512 0.00317094)
(0.0110308 0.00908579 0.00639475)
(0.00706718 0.00383757 0.00521884)
(0.0025981 0.00177193 0.00473663)
(0.00559316 0.0218915 0.00837348)
(0.00908579 0.0110308 0.00639475)
(0.00609331 0.00609331 0.00575389)
(0.00441867 0.00301683 0.004954)