/*--------------------------------*- C++ -*----------------------------------*\
| =========                 |                                                 |
| \\      /  F ield         | OpenFOAM: The Open Source CFD Toolbox           |
|  \\    /   O peration     | Version:  5.x                                   |
|   \\  /    A nd           | Web:      www.OpenFOAM.org                      |
|    \\/     M anipulation  |                                                 |
\*---------------------------------------------------------------------------*/
FoamFile
{
    version     2.0;
    format      ascii;
    class       surfaceScalarField;
    location    "0.012";
    object      phi;
}
// * * * * * * * * * * * * * * * * * * * * * * * * * * * * * * * * * * * * * //

dimensions      [0 3 -1 0 0 0 0];

internalField   nonuniform List<scalar> 
4297
(
-2.14224e-09
-2.14221e-09
-1.27308e-09
-1.72893e-09
-2.79091e-09
5.24236e-10
-2.02952e-09
-3.0342e-09
1.17553e-09
-1.20499e-09
-3.0992e-09
7.64606e-11
-3.16846e-09
-4.07959e-11
-2.79092e-09
-1.72894e-09
5.24249e-10
-2.41718e-09
-2.4172e-09
-7.48892e-10
-2.29055e-09
-2.6155e-09
-5.46928e-10
-1.27037e-09
-2.69871e-09
-1.42243e-09
-2.74967e-09
-1.47513e-09
-3.03421e-09
-2.02955e-09
1.17552e-09
-2.61549e-09
-2.29058e-09
-5.4694e-10
-2.37549e-09
-2.37552e-09
-4.81452e-10
-1.30684e-09
-2.38009e-09
-1.38843e-09
-2.40744e-09
-1.42185e-09
-3.09921e-09
-1.20503e-09
7.64537e-11
-2.69869e-09
-1.27042e-09
-1.42244e-09
-2.38005e-09
-1.30688e-09
-1.38844e-09
-1.27539e-09
-1.27544e-09
-2.20867e-09
-1.2894e-09
-2.22623e-09
-3.16847e-09
-4.08115e-11
-2.74966e-09
-1.47516e-09
-2.40741e-09
-1.42186e-09
-1.28935e-09
-2.22624e-09
-2.24563e-09
-6.16937e-09
-6.16938e-09
1.90499e-09
-5.36197e-09
-3.8455e-09
7.42681e-10
-3.64209e-09
-3.32494e-09
3.45372e-10
-2.15417e-09
-2.77298e-09
-6.3974e-10
-2.62472e-09
-8.23884e-10
-3.8455e-09
-5.362e-09
7.42684e-10
-3.72544e-09
-3.72546e-09
-9.90685e-10
-2.89194e-09
-3.31502e-09
-1.39204e-09
-1.73935e-09
-2.84475e-09
-2.50463e-09
-2.70794e-09
-2.70935e-09
-3.32493e-09
-3.64214e-09
3.45357e-10
-3.31499e-09
-2.89198e-09
-1.39205e-09
-2.66204e-09
-2.66209e-09
-1.78844e-09
-1.60864e-09
-2.36193e-09
-2.92383e-09
-2.25229e-09
-3.13509e-09
-2.77297e-09
-2.15423e-09
-6.39762e-10
-2.84473e-09
-1.73941e-09
-2.50466e-09
-2.36189e-09
-1.6087e-09
-2.92384e-09
-1.40994e-09
-1.41e-09
-4.10493e-09
-1.31695e-09
-4.32884e-09
-2.62471e-09
-8.23931e-10
-2.70791e-09
-2.70939e-09
-2.25224e-09
-3.13512e-09
-1.3169e-09
-4.32885e-09
-4.55746e-09
-3.65422e-09
-3.65422e-09
3.50276e-09
-3.36738e-09
-3.82336e-09
1.34813e-09
-2.89892e-09
-3.9236e-09
8.18154e-10
-1.60656e-09
-3.96983e-09
-9.60829e-10
-4.0122e-09
-1.31014e-09
-3.82336e-09
-3.36741e-09
1.34813e-09
-3.53159e-09
-3.53162e-09
-1.57515e-09
-2.98922e-09
-3.61408e-09
-2.24526e-09
-1.64024e-09
-3.65762e-09
-4.16754e-09
-3.69582e-09
-4.54853e-09
-3.9236e-09
-2.89897e-09
8.18136e-10
-3.61405e-09
-2.98926e-09
-2.24528e-09
-3.04031e-09
-3.04035e-09
-2.93764e-09
-1.66907e-09
-3.05735e-09
-4.89707e-09
-3.08731e-09
-5.28165e-09
-3.96983e-09
-1.60663e-09
-9.60864e-10
-3.6576e-09
-1.6403e-09
-4.16757e-09
-3.0573e-09
-1.66913e-09
-4.89709e-09
-1.66037e-09
-1.66044e-09
-6.89759e-09
-1.67161e-09
-7.29422e-09
-4.01219e-09
-1.31021e-09
-3.6958e-09
-4.5486e-09
-3.08726e-09
-5.2817e-09
-1.67155e-09
-7.29425e-09
-7.69549e-09
-6.36515e-09
-6.36515e-09
6.49244e-09
-5.85586e-09
-5.76215e-09
2.21485e-09
-4.77648e-09
-5.64108e-09
1.09858e-09
-2.75026e-09
-5.39112e-09
-1.67695e-09
-5.31613e-09
-2.26766e-09
-5.76214e-09
-5.8559e-09
2.21485e-09
-5.37451e-09
-5.37455e-09
-2.35015e-09
-4.46384e-09
-5.27605e-09
-3.52084e-09
-2.53004e-09
-5.06424e-09
-6.4283e-09
-4.99766e-09
-7.05253e-09
-5.64107e-09
-4.77655e-09
1.09855e-09
-5.276e-09
-4.46391e-09
-3.52087e-09
-4.39403e-09
-4.39409e-09
-4.70162e-09
-2.47626e-09
-4.23526e-09
-7.64394e-09
-4.17819e-09
-8.27675e-09
-5.39112e-09
-2.75035e-09
-1.67701e-09
-5.0642e-09
-2.53013e-09
-6.42835e-09
-4.23519e-09
-2.47635e-09
-7.64396e-09
-2.35014e-09
-2.35022e-09
-1.06663e-08
-2.29597e-09
-1.13193e-08
-5.3161e-09
-2.26776e-09
-4.99762e-09
-7.05263e-09
-4.17812e-09
-8.27682e-09
-2.29588e-09
-1.13193e-08
-1.1976e-08
-7.51876e-09
-7.51877e-09
9.99666e-09
-6.89768e-09
-7.63707e-09
3.38851e-09
-5.72456e-09
-7.69305e-09
1.73832e-09
-3.07319e-09
-7.74319e-09
-2.49273e-09
-7.77496e-09
-3.38995e-09
-7.63706e-09
-6.89773e-09
3.38851e-09
-7.00483e-09
-7.00488e-09
-3.61339e-09
-5.8006e-09
-7.05203e-09
-5.36491e-09
-3.10209e-09
-7.08974e-09
-9.77896e-09
-7.1163e-09
-1.0726e-08
-7.69304e-09
-5.72465e-09
1.73828e-09
-7.05197e-09
-5.80068e-09
-5.36495e-09
-5.83647e-09
-5.83656e-09
-7.13138e-09
-3.1214e-09
-5.85887e-09
-1.15885e-08
-5.88132e-09
-1.25396e-08
-7.7432e-09
-3.0733e-09
-2.49281e-09
-7.08969e-09
-3.1022e-09
-9.77904e-09
-5.85878e-09
-3.12151e-09
-1.15885e-08
-3.12025e-09
-3.12036e-09
-1.61406e-08
-3.12938e-09
-1.71162e-08
-7.77495e-09
-3.39009e-09
-7.11624e-09
-1.07261e-08
-5.88122e-09
-1.25397e-08
-3.12927e-09
-1.71163e-08
-1.80903e-08
-1.12959e-08
-1.1296e-08
1.52654e-08
-1.03905e-08
-1.12556e-08
5.11159e-09
-8.6182e-09
-1.12568e-08
2.59133e-09
-4.68682e-09
-1.12556e-08
-3.79467e-09
-1.1251e-08
-5.15036e-09
-1.12556e-08
-1.03906e-08
5.11157e-09
-1.03678e-08
-1.03679e-08
-5.38709e-09
-8.60614e-09
-1.03742e-08
-8.00734e-09
-4.64793e-09
-1.03851e-08
-1.46054e-08
-1.03789e-08
-1.60268e-08
-1.12568e-08
-8.61832e-09
2.59127e-09
-1.03741e-08
-8.60626e-09
-8.00739e-09
-8.60908e-09
-8.6092e-09
-1.06593e-08
-4.64134e-09
-8.6125e-09
-1.73263e-08
-8.60187e-09
-1.87616e-08
-1.12556e-08
-4.68696e-09
-3.79479e-09
-1.0385e-08
-4.64807e-09
-1.46056e-08
-8.61238e-09
-4.64148e-09
-1.73263e-08
-4.61949e-09
-4.61964e-09
-2.41226e-08
-4.60264e-09
-2.5597e-08
-1.1251e-08
-5.15057e-09
-1.03789e-08
-1.6027e-08
-8.60175e-09
-1.87617e-08
-4.60249e-09
-2.55971e-08
-2.7071e-08
-1.59101e-08
-1.59101e-08
2.25889e-08
-1.45386e-08
-1.62479e-08
7.4839e-09
-1.19942e-08
-1.63454e-08
3.78941e-09
-6.34315e-09
-1.65018e-08
-5.67847e-09
-1.65409e-08
-7.66904e-09
-1.62478e-08
-1.45388e-08
7.48388e-09
-1.48278e-08
-1.48279e-08
-8.22535e-09
-1.21945e-08
-1.48731e-08
-1.2111e-08
-6.43715e-09
-1.49755e-08
-2.18868e-08
-1.49917e-08
-2.39607e-08
-1.63454e-08
-1.19944e-08
3.78932e-09
-1.4873e-08
-1.21947e-08
-1.21111e-08
-1.21827e-08
-1.21829e-08
-1.60377e-08
-6.42173e-09
-1.22302e-08
-2.58298e-08
-1.22231e-08
-2.78958e-08
-1.65018e-08
-6.34336e-09
-5.67864e-09
-1.49753e-08
-6.43736e-09
-2.1887e-08
-1.223e-08
-6.42195e-09
-2.58299e-08
-6.43441e-09
-6.43463e-09
-3.57098e-08
-6.42902e-09
-3.77844e-08
-1.65409e-08
-7.66933e-09
-1.49916e-08
-2.3961e-08
-1.22229e-08
-2.7896e-08
-6.42879e-09
-3.77845e-08
-3.98399e-08
-2.36114e-08
-2.36114e-08
3.34551e-08
-2.16512e-08
-2.40428e-08
1.10673e-08
-1.78612e-08
-2.41841e-08
5.57065e-09
-9.45487e-09
-2.44447e-08
-8.47058e-09
-2.45231e-08
-1.13821e-08
-2.40428e-08
-2.16513e-08
1.10673e-08
-2.20361e-08
-2.20363e-08
-1.22376e-08
-1.81775e-08
-2.2165e-08
-1.79876e-08
-9.6116e-09
-2.23547e-08
-3.25414e-08
-2.23955e-08
-3.56106e-08
-2.41841e-08
-1.78615e-08
5.57054e-09
-2.21649e-08
-1.81778e-08
-1.79877e-08
-1.8295e-08
-1.82953e-08
-2.37761e-08
-9.66641e-09
-1.84225e-08
-3.8389e-08
-1.84395e-08
-4.14381e-08
-2.44447e-08
-9.45514e-09
-8.47082e-09
-2.23545e-08
-9.61187e-09
-3.25417e-08
-1.84223e-08
-9.66668e-09
-3.83891e-08
-9.70253e-09
-9.70281e-09
-5.31469e-08
-9.69665e-09
-5.61799e-08
-2.45231e-08
-1.13825e-08
-2.23954e-08
-3.5611e-08
-1.84393e-08
-4.14384e-08
-9.69637e-09
-5.618e-08
-5.91377e-08
-3.44235e-08
-3.44236e-08
4.94615e-08
-3.15947e-08
-3.55236e-08
1.65042e-08
-2.60665e-08
-3.58945e-08
8.36378e-09
-1.37311e-08
-3.63552e-08
-1.24696e-08
-3.65011e-08
-1.67777e-08
-3.55235e-08
-3.15949e-08
1.65042e-08
-3.25651e-08
-3.25653e-08
-1.81544e-08
-2.68065e-08
-3.27965e-08
-2.68443e-08
-1.4075e-08
-3.30805e-08
-4.85479e-08
-3.31152e-08
-5.3092e-08
-3.58944e-08
-2.60669e-08
8.36364e-09
-3.27963e-08
-2.68068e-08
-2.68444e-08
-2.69114e-08
-2.69117e-08
-3.5546e-08
-1.40932e-08
-2.70371e-08
-5.72511e-08
-2.69761e-08
-6.16861e-08
-3.63551e-08
-1.37315e-08
-1.247e-08
-3.30803e-08
-1.40754e-08
-4.85481e-08
-2.70368e-08
-1.40935e-08
-5.72513e-08
-1.41142e-08
-1.41146e-08
-7.89925e-08
-1.40626e-08
-8.32442e-08
-3.65011e-08
-1.67782e-08
-3.3115e-08
-5.30925e-08
-2.69758e-08
-6.16864e-08
-1.40622e-08
-8.32444e-08
-8.72975e-08
-5.13547e-08
-5.13548e-08
7.41216e-08
-4.75377e-08
-5.30371e-08
2.53701e-08
-3.92049e-08
-5.35835e-08
1.27852e-08
-2.06634e-08
-5.45252e-08
-1.81682e-08
-5.47931e-08
-2.46605e-08
-5.3037e-08
-4.75379e-08
2.53701e-08
-4.9025e-08
-4.90252e-08
-2.61787e-08
-4.03627e-08
-4.96264e-08
-3.94645e-08
-2.13226e-08
-5.02543e-08
-7.18604e-08
-5.0488e-08
-7.87732e-08
-5.35834e-08
-3.92053e-08
1.2785e-08
-4.96262e-08
-4.03631e-08
-3.94646e-08
-4.1027e-08
-4.10273e-08
-5.27457e-08
-2.16757e-08
-4.16477e-08
-8.52113e-08
-4.18543e-08
-9.20512e-08
-5.45251e-08
-2.06638e-08
-1.81686e-08
-5.0254e-08
-2.13231e-08
-7.18607e-08
-4.16474e-08
-2.16761e-08
-8.52115e-08
-2.19969e-08
-2.19973e-08
-1.18297e-07
-2.2154e-08
-1.25021e-07
-5.4793e-08
-2.46611e-08
-5.04878e-08
-7.87738e-08
-4.1854e-08
-9.20516e-08
-2.21536e-08
-1.25021e-07
-1.31724e-07
-7.57853e-08
-7.57854e-08
1.11636e-07
-7.08992e-08
-7.90218e-08
4.00899e-08
-5.89431e-08
-8.05185e-08
2.09716e-08
-3.13277e-08
-8.21824e-08
-2.53406e-08
-8.29732e-08
-3.53777e-08
-7.90217e-08
-7.08995e-08
4.00899e-08
-7.39076e-08
-7.39079e-08
-3.64066e-08
-6.14971e-08
-7.55529e-08
-5.68411e-08
-3.25625e-08
-7.7681e-08
-1.05298e-07
-7.87281e-08
-1.15744e-07
-8.05185e-08
-5.89435e-08
2.09714e-08
-7.55527e-08
-6.14975e-08
-5.68413e-08
-6.32538e-08
-6.32541e-08
-7.73446e-08
-3.36861e-08
-6.60008e-08
-1.26462e-07
-6.7245e-08
-1.37381e-07
-8.21823e-08
-3.13282e-08
-2.53411e-08
-7.76808e-08
-3.25629e-08
-1.05298e-07
-6.60005e-08
-3.36864e-08
-1.26462e-07
-3.58971e-08
-3.58975e-08
-1.78509e-07
-3.69043e-08
-1.91426e-07
-8.29731e-08
-3.53785e-08
-7.87279e-08
-1.15745e-07
-6.72446e-08
-1.37381e-07
-3.69038e-08
-1.91426e-07
-2.05806e-07
-1.12349e-07
-1.12349e-07
1.69507e-07
-1.05709e-07
-1.18153e-07
6.34879e-08
-8.84919e-08
-1.21085e-07
3.51887e-08
-4.75152e-08
-1.24619e-07
-3.41738e-08
-1.26232e-07
-5.02439e-08
-1.18153e-07
-1.05709e-07
6.34878e-08
-1.1204e-07
-1.1204e-07
-4.86301e-08
-9.39337e-08
-1.16309e-07
-7.97228e-08
-5.08341e-08
-1.20574e-07
-1.52441e-07
-1.23197e-07
-1.69861e-07
-1.21085e-07
-8.84923e-08
3.51884e-08
-1.16309e-07
-9.39339e-08
-7.9723e-08
-9.86937e-08
-9.86939e-08
-1.12575e-07
-5.34958e-08
-1.04331e-07
-1.87904e-07
-1.07188e-07
-2.07124e-07
-1.24619e-07
-4.75157e-08
-3.41744e-08
-1.20574e-07
-5.08344e-08
-1.52442e-07
-1.04331e-07
-5.34961e-08
-1.87904e-07
-5.71701e-08
-5.71706e-08
-2.72832e-07
-5.86539e-08
-2.97378e-07
-1.26232e-07
-5.02449e-08
-1.23197e-07
-1.69862e-07
-1.07187e-07
-2.07125e-07
-5.86534e-08
-2.97378e-07
-3.2353e-07
-1.6058e-07
-1.6058e-07
2.49348e-07
-1.53546e-07
-1.72291e-07
9.96475e-08
-1.30864e-07
-1.79049e-07
5.95726e-08
-7.09608e-08
-1.87804e-07
-4.3232e-08
-1.92331e-07
-6.7744e-08
-1.72291e-07
-1.53547e-07
9.96474e-08
-1.65239e-07
-1.65239e-07
-6.27303e-08
-1.42382e-07
-1.72972e-07
-1.08655e-07
-7.67597e-08
-1.83508e-07
-2.22357e-07
-1.8776e-07
-2.51564e-07
-1.79049e-07
-1.30865e-07
5.95723e-08
-1.72972e-07
-1.42383e-07
-1.08655e-07
-1.50756e-07
-1.50756e-07
-1.57004e-07
-8.11344e-08
-1.59809e-07
-2.81223e-07
-1.62624e-07
-3.13756e-07
-1.87804e-07
-7.09612e-08
-4.32328e-08
-1.83508e-07
-7.67601e-08
-2.22358e-07
-1.59808e-07
-8.11347e-08
-2.81223e-07
-8.48721e-08
-8.48725e-08
-4.22703e-07
-8.58714e-08
-4.59352e-07
-1.92331e-07
-6.7745e-08
-1.8776e-07
-2.51565e-07
-1.62623e-07
-3.13756e-07
-8.58708e-08
-4.59352e-07
-4.95877e-07
-2.33702e-07
-2.33703e-07
3.60934e-07
-2.2147e-07
-2.52764e-07
1.49144e-07
-1.87708e-07
-2.6244e-07
9.28777e-08
-1.00434e-07
-2.78881e-07
-5.62317e-08
-2.85623e-07
-9.04269e-08
-2.52764e-07
-2.21471e-07
1.49144e-07
-2.4123e-07
-2.4123e-07
-8.57959e-08
-2.07714e-07
-2.51834e-07
-1.52774e-07
-1.1152e-07
-2.67048e-07
-3.30382e-07
-2.71811e-07
-3.77416e-07
-2.6244e-07
-1.87708e-07
9.28772e-08
-2.51834e-07
-2.07715e-07
-1.52774e-07
-2.15575e-07
-2.15575e-07
-2.2952e-07
-1.1448e-07
-2.35328e-07
-4.14034e-07
-2.42195e-07
-4.58346e-07
-2.78881e-07
-1.00435e-07
-5.62326e-08
-2.67048e-07
-1.1152e-07
-3.30383e-07
-2.35327e-07
-1.14481e-07
-4.14035e-07
-1.23091e-07
-1.23092e-07
-6.47171e-07
-1.24685e-07
-7.00427e-07
-2.85623e-07
-9.04281e-08
-2.7181e-07
-3.77417e-07
-2.42194e-07
-4.58346e-07
-1.24684e-07
-7.00427e-07
-7.46085e-07
-3.34595e-07
-3.34595e-07
5.0565e-07
-3.1414e-07
-3.62549e-07
2.12826e-07
-2.6502e-07
-3.79702e-07
1.37324e-07
-1.42813e-07
-4.11289e-07
-6.31351e-08
-4.22609e-07
-1.09335e-07
-3.62549e-07
-3.14141e-07
2.12826e-07
-3.43473e-07
-3.43473e-07
-1.23947e-07
-2.99679e-07
-3.5709e-07
-2.19179e-07
-1.59234e-07
-3.7702e-07
-5.05096e-07
-3.78314e-07
-5.81626e-07
-3.79702e-07
-2.65021e-07
1.37324e-07
-3.57089e-07
-2.9968e-07
-2.19179e-07
-3.10613e-07
-3.10614e-07
-3.2247e-07
-1.5943e-07
-2.95446e-07
-6.46788e-07
-2.86228e-07
-7.10495e-07
-4.11289e-07
-1.42814e-07
-6.31363e-08
-3.77019e-07
-1.59235e-07
-5.05097e-07
-2.95445e-07
-1.59431e-07
-6.46789e-07
-1.52901e-07
-1.52902e-07
-9.32253e-07
-1.50298e-07
-9.89837e-07
-4.22609e-07
-1.09337e-07
-3.78313e-07
-5.81628e-07
-2.86227e-07
-7.10496e-07
-1.50297e-07
-9.89837e-07
-1.04772e-06
-4.60233e-07
-4.60234e-07
6.68045e-07
-4.42912e-07
-5.2308e-07
3.09456e-07
-3.70931e-07
-5.49582e-07
1.93759e-07
-1.98304e-07
-5.88235e-07
-8.48362e-08
-5.94334e-07
-1.57305e-07
-5.2308e-07
-4.42913e-07
3.09456e-07
-4.93087e-07
-4.93088e-07
-1.83933e-07
-4.16072e-07
-5.1639e-07
-3.29387e-07
-2.12459e-07
-5.14847e-07
-7.82097e-07
-5.14576e-07
-8.74754e-07
-5.49581e-07
-3.70932e-07
1.93759e-07
-5.16389e-07
-4.16073e-07
-3.29388e-07
-4.01063e-07
-4.01064e-07
-5.53122e-07
-2.10571e-07
-3.98054e-07
-9.54072e-07
-3.96379e-07
-1.04013e-06
-5.88234e-07
-1.98306e-07
-8.48381e-08
-5.14846e-07
-2.12461e-07
-7.82099e-07
-3.98052e-07
-2.10573e-07
-9.54073e-07
-2.12864e-07
-2.12865e-07
-1.30263e-06
-2.13028e-07
-1.38688e-06
-5.94333e-07
-1.57308e-07
-5.14574e-07
-8.74756e-07
-3.96378e-07
-1.04013e-06
-2.13027e-07
-1.38688e-06
-1.4753e-06
-6.61408e-07
-6.61408e-07
8.85629e-07
-6.34799e-07
-7.5869e-07
4.41831e-07
-5.23504e-07
-8.00492e-07
2.68462e-07
-2.88764e-07
-8.14213e-07
-1.43426e-07
-8.09536e-07
-2.8419e-07
-7.5869e-07
-6.348e-07
4.41831e-07
-7.12789e-07
-7.12791e-07
-2.75735e-07
-5.42492e-07
-7.03706e-07
-5.9647e-07
-2.9419e-07
-7.2353e-07
-1.12108e-06
-7.28901e-07
-1.25076e-06
-8.00491e-07
-5.23506e-07
2.68461e-07
-7.03705e-07
-5.42494e-07
-5.96471e-07
-5.44631e-07
-5.44633e-07
-8.7127e-07
-2.97607e-07
-5.71924e-07
-1.3527e-06
-5.81937e-07
-1.48583e-06
-8.14212e-07
-2.88766e-07
-1.43429e-07
-7.23528e-07
-2.94192e-07
-1.12109e-06
-5.71922e-07
-2.97609e-07
-1.3527e-06
-3.13944e-07
-3.13945e-07
-1.81858e-06
-3.20333e-07
-1.96349e-06
-8.09534e-07
-2.84196e-07
-7.28899e-07
-1.25076e-06
-5.81936e-07
-1.48583e-06
-3.20331e-07
-1.96349e-06
-2.11795e-06
-9.69312e-07
-9.69313e-07
1.23839e-06
-8.98054e-07
-1.09714e-06
5.97112e-07
-7.53605e-07
-1.1341e-06
3.56867e-07
-4.26333e-07
-1.16413e-06
-2.53305e-07
-1.15923e-06
-5.1832e-07
-1.09714e-06
-8.98056e-07
5.97111e-07
-9.95786e-07
-9.95788e-07
-4.78441e-07
-7.96688e-07
-1.02627e-06
-9.03397e-07
-4.4111e-07
-1.08435e-06
-1.55644e-06
-1.10466e-06
-1.74807e-06
-1.1341e-06
-7.53607e-07
3.56865e-07
-1.02627e-06
-7.9669e-07
-9.03398e-07
-8.24698e-07
-8.247e-07
-1.2744e-06
-4.56467e-07
-8.83936e-07
-1.92134e-06
-9.0762e-07
-2.14091e-06
-1.16413e-06
-4.26334e-07
-2.5331e-07
-1.08435e-06
-4.41112e-07
-1.55644e-06
-8.83934e-07
-4.56469e-07
-1.92134e-06
-4.89514e-07
-4.89516e-07
-2.60742e-06
-5.04397e-07
-2.8577e-06
-1.15923e-06
-5.18326e-07
-1.10466e-06
-1.74807e-06
-9.07618e-07
-2.14091e-06
-5.04395e-07
-2.8577e-06
-3.12949e-06
-1.43393e-06
-1.43394e-06
1.81594e-06
-1.3187e-06
-1.58676e-06
7.91849e-07
-1.12068e-06
-1.6431e-06
4.7576e-07
-5.97399e-07
-1.7155e-06
-4.76343e-07
-1.76027e-06
-8.08741e-07
-1.58676e-06
-1.3187e-06
7.91848e-07
-1.47939e-06
-1.47939e-06
-6.93171e-07
-1.2172e-06
-1.55788e-06
-1.25081e-06
-6.78784e-07
-1.68127e-06
-2.12908e-06
-1.7373e-06
-2.45182e-06
-1.64309e-06
-1.12068e-06
4.75757e-07
-1.55788e-06
-1.2172e-06
-1.25081e-06
-1.28806e-06
-1.28806e-06
-1.81404e-06
-7.22689e-07
-1.39941e-06
-2.76856e-06
-1.45101e-06
-3.15178e-06
-1.71549e-06
-5.97402e-07
-4.7635e-07
-1.68127e-06
-6.78788e-07
-2.12908e-06
-1.39941e-06
-7.22693e-07
-2.76856e-06
-7.87079e-07
-7.87083e-07
-3.83208e-06
-8.20238e-07
-4.27728e-06
-1.76027e-06
-8.08748e-07
-1.7373e-06
-2.45182e-06
-1.45101e-06
-3.15179e-06
-8.20234e-07
-4.27728e-06
-4.77315e-06
-2.04494e-06
-2.04494e-06
2.66044e-06
-1.93986e-06
-2.30493e-06
1.15534e-06
-1.59409e-06
-2.41811e-06
6.13754e-07
-8.7845e-07
-2.61026e-06
-6.60944e-07
-2.70615e-06
-1.12873e-06
-2.30493e-06
-1.93986e-06
1.15534e-06
-2.21936e-06
-2.21937e-06
-8.64308e-07
-1.83347e-06
-2.36338e-06
-1.69142e-06
-1.03083e-06
-2.57605e-06
-2.96591e-06
-2.68227e-06
-3.50933e-06
-2.41811e-06
-1.59409e-06
6.13751e-07
-2.36338e-06
-1.83347e-06
-1.69142e-06
-1.96438e-06
-1.96439e-06
-2.61202e-06
-1.11398e-06
-2.14342e-06
-4.05159e-06
-2.23765e-06
-4.71308e-06
-2.61026e-06
-8.78454e-07
-6.60951e-07
-2.57605e-06
-1.03084e-06
-2.96592e-06
-2.14341e-06
-1.11399e-06
-4.0516e-06
-1.2244e-06
-1.22441e-06
-5.6701e-06
-1.28491e-06
-6.45689e-06
-2.70615e-06
-1.12874e-06
-2.68227e-06
-3.50933e-06
-2.23765e-06
-4.71308e-06
-1.2849e-06
-6.4569e-06
-7.34762e-06
-2.97726e-06
-2.97727e-06
3.96503e-06
-2.93212e-06
-3.47435e-06
1.87292e-06
-2.40601e-06
-3.69274e-06
8.92949e-07
-1.35007e-06
-4.06018e-06
-7.95385e-07
-4.26142e-06
-1.48237e-06
-3.47435e-06
-2.93212e-06
1.87292e-06
-3.43218e-06
-3.43218e-06
-9.48656e-07
-2.85399e-06
-3.72456e-06
-2.23779e-06
-1.63359e-06
-4.10829e-06
-4.1382e-06
-4.33728e-06
-5.07029e-06
-3.69274e-06
-2.40602e-06
8.92946e-07
-3.72455e-06
-2.854e-06
-2.23779e-06
-3.11946e-06
-3.11946e-06
-3.82221e-06
-1.81635e-06
-3.45069e-06
-6.0123e-06
-3.66351e-06
-7.20628e-06
-4.06018e-06
-1.35008e-06
-7.95394e-07
-4.10828e-06
-1.6336e-06
-4.13821e-06
-3.45068e-06
-1.81636e-06
-6.0123e-06
-2.02793e-06
-2.02794e-06
-8.51561e-06
-2.1815e-06
-9.96947e-06
-4.26141e-06
-1.48238e-06
-4.33727e-06
-5.0703e-06
-3.6635e-06
-7.20628e-06
-2.18149e-06
-9.96948e-06
-1.17157e-05
-4.18401e-06
-4.18401e-06
5.83571e-06
-4.16965e-06
-4.99088e-06
3.05048e-06
-3.50071e-06
-5.44172e-06
1.53908e-06
-2.00048e-06
-5.99133e-06
-8.234e-07
-6.33092e-06
-1.90768e-06
-4.99088e-06
-4.16966e-06
3.05048e-06
-5.01757e-06
-5.01758e-06
-8.95266e-07
-4.20181e-06
-5.54691e-06
-2.94836e-06
-2.45561e-06
-6.18812e-06
-5.68761e-06
-6.60402e-06
-7.25747e-06
-5.44172e-06
-3.50072e-06
1.53908e-06
-5.5469e-06
-4.20182e-06
-2.94837e-06
-4.67776e-06
-4.67777e-06
-5.5605e-06
-2.77595e-06
-5.24928e-06
-8.85294e-06
-5.64446e-06
-1.09463e-05
-5.99133e-06
-2.00049e-06
-8.23412e-07
-6.18811e-06
-2.45562e-06
-5.68762e-06
-5.24927e-06
-2.77596e-06
-8.85295e-06
-3.15923e-06
-3.15924e-06
-1.26957e-05
-3.42291e-06
-1.53543e-05
-6.33091e-06
-1.9077e-06
-6.60401e-06
-7.25749e-06
-5.64445e-06
-1.09463e-05
-3.4229e-06
-1.53543e-05
-1.85693e-05
-6.04818e-06
-6.04819e-06
8.73064e-06
-6.29304e-06
-7.61948e-06
5.28368e-06
-5.43482e-06
-8.48635e-06
2.96736e-06
-3.17292e-06
-9.44344e-06
-5.31372e-07
-1.01539e-05
-2.25422e-06
-7.61947e-06
-6.29306e-06
5.28368e-06
-7.8257e-06
-7.82571e-06
-4.82809e-07
-6.63508e-06
-8.92604e-06
-3.69929e-06
-4.0014e-06
-1.01266e-05
-7.63807e-06
-1.10956e-05
-1.03218e-05
-8.48634e-06
-5.43484e-06
2.96736e-06
-8.92602e-06
-6.63509e-06
-3.6993e-06
-7.67258e-06
-7.67259e-06
-8.06738e-06
-4.77608e-06
-8.78965e-06
-1.30864e-05
-9.79305e-06
-1.70297e-05
-9.44343e-06
-3.17294e-06
-5.31389e-07
-1.01266e-05
-4.00142e-06
-7.63808e-06
-8.78963e-06
-4.7761e-06
-1.30864e-05
-5.55084e-06
-5.55086e-06
-1.91733e-05
-6.37277e-06
-2.43292e-05
-1.01539e-05
-2.25425e-06
-1.10956e-05
-1.03219e-05
-9.79303e-06
-1.70297e-05
-6.37275e-06
-2.43292e-05
-3.13228e-05
-8.34174e-06
-8.34175e-06
1.28597e-05
-8.64354e-06
-1.03332e-05
8.35654e-06
-7.4356e-06
-1.19936e-05
5.12889e-06
-4.52113e-06
-1.36315e-05
4.96161e-07
-1.49177e-05
-2.39674e-06
-1.03332e-05
-8.64355e-06
8.35654e-06
-1.11313e-05
-1.11313e-05
1.11333e-06
-9.58171e-06
-1.3024e-05
-4.21845e-06
-5.95269e-06
-1.50882e-05
-9.81034e-06
-1.68245e-05
-1.43751e-05
-1.19936e-05
-7.43562e-06
5.12888e-06
-1.3024e-05
-9.58173e-06
-4.21846e-06
-1.1412e-05
-1.1412e-05
-1.12913e-05
-7.23964e-06
-1.34173e-05
-1.89297e-05
-1.52214e-05
-2.58797e-05
-1.36315e-05
-4.52115e-06
4.96136e-07
-1.50882e-05
-5.95271e-06
-9.81036e-06
-1.34173e-05
-7.23966e-06
-1.89297e-05
-8.76605e-06
-8.76608e-06
-2.84757e-05
-9.98975e-06
-3.83332e-05
-1.49176e-05
-2.39678e-06
-1.68245e-05
-1.43751e-05
-1.52214e-05
-2.58797e-05
-9.98973e-06
-3.83332e-05
-5.13149e-05
-1.19264e-05
-1.19265e-05
1.93429e-05
-1.30247e-05
-1.57003e-05
1.40412e-05
-1.15123e-05
-1.89165e-05
9.57497e-06
-7.51017e-06
-2.19938e-05
3.53701e-06
-2.46915e-05
-1.65082e-06
-1.57003e-05
-1.30247e-05
1.40412e-05
-1.75835e-05
-1.75835e-05
4.87969e-06
-1.54042e-05
-2.15122e-05
-3.80202e-06
-9.99936e-06
-2.55247e-05
-1.16842e-05
-2.98467e-05
-1.9226e-05
-1.89165e-05
-1.15123e-05
9.57497e-06
-2.15122e-05
-1.54042e-05
-3.80203e-06
-1.95739e-05
-1.9574e-05
-1.51679e-05
-1.34561e-05
-2.36455e-05
-2.69267e-05
-2.88385e-05
-4.03516e-05
-2.19938e-05
-7.51021e-06
3.53698e-06
-2.55247e-05
-9.9994e-06
-1.16843e-05
-2.36454e-05
-1.34562e-05
-2.69267e-05
-1.65908e-05
-1.65908e-05
-4.2585e-05
-2.15457e-05
-6.22218e-05
-2.46914e-05
-1.65087e-06
-2.98466e-05
-1.9226e-05
-2.88385e-05
-4.03516e-05
-2.15456e-05
-6.22218e-05
-9.44218e-05
-1.56904e-05
-1.56904e-05
2.82199e-05
-1.71414e-05
-2.04446e-05
2.16577e-05
-1.50591e-05
-2.56733e-05
1.58047e-05
-9.77755e-06
-3.08112e-05
8.83737e-06
-3.60096e-05
1.22205e-06
-2.04446e-05
-1.71415e-05
2.16577e-05
-2.39347e-05
-2.39348e-05
1.186e-05
-2.17087e-05
-3.05126e-05
-1.18877e-06
-1.47576e-05
-3.74673e-05
-1.19792e-05
-4.51652e-05
-2.48384e-05
-2.56733e-05
-1.50592e-05
1.58047e-05
-3.05126e-05
-2.17087e-05
-1.18878e-06
-2.88129e-05
-2.88129e-05
-1.85673e-05
-2.003e-05
-3.66001e-05
-3.65768e-05
-4.54793e-05
-6.00783e-05
-3.08112e-05
-9.77761e-06
8.83734e-06
-3.74673e-05
-1.47577e-05
-1.19792e-05
-3.66001e-05
-2.003e-05
-3.65769e-05
-2.71403e-05
-2.71403e-05
-6.15046e-05
-3.29849e-05
-0.000101865
-3.60096e-05
1.22197e-06
-4.51652e-05
-2.48384e-05
-4.54793e-05
-6.00784e-05
-3.29849e-05
-0.000101865
-0.000160408
-2.17776e-05
-2.17776e-05
4.1972e-05
-2.53276e-05
-3.04547e-05
3.51706e-05
-2.33396e-05
-3.9955e-05
2.83184e-05
-1.63116e-05
-4.98337e-05
2.05646e-05
-6.12992e-05
1.00222e-05
-3.04547e-05
-2.53276e-05
3.51706e-05
-3.6931e-05
-3.69311e-05
2.48127e-05
-3.54491e-05
-5.13097e-05
8.68396e-06
-2.49876e-05
-6.44199e-05
-7.85456e-06
-8.41756e-05
-2.69577e-05
-3.9955e-05
-2.33396e-05
2.83184e-05
-5.13097e-05
-3.54492e-05
8.68394e-06
-5.15602e-05
-5.15603e-05
-1.80662e-05
-4.03383e-05
-6.72839e-05
-4.49348e-05
-9.66304e-05
-8.79741e-05
-4.98336e-05
-1.63117e-05
2.05645e-05
-6.44198e-05
-2.49876e-05
-7.85461e-06
-6.72838e-05
-4.03384e-05
-4.49348e-05
-5.4198e-05
-5.41981e-05
-8.76763e-05
-8.74758e-05
-0.000165221
-6.12992e-05
1.00221e-05
-8.41756e-05
-2.69578e-05
-9.66303e-05
-8.79742e-05
-8.74758e-05
-0.000165221
-0.000335401
-2.60732e-05
-2.60732e-05
5.92701e-05
-3.12494e-05
-3.77118e-05
5.35901e-05
-2.93693e-05
-5.09749e-05
4.532e-05
-2.02742e-05
-6.5592e-05
3.75608e-05
-8.60281e-05
2.49187e-05
-3.77118e-05
-3.12495e-05
5.35901e-05
-4.67277e-05
-4.67277e-05
4.28445e-05
-4.76207e-05
-6.89739e-05
2.7576e-05
-3.75141e-05
-9.23475e-05
8.79434e-06
-0.000128135
-2.23766e-05
-5.09749e-05
-2.93694e-05
4.532e-05
-6.89739e-05
-4.76208e-05
2.7576e-05
-7.40317e-05
-7.40318e-05
-7.95055e-06
-5.81082e-05
-0.000107755
-4.54503e-05
-0.000154653
-0.000119579
-6.55919e-05
-2.02743e-05
3.75608e-05
-9.23474e-05
-3.75142e-05
8.79427e-06
-0.000107755
-5.81083e-05
-4.54504e-05
-9.69222e-05
-9.69223e-05
-0.000109342
-0.000124486
-0.000292322
-8.60281e-05
2.49186e-05
-0.000128135
-2.23767e-05
-0.000154652
-0.000119579
-0.000124486
-0.000292322
-0.000584371
-3.37662e-05
-3.37662e-05
8.38069e-05
-4.26944e-05
-5.21387e-05
8.2094e-05
-4.27345e-05
-7.61245e-05
7.72847e-05
-3.30919e-05
-0.000101819
7.18552e-05
-0.000143494
6.21966e-05
-5.21386e-05
-4.26945e-05
8.2094e-05
-6.85255e-05
-6.85255e-05
7.56182e-05
-7.20535e-05
-0.000108865
6.38447e-05
-5.78066e-05
-0.000154706
4.74348e-05
-0.000237988
1.43054e-05
-7.61244e-05
-4.27347e-05
7.72846e-05
-0.000108865
-7.20536e-05
6.38447e-05
-0.000131266
-0.000131267
3.68521e-05
-0.000118897
-0.000197552
-1.49738e-05
-0.000377462
-9.90185e-05
-0.000101819
-3.3092e-05
7.18551e-05
-0.000154706
-5.78068e-05
4.74347e-05
-0.000197552
-0.000118897
-1.49739e-05
-0.00018546
-0.00018546
-0.000133527
-0.000430627
-0.0004246
-0.000143494
6.21965e-05
-0.000237988
1.43052e-05
-0.000377462
-9.90187e-05
-0.000430626
-0.0004246
-0.000264268
-0.000351878
-0.000351878
-0.000477757
-3.34929e-05
-3.3493e-05
0.000109074
-4.34883e-05
-5.48958e-05
0.000114263
-4.54933e-05
-8.57603e-05
0.000116621
-3.56281e-05
-0.000122782
0.00012041
-0.000192455
0.000120653
-5.48957e-05
-4.34884e-05
0.000114263
-7.56954e-05
-7.56955e-05
0.000117218
-8.94003e-05
-0.000130447
0.000122237
-8.18675e-05
-0.0001989
0.000116021
-0.000385562
0.000125535
-8.57602e-05
-4.54934e-05
0.000116621
-0.000130447
-8.94005e-05
0.000122237
-0.000174311
-0.000174311
0.000124579
-0.000166068
-0.000341215
0.000119099
-0.000762782
0.000112114
-0.000122782
-3.56282e-05
0.00012041
-0.0001989
-8.18677e-05
0.000116021
-0.000341215
-0.000166069
0.000119099
-0.000415981
-0.000415981
1.60042e-05
-0.000157327
-3.25106e-05
-9.12455e-05
-0.000144396
-0.000270031
-0.000172791
-0.000313707
-0.000421421
-0.000192455
0.000120653
-0.000385562
0.000125534
-0.000762782
0.000112113
-0.000157327
-3.25106e-05
-0.000144396
-9.12454e-05
-0.000270031
-0.000172791
-0.000313707
-0.00042142
-0.00011137
-0.000111371
-0.00035618
-3.44518e-05
-3.44519e-05
0.000136842
-4.70847e-05
-6.1462e-05
0.000151409
-5.23133e-05
-9.93149e-05
0.000167985
-4.42632e-05
-0.000157544
0.000186407
-0.000243469
0.000211208
-6.14619e-05
-4.70849e-05
0.000151409
-8.98889e-05
-8.98891e-05
0.000174072
-0.000108578
-0.000163402
0.000205013
-8.8486e-05
-0.000301949
0.000240334
-0.000501616
0.000295207
-9.93147e-05
-5.23136e-05
0.000167985
-0.000163402
-0.000108578
0.000205013
-0.000235967
-0.000235967
0.00026971
-0.000234223
-0.000539554
0.00035496
-0.00022806
0.000526021
-0.000304155
-0.000271811
-0.000345708
-0.000157544
-4.42635e-05
0.000186406
-0.000301948
-8.84862e-05
0.000240334
-0.000539554
-0.000234223
0.00035496
-0.000127837
-0.000127837
0.000147543
-0.000251732
-0.000171439
-0.000347527
-0.000251732
-0.000171439
-0.000347527
0.000169998
0.000169998
0.000246428
-9.65853e-05
-0.000357833
6.60107e-05
-0.000243469
0.000211208
-0.000501616
0.000295207
-0.00022806
0.00052602
-0.000304155
-0.00027181
-0.000345708
-0.000357833
-9.65853e-05
6.60107e-05
0.000537183
0.000537183
-0.000218552
-4.32386e-05
-9.47957e-05
-9.47957e-05
0.000416708
-0.000175575
-0.000108783
-0.000116218
-0.00011927
-0.000175575
-0.000108783
-0.000116218
-0.00011927
-1.78705e-05
-1.78706e-05
0.000150385
-2.30437e-05
-3.29036e-05
0.000167989
-2.3403e-05
-4.63825e-05
0.00018664
-1.8047e-05
-6.93928e-05
0.000206311
-8.88626e-05
0.00022996
-3.29034e-05
-2.30439e-05
0.000167989
-4.41124e-05
-4.41126e-05
0.00019649
-4.88869e-05
-6.51156e-05
0.00022852
-3.51501e-05
-0.000111404
0.000268608
-0.000140933
0.000312154
-4.63823e-05
-2.34033e-05
0.000186639
-6.51154e-05
-4.88871e-05
0.00022852
-7.52963e-05
-7.52967e-05
0.000290072
-6.01619e-05
-6.40591e-05
0.000365612
-0.000101532
-4.70934e-06
3.31104e-05
-0.000145952
0.000493268
-0.000212341
5.99325e-05
0.000130098
-6.93925e-05
-1.80474e-05
0.000206311
-0.000111404
-3.51504e-05
0.000268608
-6.40591e-05
-6.01628e-05
0.000365612
-0.000101532
-4.70936e-06
3.31105e-05
-7.89651e-05
-7.89652e-05
0.000177355
-0.000251778
7.87219e-05
-5.48503e-05
0.000344465
-4.25963e-05
-7.92986e-05
-0.000107011
-3.36045e-05
-8.88623e-05
0.00022996
-0.000140933
0.000312154
-0.000145951
0.000493264
-0.000212341
5.99327e-05
0.000130099
-0.000251778
7.87218e-05
-5.485e-05
0.000344465
-4.25963e-05
-7.92986e-05
-0.000107011
-3.36045e-05
-0.000101231
0.000148294
0.000148294
-0.0001874
-0.0001874
0.000179443
-3.26025e-06
-3.26046e-06
0.000150718
-1.7697e-06
-5.54156e-06
0.000166135
2.24168e-06
2.10145e-06
0.000176031
5.04193e-06
1.23517e-05
0.000186962
4.52264e-05
0.000189306
-5.54137e-06
-1.77005e-06
0.000166135
-1.55537e-06
-1.55559e-06
0.000188518
5.82943e-06
2.07653e-05
0.000202472
9.98153e-06
5.60559e-05
0.000220752
0.000143893
0.000223493
2.1017e-06
2.24122e-06
0.000176031
2.07654e-05
5.82933e-06
0.000202471
5.93445e-05
5.93436e-05
0.000212915
8.13502e-05
0.000180502
0.00021916
0.000157595
0.000157837
0.000212878
7.27263e-05
0.000117576
1.23522e-05
5.04103e-06
0.000186962
5.60564e-05
9.98143e-06
0.000220752
0.000180505
8.13473e-05
0.00021916
8.65976e-05
8.65993e-05
9.51014e-05
-0.00012728
-0.00015435
-0.00015435
-0.000228937
0.000233537
3.77454e-05
0.00010753
0.000233538
3.77477e-05
0.000107529
-0.000209984
8.40723e-05
0.000342633
2.74707e-05
4.52266e-05
0.000189306
0.000143894
0.000223494
0.000157595
0.000157831
0.000212881
7.27243e-05
0.000117575
-0.000209984
0.000342632
8.40759e-05
2.74705e-05
-3.98775e-05
-0.000152772
-0.000152772
0.000190551
0.000190551
-3.56799e-05
7.77988e-06
7.77966e-06
0.000145975
8.28299e-06
4.0343e-06
0.00016289
5.32615e-06
2.58379e-06
0.000178146
1.14387e-06
-1.05104e-05
0.000194134
-2.81294e-05
0.000210547
4.03447e-06
8.28264e-06
0.00016289
2.33813e-06
2.33795e-06
0.00019191
-4.60608e-06
-4.80657e-06
0.000216806
-4.78354e-06
-3.99227e-05
0.000250342
-8.23286e-05
0.000272994
2.5841e-06
5.3255e-06
0.000178146
-4.80673e-06
-4.60583e-06
0.000216806
-2.94175e-05
-2.94203e-05
0.000262139
-4.4752e-05
-0.000121454
0.000316026
-1.9883e-05
0.000381742