/*--------------------------------*- C++ -*----------------------------------*\
| =========                 |                                                 |
| \\      /  F ield         | OpenFOAM: The Open Source CFD Toolbox           |
|  \\    /   O peration     | Version:  5.x                                   |
|   \\  /    A nd           | Web:      www.OpenFOAM.org                      |
|    \\/     M anipulation  |                                                 |
\*---------------------------------------------------------------------------*/
FoamFile
{
    version     2.0;
    format      ascii;
    class       volScalarField;
    location    "0.012";
    object      phiIB;
}
// * * * * * * * * * * * * * * * * * * * * * * * * * * * * * * * * * * * * * //

dimensions      [0 2 -1 0 0 0 0];

internalField   nonuniform List<scalar> 
1553
(
-5.42614e-06
-5.42819e-06
-5.42922e-06
-5.42839e-06
-5.42894e-06
-5.42819e-06
-5.42668e-06
-5.42743e-06
-5.42656e-06
-5.42696e-06
-5.42922e-06
-5.42743e-06
-5.42827e-06
-5.42725e-06
-5.42754e-06
-5.42839e-06
-5.42656e-06
-5.42725e-06
-5.42629e-06
-5.42656e-06
-5.42894e-06
-5.42696e-06
-5.42754e-06
-5.42656e-06
-5.42681e-06
-1.50638e-05
-1.50604e-05
-1.50598e-05
-1.50583e-05
-1.50582e-05
-1.50604e-05
-1.50581e-05
-1.50578e-05
-1.50566e-05
-1.50565e-05
-1.50598e-05
-1.50578e-05
-1.50576e-05
-1.50565e-05
-1.50564e-05
-1.50583e-05
-1.50566e-05
-1.50565e-05
-1.50555e-05
-1.50555e-05
-1.50582e-05
-1.50565e-05
-1.50564e-05
-1.50555e-05
-1.50554e-05
-2.55471e-05
-2.55442e-05
-2.55442e-05
-2.55424e-05
-2.55424e-05
-2.55442e-05
-2.55412e-05
-2.55411e-05
-2.55393e-05
-2.55393e-05
-2.55442e-05
-2.55411e-05
-2.55409e-05
-2.55392e-05
-2.55391e-05
-2.55424e-05
-2.55393e-05
-2.55392e-05
-2.55375e-05
-2.55374e-05
-2.55424e-05
-2.55393e-05
-2.55391e-05
-2.55374e-05
-2.55374e-05
-3.72231e-05
-3.72185e-05
-3.72179e-05
-3.72153e-05
-3.72151e-05
-3.72185e-05
-3.7214e-05
-3.72135e-05
-3.7211e-05
-3.72108e-05
-3.72179e-05
-3.72135e-05
-3.7213e-05
-3.72106e-05
-3.72104e-05
-3.72153e-05
-3.7211e-05
-3.72106e-05
-3.72083e-05
-3.72081e-05
-3.72151e-05
-3.72108e-05
-3.72104e-05
-3.72081e-05
-3.7208e-05
-4.69592e-05
-4.69532e-05
-4.69524e-05
-4.6949e-05
-4.69487e-05
-4.69532e-05
-4.69471e-05
-4.69463e-05
-4.69428e-05
-4.69425e-05
-4.69524e-05
-4.69463e-05
-4.69455e-05
-4.6942e-05
-4.69417e-05
-4.6949e-05
-4.69428e-05
-4.6942e-05
-4.69385e-05
-4.69382e-05
-4.69487e-05
-4.69425e-05
-4.69417e-05
-4.69382e-05
-4.69379e-05
-5.90079e-05
-5.89987e-05
-5.89973e-05
-5.8992e-05
-5.89914e-05
-5.89987e-05
-5.89895e-05
-5.89881e-05
-5.89828e-05
-5.89822e-05
-5.89973e-05
-5.89881e-05
-5.89866e-05
-5.89814e-05
-5.89809e-05
-5.8992e-05
-5.89828e-05
-5.89814e-05
-5.89763e-05
-5.89758e-05
-5.89914e-05
-5.89822e-05
-5.89809e-05
-5.89758e-05
-5.89753e-05
-6.86688e-05
-6.86557e-05
-6.86532e-05
-6.86452e-05
-6.86442e-05
-6.86557e-05
-6.86424e-05
-6.86398e-05
-6.86316e-05
-6.86305e-05
-6.86532e-05
-6.86398e-05
-6.86371e-05
-6.86288e-05
-6.86276e-05
-6.86452e-05
-6.86316e-05
-6.86288e-05
-6.86202e-05
-6.86189e-05
-6.86442e-05
-6.86305e-05
-6.86276e-05
-6.86189e-05
-6.86174e-05
-8.05628e-05
-8.05436e-05
-8.05393e-05
-8.05271e-05
-8.05252e-05
-8.05436e-05
-8.05237e-05
-8.05191e-05
-8.05063e-05
-8.05043e-05
-8.05393e-05
-8.05191e-05
-8.05142e-05
-8.05008e-05
-8.04983e-05
-8.05271e-05
-8.05063e-05
-8.05008e-05
-8.04863e-05
-8.04832e-05
-8.05252e-05
-8.05043e-05
-8.04983e-05
-8.04832e-05
-8.04798e-05
-9.04589e-05
-9.0431e-05
-9.04247e-05
-9.04064e-05
-9.04032e-05
-9.0431e-05
-9.04025e-05
-9.03958e-05
-9.03763e-05
-9.03725e-05
-9.04247e-05
-9.03958e-05
-9.03879e-05
-9.03661e-05
-9.03609e-05
-9.04064e-05
-9.03763e-05
-9.03661e-05
-9.03413e-05
-9.03339e-05
-9.04032e-05
-9.03725e-05
-9.03609e-05
-9.03339e-05
-9.03249e-05
-0.000102
-0.00010196
-0.000101953
-0.000101928
-0.000101924
-0.00010196
-0.00010192
-0.000101912
-0.000101885
-0.00010188
-0.000101953
-0.000101912
-0.000101901
-0.00010187
-0.000101862
-0.000101928
-0.000101885
-0.00010187
-0.00010183
-0.000101815
-0.000101924
-0.00010188
-0.000101862
-0.000101815
-0.000101796
-0.000112133
-0.000112082
-0.000112079
-0.000112047
-0.000112043
-0.000112082
-0.000112029
-0.000112024
-0.000111986
-0.00011198
-0.000112079
-0.000112024
-0.000112013
-0.000111967
-0.000111955
-0.000112047
-0.000111986
-0.000111967
-0.000111909
-0.00011189
-0.000112043
-0.00011198
-0.000111955
-0.00011189
-0.000111868
-0.000123229
-0.000123167
-0.00012318
-0.000123147
-0.000123148
-0.000123167
-0.000123101
-0.00012311
-0.000123066
-0.000123061
-0.00012318
-0.00012311
-0.000123114
-0.00012306
-0.000123054
-0.000123147
-0.000123066
-0.00012306
-0.000123009
-0.000123012
-0.000123148
-0.000123061
-0.000123054
-0.000123012
-0.000123024
-0.000133354
-0.000133271
-0.000133313
-0.000133299
-0.000133323
-0.000133271
-0.000133187
-0.000133228
-0.000133201
-0.000133223
-0.000133313
-0.000133228
-0.000133275
-0.000133269
-0.00013331
-0.000133299
-0.000133201
-0.000133269
-0.000133322
-0.000133405
-0.000133323
-0.000133223
-0.00013331
-0.000133405
-0.000133514
-0.00014382
-0.000143711
-0.000143791
-0.000143819
-0.000143886
-0.000143711
-0.000143592
-0.000143678
-0.000143721
-0.000143809
-0.000143791
-0.000143678
-0.000143801
-0.000143902
-0.000144023
-0.000143819
-0.000143721
-0.000143902
-0.000144082
-0.00014424
-0.000143886
-0.000143809
-0.000144023
-0.00014424
-0.000144412
-0.000153576
-0.000153388
-0.000153471
-0.000153524
-0.000153629
-0.000153388
-0.000153183
-0.0001533
-0.00015343
-0.00015358
-0.000153471
-0.0001533
-0.000153478
-0.000153638
-0.000153781
-0.000153524
-0.00015343
-0.000153638
-0.000153691
-0.00015376
-0.000153629
-0.00015358
-0.000153781
-0.00015376
-0.000153783
-0.00016333
-0.000162974
-0.00016299
-0.00016297
-0.000163033
-0.000162974
-0.000162652
-0.000162738
-0.000162743
-0.000162797
-0.00016299
-0.000162738
-0.000162839
-0.000162736
-0.000162722
-0.00016297
-0.000162742
-0.000162736
-0.000162455
-0.000162356
-0.000163033
-0.000162797
-0.000162722
-0.000162356
-0.000162212
-0.000172428
-0.000171849
-0.000171695
-0.000171433
-0.000171413
-0.000171849
-0.000171351
-0.000171235
-0.000170827
-0.000170686
-0.000171695
-0.000171235
-0.000170996
-0.000170434
-0.000170209
-0.000171433
-0.000170827
-0.000170434
-0.000169776
-0.000169511
-0.000171413
-0.000170686
-0.000170209
-0.000169511
-0.000169227
-0.000181299
-0.000180448
-0.000180001
-0.00017946
-0.000179358
-0.000180448
-0.000179611
-0.00017911
-0.000178331
-0.000178063
-0.000180001
-0.000179109
-0.000178499
-0.000177604
-0.000177258
-0.00017946
-0.000178331
-0.000177604
-0.000176682
-0.000176326
-0.000179358
-0.000178063
-0.000177258
-0.000176326
-0.000175972
-0.00018947
-0.000188243
-0.00018751
-0.000186637
-0.000186345
-0.000188243
-0.000186852
-0.000185962
-0.000184845
-0.000184459
-0.00018751
-0.000185962
-0.000184985
-0.000183789
-0.000183357
-0.000186637
-0.000184845
-0.000183789
-0.000182598
-0.000182163
-0.000186345
-0.000184459
-0.000183357
-0.000182162
-0.000181725
-0.00019747
-0.000195797
-0.000194915
-0.000193692
-0.000193256
-0.000195797
-0.000193839
-0.000192742
-0.000191372
-0.000190903
-0.000194915
-0.000192742
-0.000191524
-0.000190085
-0.000189595
-0.000193692
-0.000191372
-0.000190085
-0.000188577
-0.000188055
-0.000193256
-0.000190903
-0.000189594
-0.000188055
-0.000187522
-0.00020465
-0.000202346
-0.000201255
-0.000199654
-0.000199057
-0.000202346
-0.00019961
-0.000198199
-0.000196406
-0.00019577
-0.000201254
-0.000198199
-0.00019657
-0.000194649
-0.000193939
-0.000199653
-0.000196406
-0.000194649
-0.000192542
-0.000191738
-0.000199057
-0.00019577
-0.000193939
-0.000191738
-0.000190855
-0.000212472
-0.000209385
-0.00020811
-0.000206357
-0.000205837
-0.000209385
-0.000205939
-0.000204276
-0.000202074
-0.000201323
-0.00020811
-0.000204276
-0.000202323
-0.00019982
-0.000198937
-0.000206357
-0.000202074
-0.00019982
-0.000197002
-0.000195923
-0.000205836
-0.000201322
-0.000198937
-0.000195923
-0.000194791
-0.000218989
-0.000214697
-0.000212901
-0.000210819
-0.00021005
-0.000214697
-0.000209938
-0.000207488
-0.000204387
-0.000203156
-0.000212901
-0.000207488
-0.00020444
-0.000200753
-0.000199062
-0.000210819
-0.000204387
-0.000200753
-0.000196504
-0.000194463
-0.00021005
-0.000203156
-0.000199062
-0.000194463
-0.000192004
-0.000227642
-0.000222169
-0.000219941
-0.00021722
-0.000216694
-0.000222169
-0.000215487
-0.000212538
-0.000208607
-0.000207053
-0.000219941
-0.000212538
-0.000208686
-0.000203715
-0.00020171
-0.00021722
-0.000208607
-0.000203715
-0.000197827
-0.000194959
-0.000216694
-0.000207053
-0.00020171
-0.000194959
-0.000192063
-0.000232962
-0.000225471
-0.000222031
-0.000218464
-0.000217466
-0.000225471
-0.000215945
-0.000211489
-0.000205727
-0.00020281
-0.00022203
-0.000211489
-0.000204618
-0.000197213
-0.000192433
-0.000218463
-0.000205726
-0.000197213
-0.000188223
-0.000182159
-0.000217465
-0.000202809
-0.000192433
-0.000182159
-0.000173494
-0.000242156
-0.000233324
-0.00022935
-0.000224403
-0.000223382
-0.000233324
-0.000220285
-0.000214426
-0.00020714
-0.000202998
-0.00022935
-0.000214426
-0.000206185
-0.00019578
-0.000190717
-0.000224402
-0.00020714
-0.00019578
-0.000182867
-0.000173492
-0.000223382
-0.000202997
-0.000190716
-0.000173492
-0.000165368
-0.000244155
-0.000232548
-0.000226371
-0.000220766
-0.000217435
-0.000232548
-0.00021485
-0.000204753
-0.000195807
-0.000188482
-0.000226371
-0.000204752
-0.00019052
-0.000176178
-0.000161475
-0.000220765
-0.000195806
-0.000176178
-0.00015665
-0.000137013
-0.000217434
-0.000188482
-0.000161474
-0.000137013
-9.9678e-05
-0.000252136
-0.000239795
-0.000235386
-0.00022944
-0.000228098
-0.000239794
-0.000219326
-0.000204753
-0.000191978
-0.000181552
-0.000235386
-0.000204753
-0.000188583
-0.000166561
-0.000153069
-0.000229439
-0.000191977
-0.000166561
-0.000138752
-9.95822e-05
-0.000228097
-0.000181552
-0.000153068
-9.95819e-05
-7.22459e-05
-0.000246569
-0.000232653
-0.000224713
-0.000218604
-0.000211978
-0.000232653
-0.000206783
-0.000189159
-0.000169046
-0.000153444
-0.000224713
-0.000189159
-0.000157378
-0.000131874
-8.86875e-05
-0.000218604
-0.000169045
-0.000131874
-8.62093e-05
-2.19079e-05
-0.000211977
-0.000153443
-8.86866e-05
-2.19075e-05
0.000158269
-0.000248805
-0.000236155
-0.000233241
-0.000227211
-0.000226759
-0.000236154
-0.000211689
-0.00019365
-0.000176182
-0.000141723
-0.00023324
-0.000193649
-0.000167196
-0.000118486
-7.47557e-05
-0.00022721
-0.000176182
-0.000118486
-6.70145e-05
0.000131117
-0.000226757
-0.000141722
-7.47539e-05
0.000131117
0.000104802
-0.000230338
-0.000219076
-0.000212752
-0.00020828
-0.000201324
-0.000219076
-0.000190485
-0.000172491
-0.000142571
-0.000118304
-0.000212751
-0.000172491
-0.000138608
-8.84058e-05
-1.69175e-05
-0.000208279
-0.000142571
-8.84052e-05
3.86029e-05
3.37567e-05
-0.000201321
-0.000118303
-1.69135e-05
3.37578e-05
0.000577022
-0.000221996
-0.000217484
-0.000217708
-0.000218463
-0.000221608
-0.000217484
-0.00020116
-0.000195956
-0.000182908
-0.000177858
-0.000217707
-0.000195956
-0.00019409
-0.000185041
-0.000196082
-0.000218461
-0.000182907
-0.00018504
-0.000142806
-0.000127347
-0.000221604
-0.000177858
-0.000196071
-0.000127346
0.000184273
-0.000193573
-0.000191362
-0.000190078
-0.000189903
-0.000194576
-0.000191361
-0.000185752
-0.000182163
-0.000181763
-0.000178329
-0.000190076
-0.000182163
-0.00018631
-0.000186547
-0.000223895
-0.000189901
-0.000181763
-0.000186547
-0.000224896
-0.000264618
-0.00019457
-0.000178333
-0.000223877
-0.000264617
-0.000665674
-0.000180369
-0.000184733
-0.000185753
-0.000189482
-0.000190055
-0.000184732
-0.000184051
-0.000183803
-0.000177712
-0.000179581
-0.00018575
-0.000183804
-0.000173627
-0.000157402
-0.000120926
-0.000189479
-0.000177713
-0.000157405
-7.20528e-05
-0.000111181
-0.000190043
-0.000179593
-0.000120861
-0.000111182
0.000231734
-0.0001476
-0.0001529
-0.000150753
-0.000154483
-0.000157169
-0.000152899
-0.000162066
-0.000161186
-0.000168868
-0.00018472
-0.000150751
-0.000161186
-0.000147143
-0.000132647
-0.000134617
-0.00015448
-0.000168869
-0.000132642
-0.000162707
-6.22125e-05
-0.000157163
-0.000184723
-0.000134596
-6.22266e-05
0.000375454
-0.000146838
-0.000163791
-0.000179115
-0.000201536
-0.0002189
-0.00016379
-0.000183736
-0.000210722
-0.00023454
-0.000260141
-0.000179114
-0.000210722
-0.00024947
-0.000316295
-0.000414779
-0.000201534
-0.000234539
-0.000316293
-0.000441134
-0.000384146
-0.000218896
-0.000260141
-0.000414768
-0.000384148
-0.00075992
-0.000106825
-0.000116974
-0.000122762
-0.00013232
-0.000143641
-0.000116974
-0.000131235
-0.000147058
-0.000152283
-0.000199356
-0.000122761
-0.000147058
-0.000180305
-0.000223373
-0.000287041
-0.000132319
-0.000152282
-0.000223372
-0.00018784
-0.000474565
-0.000143638
-0.000199355
-0.000287037
-0.000474564
-0.000891489
-0.000108705
-0.000129965
-0.000144712
-0.000162594
-0.000176964
-0.000129964
-0.000157454
-0.000179442
-0.000200381
-0.000226027
-0.000144711
-0.000179442
-0.000212766
-0.000246792
-0.000289202
-0.000162593
-0.00020038
-0.000246791
-0.000301311
-0.000386608
-0.000176963
-0.000226026
-0.0002892
-0.000386608
-0.00053542
-5.91723e-05
-6.87178e-05
-7.54372e-05
-8.2241e-05
-8.89692e-05
-6.87176e-05
-8.19032e-05
-9.32098e-05
-9.83396e-05
-0.000108745
-7.54367e-05
-9.32097e-05
-0.000102808
-0.000109711
-0.000125551
-8.22403e-05
-9.83393e-05
-0.000109711
-0.000108127
-0.000153042
-8.89681e-05
-0.000108745
-0.000125551
-0.000153041
-0.000194338
-3.18818e-05
-4.4711e-05
-4.08187e-05
-4.44491e-05
-4.38171e-05
-4.47109e-05
-6.10154e-05
-5.9709e-05
-6.70411e-05
-7.30148e-05
-4.08184e-05
-5.97089e-05
-6.42378e-05
-7.93848e-05
-9.74783e-05
-4.44489e-05
-6.7041e-05
-7.93847e-05
-9.97597e-05
-0.000131051
-4.38167e-05
-7.30146e-05
-9.7478e-05
-0.00013105
-0.000172881
0.000123416
0.000297694
0.000474368
7.39899e-05
0.000209339
0.000328159
0.000649156
0.000297694
0.000123417
0.000474368
7.39911e-05
0.00032816
0.000209339
0.000649156
0.000759617
0.000759617
0.00161703
0.000356947
0.00135878
0.00135878
0.0029746
-0.000139665
-0.000139666
-0.000114402
-0.000170594
-0.000197311
-0.000197313
-0.000340308
-0.000134967
3.53725e-05
5.65122e-05
-0.000247008
-0.000254548
-0.000515314
-0.000857377
3.53735e-05
-0.00013497
5.65122e-05
-0.000247006
-0.000515308
-0.00025455
-0.000857374
0.00145177
0.00145177
0.00133717
-0.000676149
-0.00190814
-0.00190815
-0.00304823
-0.00031117
-0.000550655
-0.000755842
-0.000173456
-0.000193232
-0.00021687
-0.000211254
-0.000550629
-0.000311195
-0.00075584
-0.000173463
-0.000216852
-0.000193256
-0.000211212
-0.00159052
-0.00159052
-0.00505349
-0.000301229
-0.000374589
-0.000374576
-0.00130465
-8.95412e-05
-1.81812e-05
2.28716e-06
-3.52817e-05
1.7677e-05
0.000257315
0.000472972
-1.80581e-05
-8.9637e-05
2.31506e-06
-3.53172e-05
0.000257393
1.75568e-05
0.000473197
0.000541289
0.000541127
0.00104468
0.000409906
0.00114282
0.0011427
0.00310067
-7.77266e-05
-7.77417e-05
2.27456e-05
-0.000213959
-0.000145358
-0.000145363
-6.32003e-05
2.76399e-05
0.000222195
0.00064963
-0.000195052
-0.000246481
-0.000303756
-0.000398097
0.000222247
2.76259e-05
0.000649685
-0.000195054
-0.000303744
-0.000246496
-0.000398091
0.00101884
0.0010188
0.00466183
-0.000424362
-0.000996013
-0.000996026
-0.00055118
-0.0004763
-0.00073506
-0.000770002
-0.000408333
-0.000537984
-0.000818781
-0.000924157
-0.000735054
-0.000476305
-0.00077
-0.000408332
-0.000818779
-0.000537985
-0.000924155
-0.00222222
-0.00222223
-0.00180272
-0.00074033
-0.00124381
-0.00124381
-0.0023437
-0.00111608
-0.00111608
-0.00143839
-0.000559206
-0.000697033
-0.000697033
-0.000864878
-0.000307645
0.000221221
0.000221221
-0.000172456
0.00107603
-0.00034409
-0.00034409
-0.00141374
-0.00109385
-0.00109385
-0.00044686
-0.00187771
-0.000827409
-0.000827408
0.00131124
0.000677146
0.000677092
0.000244718
0.00147212
0.000423261
0.000423166
-0.00199927
-0.000967371
-0.000967379
-0.000859421
-0.00194288
-0.00125814
-0.00125815
0.00128414
0.000421841
0.00065598
0.00065598
0.000782477
0.000782477
0.00128811
0.00183489
0.001172
0.000824951
0.00228598
0.00093783
0.00183264
0.00203254
0.00183489
0.001172
0.000824951
0.00228597
0.00093783
0.00183264
0.00203254
0.00212933
0.00412719
0.00290152
0.00290152
0.00250054
0.00274597
0.00274597
-0.000174505
-1.57258e-05
0.000129448
-0.000200457
2.81978e-05
-0.000151699
-0.000203416
-0.00016627
0.000214837
0.000120716
-0.000236516
0.0001042
-0.00025274
-0.000149771
-0.00039176
-0.000402174
-0.000359183
-0.000718714
-0.00032584
-0.000532499
-0.000464789
-0.000491343
-0.000586466
-0.000610658
-0.000818925
-0.000574895
-0.000518691
-0.000551174
-0.000174502
-1.57243e-05
0.000129449
-0.000200455
2.81993e-05
-0.000151697
-0.000203414
-0.000166268
0.000120716
0.000214837
-0.000236515
0.000104201
-0.000252739
-0.00014977
-0.000391755
-0.00040217
-0.000359176
-0.000718708
-0.000325835
-0.000532495
-0.000464782
-0.000491341
-0.000586465
-0.000818921
-0.000610653
-0.000574895
-0.000518685
-0.000551173
-0.000377267
0.000827876
0.00101998
-0.000181746
0.000865908
-0.000233048
-0.000236649
-0.000377268
0.000827875
0.00101998
-0.000181748
0.000865907
-0.00023305
-0.000236651
-0.00023221
0.00124836
0.00124836
-0.000122898
0.00110361
-0.000157317
-0.000157318
-0.00148733
-0.00062995
-0.00101257
-0.00101257
-0.000773858
-0.000773858
-0.00203768
-0.0013134
-0.00194821
-0.00139927
-0.00235646
-0.00150776
-0.00230839
-0.00132872
-0.00131341
-0.00194821
-0.00139928
-0.00235647
-0.00150777
-0.0023084
-0.00132873
-0.00140851
-0.00151439
-0.00280402
-0.00280402
-0.00261856
-0.00144333
-0.00144334
-0.00180819
-0.00126671
-0.00296295
-0.00106499
-0.0024901
-0.000834707
-0.00230889
-0.00180822
-0.00126671
-0.00296296
-0.00106502
-0.00249011
-0.000834735
-0.00230892
-0.00244067
-0.0043895
-0.0043895
-0.00400327
-0.00331488
-0.00307246
-0.00307247
0.00122375
0.000743089
0.000941596
0.00227428
0.000604737
0.00178107
0.00145519
0.00122381
0.0007431
0.000941481
0.00227422
0.000604353
0.00178143
0.00145543
0.00146794
0.00238271
0.00274316
0.00274292
0.00249862
0.00189662
0.00189648
0.00016929
0.000285661
0.00059139
0.000394374
0.000200406
0.000428769
0.000287569
-7.97168e-05
-0.000115209
-0.000303918
-0.000245131
-6.79657e-05
-5.28415e-05
-0.000268652
1.53134e-05
-0.000119899
-0.00036523
-0.000381883
-0.000104363
-0.00034741
0.000104519
0.000169318
0.000591468
0.000285659
0.000394421
0.000200383
0.000428853
0.000287597
-7.97125e-05
-0.000115187
-0.00030391
-0.000245125
-6.79505e-05
-5.28308e-05
-0.000268649
1.53094e-05
-0.000119894
-0.00038187
-0.000365229
-0.000104346
-0.000347407
0.000104516
0.00158732
0.000782014
0.00236043
0.00145319
0.0019812
0.000823701
0.00154004
0.00158756
0.000781894
0.00236056
0.00145313
0.00198131
0.000823654
0.00154008
0.00200901
0.00363612
0.00363606
0.00244321
0.00247315
0.00212469
0.00212468
0.000408027
5.95244e-05
-0.000521355
-0.000521372
-4.452e-05
-4.45558e-05
-0.000944344
0.000237978
0.00107473
-0.000736133
-0.000690798
0.000614038
-0.000647193
0.000400784
0.000238007
0.00107469
-0.000736145
-0.0006908
0.000613988
-0.000647191
0.000400789
0.000536065
0.000799894
-0.000602529
-0.000602531
-0.000626425
0.000652515
0.000652514
-0.000687725
-0.000754006
-0.000794125
-0.00116281
-0.000640041
-0.00117815
-0.000773177
-0.000687724
-0.000794121
-0.000754006
-0.00116281
-0.00064004
-0.00117815
-0.000773177
-0.00242455
-0.00162509
-0.00179168
-0.00181665
-0.00177528
-0.00144301
-0.00268908
-0.00242455
-0.00162509
-0.00179168
-0.00181665
-0.00177528
-0.00144301
-0.00268908
-0.00276192
-0.0018003
-0.0018003
-0.00306305
-0.00178325
-0.00297702
-0.00297702
-0.00162454
-0.000937814
-0.00102966
-0.00102966
-0.00122121
-0.00122121
-0.00134153
-0.00209673
-0.00166047
-0.00108489
-0.0016597
-0.00142974
-0.00153576
-0.00229704
-0.00209673
-0.00166048
-0.00108489
-0.0016597
-0.00142974
-0.00153576
-0.00229704
-0.00245151
-0.00401746
-0.00211806
-0.00211806
-0.00186132
-0.0029273
-0.0029273
0.000235093
0.000235093
0.000367592
0.0004145
0.000595354
0.000595354
0.000922869
0.00200432
0.00132652
0.00132652
0.00263278
0.00114256
0.00236873
0.00236873
0.000289735
0.000718102
0.000377299
0.000581865
0.000686569
0.000247193
0.000387113
0.000289735
0.000718103
0.000581865
0.000377299
0.000686569
0.000247194
0.000387113
0.00140495
0.000653315
0.0010421
0.00103221
0.000931819
0.000856529
0.00151176
0.00140495
0.000653315
0.0010421
0.00103221
0.000931819
0.000856529
0.00151176
0.000936307
0.000351975
0.000696796
0.000696636
0.000526442
0.000526507
0.0013144
)
;

boundaryField
{
    inlet
    {
        type            fixedValue;
        value           uniform 0;
    }
    wall
    {
        type            zeroGradient;
    }
    outlet
    {
        type            fixedValue;
        value           uniform 0;
    }
    procBoundary0to1
    {
        type            processor;
        value           nonuniform List<scalar> 
320
(
-5.429e-06
-5.427e-06
-5.42753e-06
-5.42658e-06
-5.42682e-06
-1.5058e-05
-1.50563e-05
-1.50562e-05
-1.50554e-05
-1.50554e-05
-2.55423e-05
-2.55391e-05
-2.5539e-05
-2.55373e-05
-2.55373e-05
-3.72149e-05
-3.72106e-05
-3.72102e-05
-3.7208e-05
-3.72079e-05
-4.69485e-05
-4.69424e-05
-4.69416e-05
-4.69381e-05
-4.69378e-05
-5.89912e-05
-5.8982e-05
-5.89807e-05
-5.89757e-05
-5.89752e-05
-6.8644e-05
-6.86304e-05
-6.86274e-05
-6.86187e-05
-6.86172e-05
-8.0525e-05
-8.0504e-05
-8.0498e-05
-8.0483e-05
-8.04795e-05
-9.0403e-05
-9.03722e-05
-9.03606e-05
-9.03337e-05
-9.03245e-05
-0.000101924
-0.00010188
-0.000101861
-0.000101815
-0.000101796
-0.000112043
-0.000111979
-0.000111955
-0.00011189
-0.000111868
-0.000123148
-0.000123061
-0.000123054
-0.000123011
-0.000123023
-0.000133323
-0.000133223
-0.000133309
-0.000133404
-0.000133513
-0.000143886
-0.000143808
-0.000144022
-0.000144239
-0.00014441
-0.000153628
-0.000153579
-0.00015378
-0.000153758
-0.000153781
-0.000163032
-0.000162796
-0.000162721
-0.000162354
-0.00016221
-0.000171411
-0.000170684
-0.000170207
-0.000169508
-0.000169224
-0.000179355
-0.00017806
-0.000177255
-0.000176322
-0.000175968
-0.000186341
-0.000184456
-0.000183353
-0.000182158
-0.00018172
-0.000193252
-0.000190898
-0.00018959
-0.000188049
-0.000187515
-0.000199051
-0.000195764
-0.000193933
-0.00019173
-0.000190846
-0.00020583
-0.000201315
-0.00019893
-0.000195914
-0.000194779
-0.000210042
-0.000203146
-0.000199052
-0.00019445
-0.000191988
-0.000216683
-0.000207042
-0.000201697
-0.000194943
-0.000192039
-0.000217455
-0.000202795
-0.000192419
-0.000182135
-0.000173467
-0.000223365
-0.00020298
-0.000190694
-0.000173462
-0.000165319
-0.000217424
-0.000188461
-0.000161457
-0.000136967
-9.96528e-05
-0.000228082
-0.000181532
-0.000153026
-9.95409e-05
-7.21261e-05
-0.000211985
-0.00015341
-8.86789e-05
-2.18229e-05
0.000158209
-0.000226773
-0.000141716
-7.46668e-05
0.000131128
0.000235288
-0.000201393
-0.000118291
-1.68029e-05
0.000123502
0.000760068
-0.000221692
-0.000178024
-0.000195955
-0.000135179
0.00145177
-0.000194751
-0.000178667
-0.00022346
-0.000313858
-0.00159112
-0.000190346
-0.000180164
-0.000121277
-9.00158e-05
0.00054106
-0.000157583
-0.00018582
-0.000134835
2.77404e-05
0.00101973
-0.000219428
-0.000261694
-0.000413833
-0.000476685
-0.00221845
-0.000144191
-0.000200094
-0.000287619
-0.000477618
-0.00111466
-0.000177297
-0.000226275
-0.000289181
-0.000386667
-0.000535404
-8.91342e-05
-0.000108843
-0.00012566
-0.000153276
-0.000194412
-4.3824e-05
-7.29723e-05
-9.74695e-05
-0.000131008
-0.000172884
0.00047461
0.000649229
0.000209386
0.00161699
0.00297468
0.0013588
5.65737e-05
-0.000857467
-0.000254525
0.00133729
-0.00304824
-0.00190904
-0.000750224
-0.00021227
-0.000193756
-0.00505392
-0.00130524
-0.00037439
3.87611e-06
0.000473275
1.73085e-05
0.00104832
0.00310149
0.00114274
0.000649972
-0.000397253
-0.000245712
0.00466302
-0.000549596
-0.000993484
-0.000770308
-0.000925644
-0.000540247
-0.00180074
-0.00234213
-0.00124291
-0.00143745
-0.00086526
-0.000696553
0.00102015
-0.000236455
-0.000181803
-0.00296144
-0.00230882
-0.00106842
0.00236207
0.00154234
0.00145452
-0.00178403
-0.00267847
-0.00180997
0.00290162
0.00274562
0.00412737
0.00117216
0.00203382
0.00228567
-0.000236582
-0.000149583
0.000214869
-0.0006103
-0.000550267
-0.00058597
-0.000122763
-0.000157171
0.00124851
-0.00280433
-0.00144328
-0.00151429
-0.00194858
-0.00132851
-0.0023565
-0.00400395
-0.00307303
-0.00439103
0.00274389
0.0018972
0.00238339
0.000742989
0.00145558
0.00227487
0.000394934
0.000287203
0.000285552
-0.000368005
0.000103608
-0.000118843
0.0024443
0.00212646
0.00363761
-0.000598986
0.000654988
0.000801155
0.00107677
0.000404138
-0.000685813
-0.00116005
-0.000777665
-0.000759799
-0.00306076
-0.00297106
-0.00179545
-0.00211577
-0.00292289
-0.00401552
-0.00165639
-0.00229097
-0.00165741
0.00036775
0.000922833
0.000595363
0.00263258
0.00236881
0.00132637
0.00104241
0.00151129
0.00103199
0.000377518
0.000387167
0.000718259
)
;
    }
    procBoundary0to2
    {
        type            processor;
        value           nonuniform List<scalar> 
320
(
-5.429e-06
-5.427e-06
-5.42753e-06
-5.42658e-06
-5.42682e-06
-1.5058e-05
-1.50563e-05
-1.50562e-05
-1.50554e-05
-1.50554e-05
-2.55423e-05
-2.55391e-05
-2.5539e-05
-2.55373e-05
-2.55373e-05
-3.72149e-05
-3.72106e-05
-3.72102e-05
-3.7208e-05
-3.72079e-05
-4.69485e-05
-4.69424e-05
-4.69416e-05
-4.69381e-05
-4.69378e-05
-5.89912e-05
-5.8982e-05
-5.89807e-05
-5.89757e-05
-5.89752e-05
-6.8644e-05
-6.86304e-05
-6.86274e-05
-6.86187e-05
-6.86172e-05
-8.0525e-05
-8.0504e-05
-8.0498e-05
-8.0483e-05
-8.04795e-05
-9.0403e-05
-9.03722e-05
-9.03606e-05
-9.03337e-05
-9.03245e-05
-0.000101924
-0.00010188
-0.000101861
-0.000101815
-0.000101796
-0.000112043
-0.000111979
-0.000111955
-0.00011189
-0.000111868
-0.000123148
-0.000123061
-0.000123054
-0.000123011
-0.000123023
-0.000133323
-0.000133223
-0.000133309
-0.000133404
-0.000133513
-0.000143886
-0.000143808
-0.000144022
-0.000144239
-0.00014441
-0.000153628
-0.000153579
-0.00015378
-0.000153758
-0.000153781
-0.000163032
-0.000162796
-0.000162721
-0.000162354
-0.00016221
-0.000171411
-0.000170684
-0.000170207
-0.000169508
-0.000169224
-0.000179355
-0.00017806
-0.000177255
-0.000176322
-0.000175968
-0.000186341
-0.000184456
-0.000183352
-0.000182158
-0.00018172
-0.000193251
-0.000190898
-0.000189589
-0.000188049
-0.000187515
-0.000199051
-0.000195764
-0.000193933
-0.00019173
-0.000190846
-0.000205829
-0.000201315
-0.000198929
-0.000195913
-0.000194779
-0.000210042
-0.000203146
-0.000199052
-0.000194449
-0.000191988
-0.000216682
-0.000207041
-0.000201696
-0.000194942
-0.000192039
-0.000217454
-0.000202795
-0.000192418
-0.000182135
-0.000173467
-0.000223364
-0.000202979
-0.000190693
-0.000173462
-0.000165318
-0.000217423
-0.00018846
-0.000161456
-0.000136966
-9.96524e-05
-0.00022808
-0.000181531
-0.000153025
-9.95401e-05
-7.21256e-05
-0.000211983
-0.000153409
-8.86775e-05
-2.1822e-05
0.000158209
-0.000226771
-0.000141715
-7.46648e-05
0.000131129
0.000235289
-0.000201391
-0.00011829
-1.67998e-05
0.000123503
0.000760068
-0.000221689
-0.000178024
-0.00019595
-0.000135178
0.00145176
-0.000194746
-0.000178669
-0.000223451
-0.000313864
-0.00159112
-0.000190339
-0.00018017
-0.000121251
-9.00153e-05
0.0005411
-0.000157579
-0.000185821
-0.000134827
2.77365e-05
0.00101967
-0.000219425
-0.000261693
-0.000413828
-0.000476688
-0.00221845
-0.000144188
-0.000200093
-0.000287616
-0.000477618
-0.00111466
-0.000177295
-0.000226273
-0.000289179
-0.000386666
-0.000535404
-8.91328e-05
-0.000108842
-0.000125659
-0.000153276
-0.000194412
-4.38236e-05
-7.2972e-05
-9.74691e-05
-0.000131007
-0.000172884
0.000209387
0.000649229
0.00047461
0.0013588
0.00297468
0.00161699
-0.000254523
-0.000857463
5.6574e-05
-0.00190904
-0.00304823
0.00133729
-0.000193763
-0.000212255
-0.000750212
-0.000374393
-0.00130522
-0.00505391
1.72666e-05
0.000473322
3.92384e-06
0.00114268
0.00310164
0.00104847
-0.000245719
-0.000397249
0.000649998
-0.000993493
-0.000549596
0.00466305
-0.000540247
-0.000925644
-0.000770308
-0.00124291
-0.00234213
-0.00180074
-0.000696553
-0.00086526
-0.00143745
-0.000181804
-0.000236456
0.00102014
-0.00106843
-0.00230882
-0.00296144
0.00145449
0.00154238
0.00236212
-0.00180997
-0.00267847
-0.00178404
0.00228567
0.00203382
0.00117216
0.00412737
0.00274562
0.00290161
-0.000585968
-0.000550265
-0.000610295
0.000214869
-0.000149581
-0.000236581
-0.00235651
-0.00132851
-0.00194858
-0.00151429
-0.00144328
-0.00280433
0.00124851
-0.000157172
-0.000122764
-0.00439102
-0.00307302
-0.00400394
0.00227503
0.0014556
0.000742783
0.00238348
0.00189716
0.00274389
-0.00011884
0.000103604
-0.000368006
0.00028554
0.00028721
0.000394957
-0.000685816
0.000404139
0.00107675
0.000801155
0.000654986
-0.000598988
0.00363758
0.00212646
0.0024443
-0.0007598
-0.000777665
-0.00116005
-0.00165741
-0.00229097
-0.00165639
-0.00401552
-0.00292289
-0.00211577
-0.00179545
-0.00297106
-0.00306076
0.000595363
0.000922833
0.00036775
0.00132637
0.00236881
0.00263257
0.00103199
0.00151129
0.00104241
0.000718259
0.000387167
0.000377519
)
;
    }
}


// ************************************************************************* //
