/*--------------------------------*- C++ -*----------------------------------*\
| =========                 |                                                 |
| \\      /  F ield         | OpenFOAM: The Open Source CFD Toolbox           |
|  \\    /   O peration     | Version:  5.x                                   |
|   \\  /    A nd           | Web:      www.OpenFOAM.org                      |
|    \\/     M anipulation  |                                                 |
\*---------------------------------------------------------------------------*/
FoamFile
{
    version     2.0;
    format      ascii;
    class       surfaceScalarField;
    location    "0.054";
    object      phi;
}
// * * * * * * * * * * * * * * * * * * * * * * * * * * * * * * * * * * * * * //

dimensions      [0 3 -1 0 0 0 0];

internalField   nonuniform List<scalar> 
4318
(
2.49984e-08
-1.18136e-07
-1.57884e-08
5.89923e-08
-1.18398e-07
-1.94302e-08
7.67176e-08
-1.18062e-07
-3.16382e-09
9.99862e-08
-1.1811e-07
-8.65099e-09
-1.1706e-07
2.50658e-08
2.43508e-08
-9.48411e-08
-5.47369e-08
5.92903e-08
-9.51632e-08
-5.82009e-08
7.74265e-08
-9.4922e-08
-4.13061e-08
1.01016e-07
-9.5013e-08
-4.6714e-08
-9.41291e-08
-1.22731e-08
2.38321e-08
-7.80327e-08
-4.85954e-08
5.90607e-08
-7.83555e-08
-5.20559e-08
7.73072e-08
-7.81511e-08
-3.50458e-08
1.00998e-07
-7.82615e-08
-4.04689e-08
-7.75783e-08
-5.94761e-09
2.35589e-08
-4.19038e-08
-6.84752e-08
5.92832e-08
-4.22479e-08
-7.18375e-08
7.77714e-08
-4.22046e-08
-5.44585e-08
1.01664e-07
-4.23451e-08
-5.98356e-08
-4.19877e-08
-2.49152e-08
2.31205e-08
-6.44107e-08
5.90202e-08
-6.77774e-08
7.7605e-08
-5.03412e-08
1.01588e-07
-5.57296e-08
-2.07774e-08
7.40955e-09
-4.5871e-08
-2.92117e-08
2.50647e-08
-4.54258e-08
-2.75998e-08
3.39957e-08
-4.44458e-08
-2.79449e-09
3.42957e-08
-4.42845e-08
3.19968e-10
-4.36159e-08
4.05524e-08
9.14339e-09
-4.99129e-08
-7.28896e-08
2.61634e-08
-4.93978e-08
-7.12824e-08
3.48843e-08
-4.84761e-08
-4.60287e-08
3.49881e-08
-4.82876e-08
-4.2845e-08
-4.76584e-08
-1.86038e-09
9.82702e-09
-4.38069e-08
-7.63785e-08
2.65138e-08
-4.33686e-08
-7.48033e-08
3.50964e-08
-4.26217e-08
-4.9516e-08
3.50975e-08
-4.24541e-08
-4.63346e-08
-4.1935e-08
-5.27659e-09
1.08432e-08
-2.95748e-08
-1.03967e-07
2.72497e-08
-2.92157e-08
-1.02412e-07
3.57021e-08
-2.87068e-08
-7.68544e-08
3.55933e-08
-2.85745e-08
-7.36377e-08
-2.82593e-08
-3.21126e-08
1.12904e-08
-1.05955e-07
2.75155e-08
-1.04413e-07
3.58672e-08
-7.88601e-08
3.56812e-08
-7.56486e-08
-3.41018e-08
3.03592e-08
-1.20142e-07
-5.20039e-08
6.68968e-08
-1.20393e-07
-5.05514e-08
8.56326e-08
-1.19936e-07
-7.95319e-09
1.03858e-07
-1.19977e-07
-4.26707e-09
-1.18796e-07
6.44798e-08
2.99621e-08
-1.02915e-07
-1.27318e-07
6.72924e-08
-1.03213e-07
-1.25812e-07
8.64663e-08
-1.02876e-07
-8.22804e-08
1.05016e-07
-1.02953e-07
-7.84378e-08
-1.01957e-07
-8.2191e-09
2.96655e-08
-8.50197e-08
-1.31642e-07
6.71316e-08
-8.53272e-08
-1.30173e-07
8.63925e-08
-8.51087e-08
-8.65628e-08
1.05014e-07
-8.52118e-08
-8.27153e-08
-8.4467e-08
-1.23427e-08
2.93575e-08
-4.74557e-08
-1.79442e-07
6.73345e-08
-4.77831e-08
-1.77941e-07
8.68829e-08
-4.77994e-08
-1.33727e-07
1.05735e-07
-4.79384e-08
-1.29781e-07
-4.7616e-08
-5.84841e-08
2.90155e-08
-1.81642e-07
6.71052e-08
-1.80153e-07
8.6731e-08
-1.35913e-07
1.05656e-07
-1.31968e-07
-6.06078e-08
2.61788e-08
-1.19653e-07
-7.81168e-08
6.45231e-08
-1.19288e-07
-7.39141e-08
8.51835e-08
-1.17594e-07
-1.3892e-08
1.00842e-07
-1.17351e-07
-5.20526e-09
-1.15398e-07
9.01471e-08
2.79541e-08
-1.06914e-07
-1.81293e-07
6.63888e-08
-1.06537e-07
-1.77002e-07
8.71488e-08
-1.05012e-07
-1.15628e-07
1.02818e-07
-1.04778e-07
-1.06687e-07
-1.03032e-07
-9.13707e-09
2.83037e-08
-8.83412e-08
-1.91344e-07
6.66608e-08
-8.80112e-08
-1.87063e-07
8.73777e-08
-8.67552e-08
-1.25542e-07
1.03011e-07
-8.65603e-08
-1.16574e-07
-8.5167e-08
-1.87662e-08
2.95143e-08
-5.1421e-08
-2.5751e-07
6.79386e-08
-5.11767e-08
-2.532e-07
8.86884e-08
-5.03852e-08
-1.90849e-07
1.0433e-07
-5.02605e-08
-1.81729e-07
-4.94674e-08
-8.25421e-08
2.9776e-08
-2.63225e-07
6.81423e-08
-2.58916e-07
8.88436e-08
-1.96524e-07
1.04451e-07
-1.87398e-07
-8.8102e-08
5.08485e-08
-1.85547e-07
-1.16489e-07
1.08387e-07
-1.85669e-07
-1.10524e-07
1.38214e-07
-1.84168e-07
-2.29527e-08
1.64268e-07
-1.84052e-07
-1.04312e-08
-1.81374e-07
1.27769e-07
5.12195e-08
-1.60776e-07
-2.6655e-07
1.099e-07
-1.60947e-07
-2.60401e-07
1.40417e-07
-1.59709e-07
-1.70603e-07
1.66928e-07
-1.59636e-07
-1.57613e-07
-1.57326e-07
-1.58181e-08
5.10687e-08
-1.31642e-07
-2.81136e-07
1.0989e-07
-1.3185e-07
-2.7498e-07
1.40501e-07
-1.3096e-07
-1.84899e-07
1.67076e-07
-1.30951e-07
-1.71834e-07
-1.29216e-07
-2.95704e-08
5.11728e-08
-7.27635e-08
-3.77853e-07
1.1076e-07
-7.30391e-08
-3.71597e-07
1.41821e-07
-7.27493e-08
-2.80117e-07
1.68733e-07
-7.28375e-08
-2.66754e-07
-7.20504e-08
-1.22217e-07
5.09004e-08
-3.85948e-07
1.10605e-07
-3.79694e-07
1.41737e-07
-2.88107e-07
1.68717e-07
-2.74715e-07
-1.29964e-07
6.52192e-08
-2.44774e-07
-1.68085e-07
1.42175e-07
-2.44403e-07
-1.58495e-07
1.82698e-07
-2.41162e-07
-3.4963e-08
2.16239e-07
-2.40671e-07
-1.54328e-08
-2.36044e-07
1.79642e-07
6.7483e-08
-2.13431e-07
-3.79896e-07
1.45686e-07
-2.13095e-07
-3.69905e-07
1.86947e-07
-2.10234e-07
-2.42787e-07
2.20882e-07
-2.09796e-07
-2.22422e-07
-2.05683e-07
-2.16495e-08
6.77265e-08
-1.74085e-07
-4.02626e-07
1.46044e-07
-1.73815e-07
-3.92575e-07
1.87371e-07
-1.71523e-07
-2.64932e-07
2.21336e-07
-1.71187e-07
-2.44406e-07
-1.67959e-07
-4.27991e-08
6.92368e-08
-9.62079e-08
-5.38734e-07
1.48361e-07
-9.60844e-08
-5.28457e-07
1.9012e-07
-9.4826e-08
-3.98569e-07
2.24362e-07
-9.46672e-08
-3.77512e-07
-9.29479e-08
-1.7229e-07
6.93577e-08
-5.5144e-07
1.48557e-07
-5.41163e-07
1.90338e-07
-4.11041e-07
2.246e-07
-3.89919e-07
-1.84281e-07
9.88215e-08
-3.40858e-07
-2.40045e-07
2.04923e-07
-3.40679e-07
-2.25844e-07
2.60145e-07
-3.36442e-07
-5.20121e-08
3.06428e-07
-3.35787e-07
-2.35025e-08
-3.28926e-07
2.50001e-07
1.00817e-07
-2.95737e-07
-5.38483e-07
2.09394e-07
-2.95643e-07
-5.23516e-07
2.66141e-07
-2.91997e-07
-3.43979e-07
3.13278e-07
-2.91425e-07
-3.13921e-07
-2.85364e-07
-3.1368e-08
1.00882e-07
-2.40247e-07
-5.71984e-07
2.09783e-07
-2.40259e-07
-5.56862e-07
2.66718e-07
-2.37524e-07
-3.76337e-07
3.13951e-07
-2.37123e-07
-3.45942e-07
-2.32515e-07
-6.1846e-08
1.01958e-07
-1.30565e-07
-7.64082e-07
2.12509e-07
-1.30777e-07
-7.48509e-07
2.70416e-07
-1.29591e-07
-5.64411e-07
3.18284e-07
-1.29493e-07
-5.3301e-07
-1.27251e-07
-2.43157e-07
1.01745e-07
-7.82623e-07
2.12526e-07
-7.67025e-07
2.70559e-07
-5.8247e-07
3.18527e-07
-5.50906e-07
-2.60266e-07
1.42745e-07
-4.86405e-07
-3.41753e-07
2.9496e-07
-4.85594e-07
-3.19753e-07
3.74165e-07
-4.7808e-07
-7.4063e-08
4.38613e-07
-4.76659e-07
-3.08105e-08
-4.65245e-07
3.56088e-07
1.47198e-07
-4.23327e-07
-7.6592e-07
3.03118e-07
-4.22601e-07
-7.42433e-07
3.84495e-07
-4.15905e-07
-4.87534e-07
4.50036e-07
-4.14593e-07
-4.41534e-07
-4.04332e-07
-4.02141e-08
1.47701e-07
-3.43174e-07
-8.17135e-07
3.04131e-07
-3.42634e-07
-7.93268e-07
3.85792e-07
-3.37322e-07
-5.36584e-07
4.51433e-07
-3.36309e-07
-4.89871e-07
-3.28283e-07
-8.58168e-08
1.50577e-07
-1.85369e-07
-1.08969e-06
3.0946e-07
-1.8519e-07
-1.06486e-06
3.92446e-07
-1.82433e-07
-8.02292e-07
4.58855e-07
-1.81953e-07
-7.53778e-07
-1.77742e-07
-3.40473e-07
1.50747e-07
-1.11818e-06
3.09969e-07
-1.09321e-06
3.93121e-07
-8.29674e-07
4.59606e-07
-7.8078e-07
-3.65987e-07
1.99309e-07
-6.60106e-07
-4.80142e-07
4.03821e-07
-6.5891e-07
-4.47204e-07
5.10255e-07
-6.47703e-07
-1.05222e-07
5.96228e-07
-6.45178e-07
-4.16514e-08
-6.27526e-07
4.95545e-07
2.05385e-07
-5.74365e-07
-1.07436e-06
4.15996e-07
-5.73375e-07
-1.03859e-06
5.26217e-07
-5.63446e-07
-6.8202e-07
6.1388e-07
-5.61134e-07
-6.13249e-07
-5.4514e-07
-5.32813e-08
2.06162e-07
-4.64228e-07
-1.15121e-06
4.17772e-07
-4.63569e-07
-1.11469e-06
5.28512e-07
-4.55986e-07
-7.54789e-07
6.16401e-07
-4.54181e-07
-6.84719e-07
-4.41907e-07
-1.19585e-07
2.09701e-07
-2.4931e-07
-1.53312e-06
4.25366e-07
-2.49239e-07
-1.49489e-06
5.38508e-07
-2.4562e-07
-1.12581e-06
6.27697e-07
-2.44801e-07
-1.05235e-06
-2.38532e-07
-4.72572e-07
2.09759e-07
-1.57569e-06
4.26038e-07
-1.53713e-06
5.39528e-07
-1.16637e-06
6.28937e-07
-1.09217e-06
-5.09563e-07
2.99338e-07
-9.69377e-07
-6.79369e-07
6.0036e-07
-9.66637e-07
-6.27655e-07
7.56313e-07
-9.47687e-07
-1.43816e-07
8.77654e-07
-9.42941e-07
-4.6106e-08
-9.13994e-07
7.14132e-07
3.10528e-07
-8.47955e-07
-1.52769e-06
6.21247e-07
-8.45316e-07
-1.47063e-06
7.82936e-07
-8.27991e-07
-9.63411e-07
9.0661e-07
-8.23432e-07
-8.56439e-07
-7.96834e-07
-6.00529e-08
3.12425e-07
-6.85105e-07
-1.64823e-06
6.2486e-07
-6.83011e-07
-1.58944e-06
7.87475e-07
-6.69158e-07
-1.07624e-06
9.11331e-07
-6.65533e-07
-9.66477e-07
-6.44671e-07
-1.60889e-07
3.19801e-07
-3.66689e-07
-2.19364e-06
6.38722e-07
-3.65687e-07
-2.13116e-06
8.04816e-07
-3.58327e-07
-1.60274e-06
9.30287e-07
-3.56418e-07
-1.48694e-06
-3.45267e-07
-6.57896e-07
3.208e-07
-2.26191e-06
6.4082e-07
-2.19821e-06
8.07439e-07
-1.66612e-06
9.32996e-07
-1.54861e-06
-7.14287e-07
4.05121e-07
-1.3049e-06
-9.44909e-07
8.04246e-07
-1.29989e-06
-8.66421e-07
1.01216e-06
-1.27039e-06
-1.9688e-07
1.17114e-06
-1.26121e-06
-5.13629e-08
-1.21561e-06
9.98618e-07
4.22486e-07
-1.14435e-06
-2.1341e-06
8.37314e-07
-1.13975e-06
-2.0456e-06
1.05482e-06
-1.11259e-06
-1.33872e-06
1.21677e-06
-1.10383e-06
-1.17577e-06
-1.0612e-06
-6.85023e-08
4.2619e-07
-9.22363e-07
-2.32049e-06
8.44407e-07
-9.18937e-07
-2.22846e-06
1.06348e-06
-8.97811e-07
-1.51009e-06
1.22589e-06
-8.90615e-07
-1.3421e-06
-8.57482e-07
-2.17516e-07
4.36671e-07
-4.92902e-07
-3.08558e-06
8.6563e-07
-4.9149e-07
-2.98757e-06
1.0908e-06
-4.80947e-07
-2.24477e-06
1.25554e-06
-4.77154e-07
-2.06514e-06
-4.59565e-07
-9.03144e-07
4.38035e-07
-3.19037e-06
8.68997e-07
-3.09044e-06
1.09537e-06
-2.34181e-06
1.26055e-06
-2.15871e-06
-9.86827e-07
6.19324e-07
-1.94757e-06
-1.3313e-06
1.21528e-06
-1.9375e-06
-1.20575e-06
1.52385e-06
-1.88867e-06
-2.5824e-07
1.74814e-06
-1.87232e-06
-3.10997e-08
-1.79842e-06
1.45447e-06
6.49668e-07
-1.72028e-06
-3.0383e-06
1.2704e-06
-1.71034e-06
-2.89349e-06
1.59385e-06
-1.66473e-06
-1.88609e-06
1.82207e-06
-1.64905e-06
-1.62726e-06
-1.57908e-06
-5.15515e-08
6.56654e-07
-1.38843e-06
-3.33692e-06
1.28291e-06
-1.37976e-06
-3.18528e-06
1.60947e-06
-1.34281e-06
-2.15856e-06
1.83834e-06
-1.33028e-06
-1.88973e-06
-1.27514e-06
-2.82529e-07
6.77488e-07
-7.44459e-07
-4.4364e-06
1.31987e-06
-7.39114e-07
-4.27058e-06
1.65516e-06
-7.18197e-07
-3.20466e-06
1.88727e-06
-7.11182e-07
-2.91634e-06
-6.80732e-07
-1.2492e-06
6.82816e-07
-4.61532e-06
1.32853e-06
-4.44162e-06
1.66501e-06
-3.36169e-06
1.89723e-06
-3.06671e-06
-1.38059e-06
8.27852e-07
-2.61735e-06
-1.83557e-06
1.61062e-06
-2.59865e-06
-1.64092e-06
2.01991e-06
-2.52018e-06
-3.36914e-07
2.30559e-06
-2.48811e-06
8.77319e-09
-2.36921e-06
2.04913e-06
8.76847e-07
-2.33228e-06
-4.23117e-06
1.70091e-06
-2.31314e-06
-4.00305e-06
2.13513e-06
-2.23599e-06
-2.60448e-06
2.4246e-06
-2.20411e-06
-2.20072e-06
-2.08906e-06
-1.62774e-08
8.92365e-07
-1.87822e-06
-4.71543e-06
1.72773e-06
-1.86476e-06
-4.46901e-06
2.16667e-06
-1.80255e-06
-3.03093e-06
2.45644e-06
-1.77535e-06
-2.60825e-06
-1.68512e-06
-3.66013e-07
9.23131e-07
-1.0041e-06
-6.26875e-06
1.79029e-06
-9.99053e-07
-6.00344e-06
2.24426e-06
-9.68241e-07
-4.49292e-06
2.53522e-06
-9.52475e-07
-4.03016e-06
-9.03204e-07
-1.69346e-06
9.27887e-07
-6.54333e-06
1.80327e-06
-6.2738e-06
2.26303e-06
-4.74491e-06
2.55367e-06
-4.26409e-06
-1.89445e-06
1.27925e-06
-3.96261e-06
-2.56582e-06
2.46243e-06
-3.92541e-06
-2.25226e-06
3.08274e-06
-3.79872e-06
-4.12633e-07
3.48285e-06
-3.74221e-06
1.42866e-07
-3.55278e-06
3.03207e-06
1.36457e-06
-3.54408e-06
-6.04863e-06
2.61204e-06
-3.51128e-06
-5.66463e-06
3.26955e-06
-3.39579e-06
-3.66491e-06
3.67243e-06
-3.34479e-06
-3.001e-06
-3.15818e-06
1.1328e-07
1.38188e-06
-2.83865e-06
-6.83829e-06
2.64581e-06
-2.81144e-06
-6.43277e-06
3.32028e-06
-2.72641e-06
-4.37476e-06
3.72862e-06
-2.69279e-06
-3.66857e-06
-2.54355e-06
-4.4614e-07
1.43428e-06
-1.53987e-06
-9.0403e-06
2.73052e-06
-1.51689e-06
-8.59421e-06
3.43558e-06
-1.46397e-06
-6.46041e-06
3.85545e-06
-1.44668e-06
-5.69613e-06
-1.36139e-06
-2.31388e-06
1.45701e-06
-9.53646e-06
2.75726e-06
-9.04521e-06
3.46749e-06
-6.87142e-06
3.89203e-06
-6.08649e-06
-2.63485e-06
1.74434e-06
-5.41253e-06
-3.44794e-06
3.31005e-06
-5.33337e-06
-2.95306e-06
4.11657e-06
-5.10346e-06
-4.29054e-07
4.58025e-06
-4.98751e-06
4.41851e-07
-4.67127e-06
4.3975e-06
1.88141e-06
-4.9912e-06
-8.39074e-06
3.55912e-06
-4.90307e-06
-7.77263e-06
4.43691e-06
-4.65556e-06
-4.99058e-06
4.89677e-06
-4.53257e-06
-3.91579e-06
-4.21332e-06
4.05432e-07
1.96448e-06
-4.11252e-06
-9.72313e-06
3.67169e-06
-4.02212e-06
-9.02091e-06
4.55836e-06
-3.77483e-06
-6.14214e-06
5.01189e-06
-3.66074e-06
-4.99392e-06
-3.41287e-06
-4.69405e-07
2.11169e-06
-2.2851e-06
-1.30267e-05
3.91999e-06
-2.21429e-06
-1.22103e-05
4.80684e-06
-2.06675e-06
-9.05533e-06
5.24207e-06
-1.98278e-06
-7.80931e-06
-1.84558e-06
-3.0288e-06
2.18203e-06
-1.39971e-05
4.00903e-06
-1.30275e-05
4.89353e-06
-9.75974e-06
5.31972e-06
-8.43157e-06
-3.53035e-06
2.9364e-06
-8.61861e-06
-4.63554e-06
5.4126e-06
-8.40395e-06
-3.75446e-06
6.55475e-06
-7.93493e-06
-1.05907e-07
7.09647e-06
-7.70952e-06
1.29627e-06
-7.19297e-06
6.88986e-06
3.22847e-06
-8.47965e-06
-1.1799e-05
5.87296e-06
-8.13423e-06
-1.06868e-05
7.13278e-06
-7.52641e-06
-6.65891e-06
7.6138e-06
-7.23006e-06
-4.87626e-06
-6.65458e-06
1.25269e-06
3.44648e-06
-7.28542e-06
-1.44099e-05
6.21311e-06
-6.91451e-06
-1.30072e-05
7.42656e-06
-6.31795e-06
-8.56405e-06
7.83868e-06
-5.97165e-06
-6.66444e-06
-5.51455e-06
-1.5483e-07
3.8471e-06
-4.43142e-06
-1.97888e-05
6.79755e-06
-3.97783e-06
-1.80975e-05
8.0338e-06
-3.55897e-06
-1.30506e-05
8.3069e-06
-3.3258e-06
-1.07283e-05
-3.03611e-06
-3.84396e-06
4.29413e-06
-2.27144e-05
7.16545e-06
-1.98013e-05
8.3713e-06
-1.44579e-05
8.51906e-06
-1.18405e-05
-4.72887e-06
4.28315e-06
-1.25825e-05
-5.44798e-06
7.61328e-06
-1.19191e-05
-4.0889e-06
8.95356e-06
-1.09282e-05
9.47862e-07
9.30581e-06
-1.0415e-05
3.12281e-06
-9.43632e-06
1.05068e-05
4.80658e-06
-1.36931e-05
-1.55433e-05
8.58509e-06
-1.26812e-05
-1.37033e-05
1.01279e-05
-1.10939e-05
-8.03601e-06
1.02868e-05
-1.02444e-05
-5.2057e-06
-9.08801e-06
3.07018e-06
5.67047e-06
-1.22954e-05
-2.1537e-05
9.58063e-06
-1.17402e-05
-1.78585e-05
1.0957e-05
-9.75416e-06
-1.12801e-05
1.0803e-05
-8.71954e-06
-8.03535e-06
-7.75372e-06
8.96706e-07
6.42925e-06
-6.63917e-06
-3.19411e-05
1.15629e-05
-6.59867e-06
-2.83726e-05
1.25488e-05
-5.84038e-06
-1.79502e-05
1.17934e-05
-4.94297e-06
-1.37494e-05
-4.41986e-06
-4.18817e-06
6.46986e-06
-3.58114e-05
1.21135e-05
-3.19555e-05
1.35533e-05
-2.1637e-05
1.2454e-05
-1.55946e-05
-5.55011e-06
6.78116e-06
-2.04285e-05
-5.63132e-06
1.19328e-05
-1.90979e-05
-3.58976e-06
1.37049e-05
-1.69647e-05
3.27425e-06
1.40073e-05
-1.57762e-05
6.26207e-06
-1.41388e-05
1.57979e-05
7.90226e-06
-1.9646e-05
-2.42708e-05
1.40044e-05
-1.9234e-05
-1.96693e-05
1.58032e-05
-1.75133e-05
-9.28617e-06
1.56481e-05
-1.59209e-05
-4.90589e-06
-1.38357e-05
6.2028e-06
8.27024e-06
-1.552e-05
-3.3978e-05
1.53323e-05
-1.52544e-05
-2.89002e-05
1.73932e-05
-1.54771e-05
-1.53772e-05
1.68504e-05
-1.41459e-05
-9.26761e-06
-1.20621e-05
3.22824e-06
8.51769e-06
-8.85176e-06
-4.71785e-05
1.51362e-05
-8.62999e-06
-4.16155e-05
1.90933e-05
-8.3982e-06
-2.89863e-05
1.89918e-05
-8.04169e-06
-1.9752e-05
-6.89938e-06
-3.68415e-06
8.74689e-06
-5.34015e-05
1.54022e-05
-4.71731e-05
1.95033e-05
-3.40601e-05
2.02997e-05
-2.43509e-05
-5.7378e-06
7.99719e-06
-2.51542e-05
-6.9188e-06
1.41021e-05
-2.40514e-05
-3.41497e-06
1.67324e-05
-2.20351e-05
5.90393e-06
1.66355e-05
-1.99203e-05
1.04228e-05
-1.68118e-05
2.07669e-05
9.26487e-06
-2.41554e-05
-3.45773e-05
1.6756e-05
-2.31582e-05
-2.80536e-05
1.99967e-05
-2.2197e-05
-1.2365e-05
1.97492e-05
-2.01411e-05
-4.43742e-06
-1.68976e-05
1.03516e-05
9.89052e-06
-1.93386e-05
-4.87315e-05
1.72286e-05
-1.84467e-05
-4.09498e-05
2.20558e-05
-1.73713e-05
-2.50302e-05
2.1863e-05
-1.68807e-05
-1.23352e-05
-1.42529e-05
5.84408e-06
1.06797e-05
-1.14298e-05
-6.58257e-05
1.8298e-05
-1.08157e-05
-5.68648e-05
2.29992e-05
-1.00203e-05
-4.10384e-05
2.38801e-05
-9.38816e-06
-2.81254e-05
-8.12101e-06
-3.53659e-06
1.12876e-05
-7.61069e-05
1.91777e-05
-6.57989e-05
2.39809e-05
-4.87913e-05
2.49622e-05
-3.46248e-05
-7.03125e-06
1.22408e-05
-3.57835e-05
-1.10033e-05
2.03104e-05
-3.43224e-05
-3.6514e-06
2.44012e-05
-3.23776e-05
8.88792e-06
2.58636e-05
-2.87695e-05
1.4363e-05
-2.60281e-05
2.91264e-05
1.34807e-05
-3.5802e-05
-4.80784e-05
2.31332e-05
-3.38611e-05
-3.81674e-05
2.89471e-05
-3.14952e-05
-1.90612e-05
2.86064e-05
-2.90945e-05
-3.77175e-06
-2.45693e-05
1.43081e-05
1.49718e-05
-2.93184e-05
-7.02279e-05
2.53953e-05
-2.75059e-05
-5.77285e-05
3.13413e-05
-2.55399e-05
-3.69314e-05
3.22084e-05
-2.32786e-05
-1.90182e-05
-2.04708e-05
8.82857e-06
1.62724e-05
-1.76163e-05
-9.38547e-05
2.73592e-05
-1.64017e-05
-7.90557e-05
3.37011e-05
-1.50999e-05
-5.78203e-05
3.41448e-05
-1.36136e-05
-3.82341e-05
-1.23947e-05
-3.78147e-06
1.74826e-05
-0.000111196
2.91595e-05
-9.38067e-05
3.56171e-05
-7.02673e-05
3.55545e-05
-4.80915e-05
-1.11885e-05
1.66056e-05
-4.83218e-05
-1.63364e-05
2.68784e-05
-4.53561e-05
-3.47001e-06
3.30748e-05
-4.19778e-05
1.17323e-05
3.36894e-05
-3.76734e-05
2.13631e-05
-3.39257e-05
4.18345e-05
1.92788e-05
-5.2079e-05
-6.36404e-05
3.1587e-05
-4.7787e-05
-4.80447e-05
3.85645e-05
-4.34975e-05
-2.45189e-05
3.7437e-05
-3.87665e-05
-1.55112e-06
-3.32768e-05
2.12873e-05
2.24908e-05
-4.46901e-05
-0.000100148
3.62366e-05
-4.0325e-05
-7.89362e-05
4.32916e-05
-3.64215e-05
-5.10625e-05
4.17445e-05
-3.17736e-05
-2.44641e-05
-2.70857e-05
1.16958e-05
2.53916e-05
-2.8695e-05
-0.000135298
4.01341e-05
-2.5559e-05
-0.000108564
4.75723e-05
-2.26483e-05
-7.90317e-05
4.51004e-05
-1.94347e-05
-4.81011e-05
-1.67007e-05
-3.71459e-06
2.85308e-05
-0.000168412
4.44997e-05
-0.000135256
5.18645e-05
-0.00010018
4.80831e-05
-6.36359e-05
-1.64559e-05
2.45412e-05
-7.60734e-05
-2.11781e-05
4.07315e-05
-6.97325e-05
-2.32434e-06
4.95201e-05
-6.4034e-05
1.78249e-05
4.98761e-05
-5.64473e-05
3.33503e-05
-5.00993e-05
6.16523e-05
3.01322e-05
-8.4109e-05
-8.57734e-05
4.8902e-05
-7.54629e-05
-6.1084e-05
5.83596e-05
-6.79349e-05
-3.00756e-05
5.62242e-05
-5.85415e-05
2.67851e-06
-4.96894e-05
3.32537e-05
3.68165e-05
-7.43601e-05
-0.000146754
5.79506e-05
-6.53795e-05
-0.000110154
6.77477e-05
-5.81216e-05
-7.06728e-05
6.38101e-05
-4.90682e-05
-2.99998e-05
-4.0867e-05
1.77911e-05
4.25816e-05
-5.01342e-05
-0.000202168
6.52119e-05
-4.27329e-05
-0.000153841
7.5284e-05
-3.69568e-05
-0.000110269
6.95461e-05
-3.02758e-05
-6.11556e-05
-2.46975e-05
-2.49365e-06
5.00058e-05
-0.000268546
7.41954e-05
-0.000202091
8.39168e-05
-0.000146764
7.58369e-05
-8.57363e-05
-2.13073e-05
3.57514e-05
-0.000112741
-2.20539e-05
5.86566e-05
-9.82038e-05
3.46082e-06
6.8625e-05
-8.93925e-05
3.22845e-05
6.50905e-05
-7.60574e-05
5.68745e-05
-6.53669e-05
9.21273e-05
4.68252e-05
-0.000138757
-0.000106611
7.13733e-05
-0.000116422
-6.74139e-05
8.22433e-05
-0.000101542
-2.87961e-05
7.57744e-05
-8.24779e-05
1.5568e-05
-6.88196e-05
5.67571e-05
6.37941e-05
-0.000134835
-0.000214497
9.20484e-05
-0.000108409
-0.000146421
0.000101319
-9.22423e-05
-8.92427e-05
8.91217e-05
-7.1586e-05
-2.86949e-05
-5.8815e-05
3.22761e-05
7.87367e-05
-0.000102588
-0.000313207
0.000108182
-7.89569e-05
-0.000212739
0.000116189
-6.39626e-05
-0.000146555
9.79412e-05
-4.70158e-05
-6.74777e-05
-3.58951e-05
3.32522e-06
0.000102429
-0.000473552
0.000134674
-0.000313199
0.000138561
-0.000214503
0.0001125
-0.000106574
-2.21313e-05
5.39281e-05
-0.000177517
-1.48816e-05
8.66292e-05
-0.000151705
2.02837e-05
0.000100202
-0.000135157
5.9916e-05
9.28041e-05
-0.000110888
9.58088e-05
-9.30779e-05
0.000138022
7.3786e-05
-0.00022236
-0.000135589
0.000109553
-0.000183882
-7.10041e-05
0.000124215
-0.000157718
-2.08969e-05
0.000110619
-0.000124413
4.26893e-05
-0.000100366
9.56893e-05
0.000102721
-0.000219404
-0.00032022
0.000145441
-0.000174895
-0.000198129
0.000157501
-0.00014562
-0.000113401
0.000134872
-0.000109726
-2.0752e-05
-8.67483e-05
5.99645e-05
0.000129408
-0.00016661
-0.000495526
0.000174743
-0.000129614
-0.000303355
0.000183691
-0.000102852
-0.000198271
0.000151449
-7.3916e-05
-7.10463e-05
-5.39889e-05
2.0181e-05
0.000166493
-0.000806675
0.000219257
-0.000495396
0.000222141
-0.000320103
0.000177215
-0.000135446
-1.48287e-05
8.58862e-05
-0.000286474
1.91695e-05
0.000123251
-0.000226302
7.35263e-05
0.000134963
-0.000196901
0.000120365
0.000118555
-0.000146966
0.000162142
-0.000118841
0.000205377
0.000122903
-0.000403264
-0.000141712
0.000165012
-0.000299429
-3.99859e-05
0.000178431
-0.000247824
1.66073e-05
0.000146642
-0.000178662
0.000106174
-0.000135085
0.000161986
0.000197692
-0.000464148
-0.000456989
0.000247989
-0.000314213
-0.000233641
0.000247667
-0.000248056
-0.000112847
0.000196673
-0.000165235
1.68144e-05
-0.000123291
0.000120478
0.000269154
-0.000425066
-0.000803798
0.000313928
-0.000269538
-0.000392804
0.000299144
-0.000197753
-0.000233789
0.00022606
-0.000123119
-4.00784e-05
-8.57974e-05
7.3399e-05
0.000425104
-0.00165679
0.000464232
-0.000803873
0.000403149
-0.000456667
0.000286378
-0.000141645
1.95287e-05
0.000115507
-0.000422054
8.80385e-05
0.000166619
-0.00032191
0.000155744
0.000178354
-0.000268339
0.000208404
0.000155396
-0.000195338
0.000251246
-0.000155752
0.000293472
0.000181105
-0.00061905
-0.000125886
0.000239791
-0.000447201
2.66187e-05
0.000241921
-0.000356115
0.000102254
0.00019499
-0.00024214
0.000199908
-0.000178482
0.000251078
0.00030299
-0.000748835
-0.000630296
0.000372832
-0.00050219
-0.000248494
0.000355885
-0.000372939
-7.90763e-05
0.000267979
-0.000239908
0.000102488
-0.000166602
0.000208599
0.000446135
-0.000671272
-0.00132792
0.000502186
-0.000446503
-0.000504543
0.000447026
-0.000303017
-0.00024855
0.000321743
-0.000181187
2.64837e-05
-0.000115331
0.000155733
0.000670531
-0.00299896
0.000748881
-0.0013281
0.000618686
-0.000629357
0.000421688
-0.000125696
8.87605e-05
0.000169051
-0.000688351
0.000273296
0.000219705
-0.000458431
0.000328352
0.000223483
-0.00036911
0.000363724
0.000181825
-0.000239081
0.000387627
-0.000181973
0.000409795
0.000300878
-0.00116115
4.60415e-05
0.000340673
-0.000707656
0.00023605
0.00032019
-0.000537644
0.000291271
0.00023879
-0.000320418
0.000362645
-0.000223377
0.000387425
0.000592225
-0.00185484
-0.000528713
0.000638492
-0.000928964
-7.34543e-05
0.000537728
-0.000637955
0.000121999
0.000369129
-0.000340851
0.000291519
-0.000219402
0.000363982
0.000982551
-0.00213016
-0.00203519
0.000928565
-0.000983608
-0.000395912
0.000707336
-0.000591639
-7.36373e-05
0.000458323
-0.000301109
0.000235756
-0.000168653
0.000328318
0.00213179
-0.0017555
-0.00141579
-0.00233258
-0.00175602
0.00185615
-0.0020333
0.00116118
-0.000525649
0.000688693
4.60621e-05
0.00027445
0.000203242
-0.00091183
0.000542827
0.000257938
-0.000569045
0.000552259
0.000252698
-0.00044225
0.000555144
0.000208591
-0.000277529
0.000539023
-0.000209067
0.000531424
0.000378178
-0.00174796
0.000503782
0.000419138
-0.000940535
0.00056658
0.000375153
-0.000658522
0.000551527
0.000277057
-0.00037547
0.000558683
-0.000252832
0.000538833
0.000852875
-0.00342773
0.000298
0.000859531
-0.00148814
0.000467496
0.000658194
-0.000859266
0.000524081
0.000441777
-0.000419271
0.000551737
-0.000257752
0.000555434
0.0018258
-0.000819179
-0.000347693
-0.000224794
-0.00102491
-0.000611152
-0.000811489
-0.00200442
-0.00144636
0.00148852
-0.00182633
0.000279555
0.000940333
-0.000852177
0.000467463
0.000568829
-0.000378237
0.000566226
-0.000202705
0.000552212
0.000581566
-0.000678363
-0.00248092
0.00342766
-0.000606886
-0.000226766
-0.00102558
-0.000346628
-0.000811309
-0.000818947
-0.00144557
-0.00200402
0.00174661
0.000301759
0.000910901
0.000503423
0.000544039
0.000228731
-0.00113271
0.00095985
0.000266976
-0.000646383
0.000860233
0.000248715
-0.000475731
0.000794933
0.000193493
-0.000271824
0.000711109
-0.000193354
0.000657714
0.000451079
-0.00230193
0.00122179
0.000469166
-0.00113208
0.00103419
0.000388909
-0.00076039
0.000916442
0.000271596
-0.000389306
0.000793479
-0.00024822
0.000710851
0.00116966
-0.00147909
0.00218821
-0.00123798
-0.00147387
-0.0011719
0.00109578
-0.00209875
0.00150803
0.000760599
-0.00109336
0.00119224
0.000476249
-0.000469824
0.000916605
-0.00026593
0.000795022
0.000537171
-0.00258018
0.000215112
0.00209979
-0.00105162
0.00078344
0.000569371
0.00103655
0.000782845
-0.000671304
-0.00105201
-0.000558166
-0.00126192
-0.000672568
-0.00126664
-0.000556957
0.00113188
-0.00116699
0.001509
0.000646973
-0.00045243
0.00103373
-0.000227537
0.000860108
0.00101397
0.000771391
0.000349352
-0.00120518
-0.000930204
-0.000591664
0.00179078
-0.00102397
0.000237975
-0.00064644
-0.000627117
-0.000798065
0.00230172
0.00219565
-0.00123895
-0.00148003
-0.00116928
-0.00147136
0.00113308
0.00122248
0.00096085
0.00014856
-0.000719542
0.0011873
0.000200388
-0.000441321
0.00103419
0.000191241
-0.000345518
0.000932744
0.000163359
-0.000206096
0.000817515
-0.000163948
0.000724816
0.00028791
-0.00126619
0.0014805
0.000309027
-0.000677236
0.00124899
0.000276284
-0.000517792
0.00112146
0.000205462
-0.000276647
0.000934852
-0.000191222
0.000817135
0.000629083
-0.00118088
0.00269001
-0.000845763
-0.000238156
-0.00013294
0.000692983
-0.000529151
0.00189529
-0.000384566
-6.8865e-05
-0.000145812
0.000518077
-0.00068954
0.00153889
0.00034499
-0.000308828
0.00112187
-0.000199858
0.000932756
0.000412107
0.00148171
-0.00104819
-0.000388225
-0.000638309
-0.000607148
-0.000393392
-0.000492478
0.000446297
-0.000573166
0.000873636
0.00067726
-0.000623761
0.00189283
-0.000384213
-0.000529776
-0.000145033
-6.78461e-05
0.000440783
-0.000286734
0.00124812
-0.000147742
0.00103373
0.000592028
0.00327939
0.000164681
-8.44439e-05
-0.003952
-0.000552001
0.000275953
-0.000455986
-0.000278976
0.000567876
0.000443135
0.00126383
0.00268713
-0.000846475
-0.00118142
-0.000128155
-0.000236826
0.000718319
0.00147812
0.00118684
-1.54502e-07
-1.35752e-07
0.00103858
2.61921e-05
-4.35707e-05
0.000964649
4.86571e-05
-6.74503e-05
0.000894566
6.10427e-05
-6.73901e-05
0.000815584
-6.07872e-05
0.000726462
6.18109e-05
0.000144075
0.00127465
6.81017e-05
2.66484e-05
0.00117248
6.91956e-05
-9.64724e-06
0.00106256
6.69899e-05
-7.01139e-05
0.000939782
-4.77785e-05
0.000814768
-0.000196639
0.000301363
0.0014892
0.000355092
0.000493726
0.000390703
-0.000140589
0.000502672
0.00136322
1.01221e-05
0.000146987
0.00123155
6.83556e-05
-7.02282e-05
0.00106375
-2.42849e-05
0.000893864
-0.000118457
0.00120564
0.000233988
-0.00102183
-0.000498533
0.000581717
0.00110477
0.000136264
0.000582424
7.0432e-05
0.000614493
0.000137763
0.000612506
6.27478e-05
-0.00062998
-0.000601298
-0.00104032
-0.00063032
-2.549e-05
0.000205941
0.00136084
4.46973e-05
-6.49995e-05
0.0011727
2.68586e-06
0.000963221
-0.000617306
0.00316787
-0.000316634
0.000443461
-0.00267575
0.000381213
-0.000911508
0.000626953
-3.2649e-05
0.000597428
0.000392764
0.000591064
-0.00106355
-0.000135913
0.00148183
0.000356606
0.000299081
0.000396163
0.000498336
3.77395e-07
0.00127843
0.00103662
-4.24025e-05
1.79747e-07
0.000947833
-3.42286e-05
2.1649e-05
0.000898654
-1.8405e-05
1.36135e-06
0.00082535
1.78709e-05
-6.27311e-06
0.000766665
-1.88629e-05
0.000673963
4.64973e-05
-0.000106736
0.00133415
2.33498e-05
3.59537e-05
0.00118133
-7.37444e-06
8.71404e-05
0.00100751
5.61003e-06
6.32328e-06
0.000914201
1.77943e-05
0.00076635
-0.000182592
0.000295317
0.0013404
0.000293273
-0.00032742
-3.46646e-05
-0.000142807
6.79358e-05
0.00129145
-8.8502e-05
0.000141674
0.00112271
-2.74021e-06
-2.31601e-05
0.00100748
3.40052e-05
0.000824892
0.000397737
5.8723e-05
0.000276271
-0.000437888
-6.58517e-05
9.35151e-05
0.000428959
0.000335006
0.000405923
0.000428137
-7.60969e-05
7.41501e-05
0.000173458
-0.000368206
-6.78564e-05
-0.000362241
0.000173812
-3.60351e-05
0.000181239
0.00129145
-2.14608e-05
-4.65788e-05
0.00118154
4.23877e-05
0.000898033
0.0081326
-0.000423502
1.40758e-05
-0.00204686
-0.00162556
-0.00150035
-0.00225208
-0.000115957
-2.28238e-05
-4.16219e-05
-0.000117006
0.000783534
0.000551143
-0.000422951
9.28019e-05
-0.000911013
9.93705e-05
0.00133824
0.000295702
0.000310527
-5.06131e-05
-0.000330271
-1.50771e-06
0.00133423
0.000947329
-2.83532e-05
0.000103303
0.000998083
-3.4512e-05
0.000142097
0.000903647
-4.85956e-05
9.40492e-05
0.000793577
-3.00325e-05
9.02453e-05
0.000719242
2.90277e-05
0.000616781
-7.02408e-05
0.000102881
0.00140408
-0.000118269
0.000200784
0.00117067
-0.000118848
8.61097e-05
0.00101603
-9.09418e-05
0.000118705
0.000857834
4.8292e-05
0.000719196
2.92344e-05
-0.00057475
0.00218062
-0.000330559
2.27403e-05
0.000115089
-1.03718e-05
-0.000257681
0.00168895
-7.5498e-05
3.44066e-05
0.000141662
-8.73402e-05
1.17295e-05
0.00127406
-9.49861e-05
0.000118341
0.00101549
3.4661e-05
0.000793376
0.000277155
0.000730929
7.28074e-05
-0.000453627
-0.000433199
-0.000369208
-0.000399136
-0.000241506
0.000150938
-0.000408606
0.000670453
-0.000201854
-2.71188e-05
0.00169095
-7.65542e-05
-0.000258535
0.000141898
3.43929e-05
-0.000141922
6.96673e-05
0.00117029
2.8998e-05
0.000903685
0.00193243
0.00101546
0.000383841
-0.000581399
-0.00275014
-0.000404818
0.000220586
-3.00093e-05
0.000324205
-0.000294634
0.000184669
-0.000107556
0.00218587
-0.000334058
-0.000569024
0.000113085
2.42487e-05
-0.000104677
0.00140239
0.000998875
-0.000160004
0.000775577
0.000758968
-0.000191008
0.000546019
0.000692274
-0.000181845
0.000351104
0.000625295
-0.000121256
0.000227231
0.000576252
0.000120479
0.000502267
-0.00029202
0.00156721
0.000904788
-0.000364293
0.000984794
0.000804165
-0.000328826
0.000586366
0.000745297
-0.000228256
0.00032754
0.000656954
0.000182025
0.00057582
-0.000681931
0.000480294
0.00147904
0.00053839
0.00103381
0.000897085
-0.000763123
0.00167746
0.00107748
-0.000586454
0.000767229
0.000916525
-0.000351413
0.000362481
0.000745504
0.00019227
0.000624548
-0.000147242
0.0008914
-0.00115592
0.000288308
0.000136653
0.000145706