/*--------------------------------*- C++ -*----------------------------------*\
| =========                 |                                                 |
| \\      /  F ield         | OpenFOAM: The Open Source CFD Toolbox           |
|  \\    /   O peration     | Version:  5.x                                   |
|   \\  /    A nd           | Web:      www.OpenFOAM.org                      |
|    \\/     M anipulation  |                                                 |
\*---------------------------------------------------------------------------*/
FoamFile
{
    version     2.0;
    format      ascii;
    class       volScalarField;
    location    "0.09";
    object      Ksl;
}
// * * * * * * * * * * * * * * * * * * * * * * * * * * * * * * * * * * * * * //

dimensions      [1 -3 -1 0 0 0 0];

internalField   nonuniform List<scalar> 
160
(
0
0
0
0
7.37677e-05
0.000321744
0.000202208
1.89621e-05
0.00233578
0.00891369
0.00641815
0.00056783
0.0589145
0.212566
0.164723
0.0136263
1.37761
2.7658
1.51831
0.276582
3.10284
3.17097
1.53439
1.33123
1.07752
1.35386
1.02993
0.141929
0.0399163
0.0896837
0.0887828
0.0109423
0.00116274
0.000718777
0.000887185
0.000163481
5.52082e-06
9.25152e-06
8.66646e-06
1.89566e-06
0
4.01704e-05
2.42104e-05
0
0.000321744
0.00179388
0.00121107
0.000103796
0.00891369
0.0673622
0.0507028
0.00435343
0.212566
5.34021
2.82819
0.161704
2.7658
3.32718
1.5722
1.89739
3.17097
3.19705
1.51229
1.50924
1.35386
5.0469
1.86365
1.01597
0.0896837
0.146896
0.146014
0.0964096
0.000718777
0.00199962
0.00190166
0.00244361
9.25152e-06
3.8867e-05
2.83255e-05
1.13815e-05
0
2.42104e-05
1.71137e-05
0
0.000202208
0.00121107
0.000971354
8.26741e-05
0.00641815
0.0507028
0.0472341
0.00428776
0.164723
2.82819
1.94986
0.190722
1.51831
1.5722
1.04473
1.15853
1.53439
1.51229
1.011
1.01756
1.02993
1.86365
1.16745
0.740806
0.0887828
0.146014
0.140647
0.0906655
0.000887185
0.00190166
0.00181296
0.00154954
8.66646e-06
2.83255e-05
1.86553e-05
9.02691e-06
0
0
0
0
1.89621e-05
0.000103796
8.26741e-05
0
0.00056783
0.00435343
0.00428776
0.000315441
0.0136263
0.161704
0.190722
0.0171151
0.276582
1.89739
1.15853
0.955437
1.33123
1.50924
1.01756
0.96614
0.141929
1.01597
0.740806
0.151136
0.0109423
0.0964096
0.0906655
0.00374373
0.000163481
0.00244361
0.00154954
8.92649e-05
1.89566e-06
1.13815e-05
9.02691e-06
2.89843e-06
)
;

boundaryField
{
    inlet
    {
        type            zeroGradient;
    }
    outlet
    {
        type            zeroGradient;
    }
    walls
    {
        type            zeroGradient;
    }
    procBoundary0to1
    {
        type            processor;
        value           nonuniform List<scalar> 
16
(
-2.0845e-21
-7.11081e-21
-5.35452e-21
0
-7.11081e-21
1.28684e-06
8.82653e-07
-9.62481e-21
-5.35452e-21
8.82653e-07
7.65603e-07
-6.10165e-21
0
-9.62481e-21
-6.10165e-21
0
)
;
    }
}


// ************************************************************************* //
