/*--------------------------------*- C++ -*----------------------------------*\
| =========                 |                                                 |
| \\      /  F ield         | OpenFOAM: The Open Source CFD Toolbox           |
|  \\    /   O peration     | Version:  5.x                                   |
|   \\  /    A nd           | Web:      www.OpenFOAM.org                      |
|    \\/     M anipulation  |                                                 |
\*---------------------------------------------------------------------------*/
FoamFile
{
    version     2.0;
    format      ascii;
    class       volScalarField;
    location    "0.09";
    object      p;
}
// * * * * * * * * * * * * * * * * * * * * * * * * * * * * * * * * * * * * * //

dimensions      [0 2 -2 0 0 0 0];

internalField   nonuniform List<scalar> 
160
(
3.1577e-07
3.36918e-07
3.23378e-07
3.13155e-07
9.30463e-07
1.01322e-06
9.60489e-07
8.86284e-07
1.49085e-06
1.70526e-06
1.57448e-06
1.3402e-06
1.71146e-06
2.40409e-06
2.06696e-06
1.43199e-06
5.54546e-07
1.93288e-06
1.39725e-06
4.2389e-07
-2.49184e-06
-3.71889e-06
-2.89034e-06
-1.99309e-06
-2.97198e-06
-5.34042e-06
-3.70572e-06
-1.92948e-06
2.09372e-06
4.66372e-06
3.48314e-06
1.79912e-06
2.65473e-06
4.63999e-06
4.00616e-06
3.02328e-06
2.91917e-06
3.03783e-06
2.9268e-06
2.82945e-06
3.36918e-07
4.71102e-07
4.22633e-07
4.11476e-07
1.01322e-06
1.58455e-06
1.36366e-06
1.22697e-06
1.70526e-06
3.28907e-06
2.61341e-06
2.07893e-06
2.40409e-06
7.17092e-06
4.96288e-06
2.88832e-06
1.93288e-06
1.40919e-05
8.21846e-06
2.77112e-06
-3.71889e-06
1.30989e-05
4.15119e-06
4.82157e-07
-5.34042e-06
-1.48779e-05
-9.62615e-06
-2.36635e-06
4.66372e-06
-1.69094e-05
-6.93553e-06
-8.98212e-07
4.63999e-06
-5.37944e-07
8.81511e-07
1.33977e-06
3.03783e-06
1.77284e-07
1.3437e-06
1.32479e-06
3.23378e-07
4.22633e-07
3.97635e-07
3.94161e-07
9.60489e-07
1.36366e-06
1.24995e-06
1.14507e-06
1.57448e-06
2.61341e-06
2.28296e-06
1.85925e-06
2.06696e-06
4.96288e-06
3.97496e-06
2.39994e-06
1.39725e-06
8.21846e-06
5.87076e-06
1.96981e-06
-2.89034e-06
4.15119e-06
1.86857e-06
-6.61334e-07
-3.70572e-06
-9.62615e-06
-7.16966e-06
-2.28388e-06
3.48314e-06
-6.93553e-06
-4.01352e-06
3.81272e-07
4.00616e-06
8.81511e-07
1.54471e-06
1.97676e-06
2.9268e-06
1.3437e-06
1.7173e-06
1.79537e-06
3.13155e-07
4.11476e-07
3.94161e-07
4.11412e-07
8.86284e-07
1.22697e-06
1.14507e-06
1.14698e-06
1.3402e-06
2.07893e-06
1.85925e-06
1.78368e-06
1.43199e-06
2.88832e-06
2.39994e-06
2.02712e-06
4.2389e-07
2.77112e-06
1.96981e-06
1.35503e-06
-1.99309e-06
4.82157e-07
-6.61334e-07
-2.09188e-07
-1.92948e-06
-2.36635e-06
-2.28388e-06
-9.33784e-07
1.79912e-06
-8.98212e-07
3.81272e-07
7.31683e-07
3.02328e-06
1.33977e-06
1.97676e-06
1.54166e-06
2.82945e-06
1.32479e-06
1.79537e-06
1.62249e-06
)
;

boundaryField
{
    inlet
    {
        type            zeroGradient;
    }
    outlet
    {
        type            totalPressure;
        rho             rho;
        psi             none;
        gamma           1;
        p0              uniform 0;
        value           uniform 0;
    }
    walls
    {
        type            zeroGradient;
    }
    procBoundary0to1
    {
        type            processor;
        value           nonuniform List<scalar> 
16
(
2.78278e-06
2.74927e-06
2.64461e-06
2.70226e-06
2.74927e-06
8.14792e-07
1.53299e-06
1.57087e-06
2.64461e-06
1.53299e-06
1.59356e-06
1.76562e-06
2.70226e-06
1.57087e-06
1.76562e-06
1.68008e-06
)
;
    }
}


// ************************************************************************* //
