/*--------------------------------*- C++ -*----------------------------------*\
| =========                 |                                                 |
| \\      /  F ield         | OpenFOAM: The Open Source CFD Toolbox           |
|  \\    /   O peration     | Version:  5.x                                   |
|   \\  /    A nd           | Web:      www.OpenFOAM.org                      |
|    \\/     M anipulation  |                                                 |
\*---------------------------------------------------------------------------*/
FoamFile
{
    version     2.0;
    format      ascii;
    class       surfaceScalarField;
    location    "0.09";
    object      phi;
}
// * * * * * * * * * * * * * * * * * * * * * * * * * * * * * * * * * * * * * //

dimensions      [0 3 -1 0 0 0 0];

internalField   nonuniform List<scalar> 
384
(
-1.48218e-12
-5.85524e-12
-1.48218e-12
-6.19673e-13
-1.1553e-11
-4.47601e-12
-3.245e-14
-1.1627e-11
-3.83911e-12
-1.02351e-11
-3.65884e-12
-4.46682e-12
-4.01967e-12
-4.46682e-12
-1.59074e-12
-1.1745e-11
-1.68946e-11
3.65736e-13
-1.09293e-11
-1.37249e-11
-7.63902e-12
-1.1738e-11
-8.59143e-12
-9.07239e-13
-8.59143e-12
-2.18496e-12
-1.26849e-11
-4.15697e-11
2.45882e-12
-1.03178e-11
-3.11322e-11
-2.40427e-12
-2.39126e-11
-1.53121e-11
4.72487e-12
-1.53121e-11
-1.8523e-12
-1.43068e-11
-1.00125e-10
7.15941e-12
-8.62029e-12
-6.85999e-11
7.17838e-12
-4.34888e-11
-1.94681e-11
9.06251e-12
-1.94681e-11
-1.51906e-12
-1.11536e-11
-2.22674e-10
1.35219e-11
-5.36598e-12
-1.42905e-10
1.90372e-11
-7.24742e-11
-3.67263e-11
1.24902e-12
-3.67263e-11
3.07193e-12
-3.96174e-11
-6.35615e-10
3.58481e-11
-1.26752e-11
-3.71604e-10
3.34388e-11
-1.21275e-10
-1.58952e-11
-1.73957e-11
-1.58952e-11
3.41226e-12
-1.69515e-10
-5.43994e-10
3.62546e-11
-7.76703e-11
-3.21139e-10
2.45028e-11
-1.07126e-10
7.50917e-12
3.77549e-12
7.50917e-12
2.26702e-11
-2.17715e-10
3.33409e-11
2.61208e-11
-1.01093e-10
-1.97489e-11
1.34265e-11
-1.71286e-11
-2.35173e-12
2.66796e-11
-2.35173e-12
1.56801e-11
-1.73701e-10
3.3439e-10
3.99219e-11
-6.99171e-11
1.05977e-10
1.70511e-11
5.55803e-11
3.83403e-11
3.83403e-11
8.08896e-12
5.27643e-10
-1.85084e-11
3.24964e-10
1.18892e-10
-4.47601e-12
-1.1553e-11
-6.19673e-13
-9.9188e-13
-3.75913e-11
-9.9188e-13
3.59799e-13
-3.09859e-11
-1.27893e-12
-2.59148e-11
-1.56002e-12
-1.68946e-11
-1.1745e-11
-1.59074e-12
-2.33509e-12
-6.67103e-11
-2.33509e-12
3.37642e-12
-4.70943e-11
-3.32801e-12
-3.21121e-11
-3.99454e-12
-4.15697e-11
-1.26849e-11
-2.18496e-12
-2.14088e-12
-1.45568e-10
-2.14088e-12
1.39921e-11
-8.97708e-11
-4.58874e-12
-4.309e-11
-6.2901e-12
-1.00125e-10
-1.43068e-11
-1.8523e-12
4.88747e-12
-3.55593e-10
4.88747e-12
4.70422e-11
-1.97075e-10
-3.45078e-12
-5.58293e-11
-7.46955e-12
-2.22674e-10
-1.11536e-11
-1.51906e-12
3.22101e-11
-8.65361e-10
3.22101e-11
1.25633e-10
-4.36437e-10
3.03368e-12
-6.18903e-11
-6.847e-12
-6.35615e-10
-3.96174e-11
3.07193e-12
1.71232e-10
-2.47906e-09
1.71232e-10
4.51656e-10
-1.1376e-09
4.91397e-11
1.77327e-11
-9.96577e-13
-5.43994e-10
-1.69515e-10
3.41226e-12
1.28683e-10
-3.82441e-09
1.28683e-10
4.34367e-10
-1.7975e-09
3.30769e-11
8.20451e-11
1.08703e-13
3.33409e-11
-2.17715e-10
2.26702e-11
-6.56248e-11
-3.62648e-09
-6.56248e-11
-1.15956e-11
-1.85723e-09
-1.40501e-11
4.89699e-11
-1.21489e-11
3.3439e-10
-1.73701e-10
1.56801e-11
-1.10243e-10
-2.73721e-09
-1.10243e-10
-2.03226e-10
-1.59712e-09
-6.11504e-11
-2.95702e-11
-1.04938e-11
5.27643e-10
8.08896e-12
-1.05631e-10
-1.05631e-10
-3.89439e-10
-2.94436e-11
-7.2539e-13
-3.83911e-12
-1.1627e-11
-3.245e-14
-1.27893e-12
-3.09859e-11
3.59799e-13
-4.9347e-14
-2.86364e-11
-4.9347e-14
-2.46455e-11
-7.82135e-13
-1.37249e-11
-1.09293e-11
3.65736e-13
-3.32801e-12
-4.70943e-11
3.37642e-12
1.84292e-12
-3.89783e-11
1.84292e-12
-2.6971e-11
-9.75218e-13
-3.11322e-11
-1.03178e-11
2.45882e-12
-4.58874e-12
-8.97708e-11
1.39921e-11
9.15427e-12
-6.64643e-11
9.15427e-12
-3.02354e-11
6.26863e-13
-6.85999e-11
-8.62029e-12
7.15941e-12
-3.45078e-12
-1.97075e-10
4.70422e-11
3.13368e-11
-1.36039e-10
3.13368e-11
-3.03891e-11
5.89769e-12
-1.42905e-10
-5.36598e-12
1.35219e-11
3.03368e-12
-4.36437e-10
1.25633e-10
8.42451e-11
-2.98462e-10
8.42451e-11
-2.16404e-11
1.75038e-11
-3.71604e-10
-1.26752e-11
3.58481e-11
4.91397e-11
-1.1376e-09
4.51656e-10
2.84361e-10
-7.68905e-10
2.84361e-10
3.01624e-11
4.50489e-11
-3.21139e-10
-7.76703e-11
3.62546e-11
3.30769e-11
-1.7975e-09
4.34367e-10
2.75865e-10
-1.25448e-09
2.75865e-10
5.16518e-11
4.31363e-11
-1.97489e-11
-1.01093e-10
2.61208e-11
-1.40501e-11
-1.85723e-09
-1.15956e-11
2.58863e-11
-1.33435e-09
2.58863e-11
2.07148e-11
9.85547e-13
1.05977e-10
-6.99171e-11
3.99219e-11
-6.11504e-11
-1.59712e-09
-2.03226e-10
-1.8437e-11
-1.41978e-09
-1.8437e-11
-5.24005e-11
-1.94913e-11
3.24964e-10
-1.85084e-11
-2.94436e-11
-3.89439e-10
-2.4231e-10
-2.4231e-10
-5.15809e-11
-3.65884e-12
-1.02351e-11
-1.56002e-12
-2.59148e-11
-7.82135e-13
-2.46455e-11
-2.47746e-11
-1.1738e-11
-7.63902e-12
-3.99454e-12
-3.21121e-11
-9.75218e-13
-2.6971e-11
-2.50299e-11
-2.39126e-11
-2.40427e-12
-6.2901e-12
-4.309e-11
6.26863e-13
-3.02354e-11
-2.26061e-11
-4.34888e-11
7.17838e-12
-7.46955e-12
-5.58293e-11
5.89769e-12
-3.03891e-11
-1.48358e-11
-7.24742e-11
1.90372e-11
-6.847e-12
-6.18903e-11
1.75038e-11
-2.16404e-11
3.68435e-12
-1.21275e-10
3.34388e-11
-9.96577e-13
1.77327e-11
4.50489e-11
3.01624e-11
4.46652e-11
-1.07126e-10
2.45028e-11
1.08703e-13
8.20451e-11
4.31363e-11
5.16518e-11
7.93488e-11
-1.71286e-11
1.34265e-11
-1.21489e-11
4.89699e-11
9.85547e-13
2.07148e-11
9.33943e-11
5.55803e-11
1.70511e-11
-1.04938e-11
-2.95702e-11
-1.94913e-11
-5.24005e-11
6.74687e-11
1.18892e-10
-7.2539e-13
-5.15809e-11
)
;

boundaryField
{
    inlet
    {
        type            calculated;
        value           nonuniform 0();
    }
    outlet
    {
        type            calculated;
        value           nonuniform List<scalar> 
16
(
6.48483e-12
1.14598e-11
1.18193e-11
1.10316e-11
1.14598e-11
3.06231e-11
2.7074e-11
2.40011e-11
1.18193e-11
2.7074e-11
2.61773e-11
2.38618e-11
1.10316e-11
2.40011e-11
2.38618e-11
2.42673e-11
)
;
    }
    walls
    {
        type            calculated;
        value           nonuniform List<scalar> 
160
(
1.16738e-12
3.54904e-12
7.03522e-12
1.24961e-11
1.72993e-11
4.0633e-11
2.52175e-11
-1.80948e-11
-9.1003e-12
-4.23913e-11
3.70671e-12
1.42105e-11
3.61031e-11
8.8287e-11
2.01572e-10
6.24281e-10
6.54584e-10
-3.01967e-13
-3.96437e-10
-5.96071e-10
3.05961e-12
1.10708e-11
2.58769e-11
5.78907e-11
1.2461e-10
3.46138e-10
3.53292e-10
3.97206e-11
-1.61394e-10
-3.41829e-10
2.80406e-12
9.20564e-12
1.94703e-11
3.68642e-11
6.48254e-11
1.15718e-10
1.17181e-10
3.45562e-11
-5.78063e-11
-1.22424e-10
2.57624e-14
3.02019e-13
1.66637e-12
4.20131e-12
9.31186e-12
2.7004e-11
3.51356e-11
1.97696e-11
3.85234e-11
-1.51726e-11
1.74721e-13
1.83031e-12
7.34753e-12
2.37622e-11
6.60669e-11
2.51754e-10
2.6282e-10
1.64999e-11
-5.86116e-11
-2.21642e-10
-4.3546e-14
1.14906e-12
5.50175e-12
1.81232e-11
5.11457e-11
1.86513e-10
2.11348e-10
4.36888e-11
6.36758e-11
-1.66827e-10
-5.28435e-13
-8.476e-13
-5.85015e-13
2.01254e-12
8.24368e-12
2.45585e-11
2.57946e-11
-6.03724e-12
-6.52852e-12
-2.98067e-11
1.16738e-12
3.54904e-12
7.03522e-12
1.24961e-11
1.72993e-11
4.0633e-11
2.52175e-11
-1.80948e-11
-9.1003e-12
-4.23913e-11
3.70671e-12
1.42105e-11
3.61031e-11
8.8287e-11
2.01572e-10
6.24281e-10
6.54584e-10
-3.01967e-13
-3.96437e-10
-5.96071e-10
3.05961e-12
1.10708e-11
2.58769e-11
5.78907e-11
1.2461e-10
3.46138e-10
3.53292e-10
3.97206e-11
-1.61394e-10
-3.41829e-10
2.80406e-12
9.20564e-12
1.94703e-11
3.68642e-11
6.48254e-11
1.15718e-10
1.17181e-10
3.45562e-11
-5.78063e-11
-1.22424e-10
2.57624e-14
3.02019e-13
1.66637e-12
4.20131e-12
9.31186e-12
2.7004e-11
3.51356e-11
1.97696e-11
3.85234e-11
-1.51726e-11
1.74721e-13
1.83031e-12
7.34753e-12
2.37622e-11
6.60669e-11
2.51754e-10
2.6282e-10
1.64999e-11
-5.86116e-11
-2.21642e-10
-4.3546e-14
1.14906e-12
5.50175e-12
1.81232e-11
5.11457e-11
1.86513e-10
2.11348e-10
4.36888e-11
6.36758e-11
-1.66827e-10
-5.28435e-13
-8.476e-13
-5.85015e-13
2.01254e-12
8.24368e-12
2.45585e-11
2.57946e-11
-6.03724e-12
-6.52852e-12
-2.98067e-11
)
;
    }
    procBoundary0to1
    {
        type            processor;
        value           nonuniform List<scalar> 
16
(
3.47815e-11
-7.50218e-11
-2.6454e-11
1.72473e-11
-7.50218e-11
-1.47066e-09
-9.58907e-10
-7.77501e-11
-2.6454e-11
-9.58907e-10
-9.94048e-10
-7.7028e-11
1.72473e-11
-7.77501e-11
-7.7028e-11
2.39204e-11
)
;
    }
}


// ************************************************************************* //
