/*--------------------------------*- C++ -*----------------------------------*\
| =========                 |                                                 |
| \\      /  F ield         | OpenFOAM: The Open Source CFD Toolbox           |
|  \\    /   O peration     | Version:  5.x                                   |
|   \\  /    A nd           | Web:      www.OpenFOAM.org                      |
|    \\/     M anipulation  |                                                 |
\*---------------------------------------------------------------------------*/
FoamFile
{
    version     2.0;
    format      ascii;
    class       volVectorField;
    location    "0.09";
    object      U;
}
// * * * * * * * * * * * * * * * * * * * * * * * * * * * * * * * * * * * * * //

dimensions      [0 1 -1 0 0 0 0];

internalField   nonuniform List<vector> 
160
(
(-1.90963e-07 -1.03424e-06 -1.90963e-07)
(-2.19171e-07 -1.83406e-06 -6.19656e-07)
(-1.34684e-08 -1.88918e-06 -5.092e-07)
(6.1438e-09 -1.75454e-06 -4.68096e-07)
(-5.84188e-07 -8.83972e-07 -5.84188e-07)
(-6.38711e-07 -1.90234e-06 -2.38668e-06)
(4.08152e-08 -1.87029e-06 -1.85106e-06)
(6.29765e-08 -1.49695e-06 -1.54018e-06)
(-1.16798e-06 -3.93125e-07 -1.16798e-06)
(-1.1891e-06 -1.96302e-06 -6.08975e-06)
(3.53191e-07 -1.67735e-06 -4.34579e-06)
(3.12882e-07 -8.81933e-07 -3.26112e-06)
(-2.13615e-06 3.07737e-07 -2.13615e-06)
(-1.95032e-06 -1.59211e-06 -1.50687e-05)
(1.11414e-06 -1.23826e-06 -9.83527e-06)
(7.976e-07 2.14269e-07 -6.18586e-06)
(-3.04004e-06 1.08842e-06 -3.04004e-06)
(-2.77262e-06 -3.10041e-06 -3.46557e-05)
(2.18169e-06 -1.62633e-06 -2.12866e-05)
(1.68211e-06 1.80371e-06 -1.08356e-05)
(-6.25905e-06 9.28e-07 -6.25905e-06)
(-4.74346e-06 -1.12186e-06 -0.00010321)
(6.10554e-06 -5.79243e-07 -5.67745e-05)
(4.14348e-06 3.79203e-06 -1.90036e-05)
(-3.56715e-06 -1.13657e-06 -3.56715e-06)
(-3.64888e-06 -1.59558e-05 -0.000102847)
(5.78954e-06 -5.29189e-06 -5.53559e-05)
(5.27094e-06 5.36228e-06 -1.86627e-05)
(2.38766e-06 -2.08246e-06 2.38766e-06)
(2.02812e-06 -3.71713e-05 4.3151e-06)
(3.53672e-06 -1.83908e-05 -4.29466e-06)
(3.49568e-06 2.74975e-06 -4.99634e-06)
(1.06401e-06 1.87004e-06 1.06401e-06)
(-9.06532e-07 -4.10731e-05 6.4454e-05)
(4.57483e-06 -1.80686e-05 2.6441e-05)
(6.35783e-06 1.61374e-06 9.58145e-06)
(6.75918e-06 5.60824e-06 6.75918e-06)
(5.95502e-06 -2.21393e-05 9.59371e-05)
(-3.7112e-06 -8.49107e-06 5.50058e-05)
(-2.40839e-06 2.56709e-06 1.9885e-05)
(-6.19656e-07 -1.83406e-06 -2.19171e-07)
(-5.4308e-07 -4.93366e-06 -5.4308e-07)
(1.10703e-07 -4.35085e-06 -5.13299e-07)
(3.01655e-08 -3.8387e-06 -4.99767e-07)
(-2.38668e-06 -1.90234e-06 -6.38711e-07)
(-1.9214e-06 -7.60527e-06 -1.9214e-06)
(8.12278e-07 -5.91128e-06 -1.74184e-06)
(3.19885e-07 -4.42856e-06 -1.52157e-06)
(-6.08975e-06 -1.96302e-06 -1.1891e-06)
(-4.39183e-06 -1.5034e-05 -4.39183e-06)
(3.05591e-06 -9.95126e-06 -3.73809e-06)
(1.28132e-06 -5.66397e-06 -2.94004e-06)
(-1.50687e-05 -1.59211e-06 -1.95032e-06)
(-9.67742e-06 -3.10971e-05 -9.67742e-06)
(9.83401e-06 -1.8799e-05 -7.70107e-06)
(4.21226e-06 -7.55276e-06 -5.0293e-06)
(-3.46557e-05 -3.10041e-06 -2.77262e-06)
(-2.10141e-05 -9.46293e-05 -2.10141e-05)
(2.59152e-05 -5.04567e-05 -1.56523e-05)
(1.16479e-05 -1.12597e-05 -7.96769e-06)
(-0.00010321 -1.12186e-06 -4.74346e-06)
(-5.51209e-05 -0.000137173 -5.51209e-05)
(9.09815e-05 -6.7565e-05 -3.92453e-05)
(4.10062e-05 -4.95513e-06 -1.23055e-05)
(-0.000102847 -1.59558e-05 -3.64888e-06)
(-5.52028e-05 -0.000654175 -5.52028e-05)
(9.15634e-05 -0.00031826 -4.02782e-05)
(4.06155e-05 8.42788e-06 -1.16447e-05)
(4.3151e-06 -3.71713e-05 2.02812e-06)
(-4.1618e-06 -0.000530956 -4.1618e-06)
(-4.74222e-06 -0.00027809 -6.72836e-06)
(1.44591e-06 1.2481e-05 -3.1778e-06)
(6.4454e-05 -4.10731e-05 -9.06532e-07)
(2.3728e-05 -0.00050145 2.3728e-05)
(-5.05352e-05 -0.000263918 2.55862e-07)
(-9.4685e-06 3.16306e-06 4.30564e-06)
(9.59371e-05 -2.21393e-05 5.95502e-06)
(5.39576e-05 -0.000337405 5.39576e-05)
(-8.14032e-05 -0.00022917 3.85313e-05)
(-3.54589e-05 -1.49919e-05 1.27591e-05)
(-5.092e-07 -1.88918e-06 -1.34684e-08)
(-5.13299e-07 -4.35085e-06 1.10703e-07)
(4.8551e-10 -4.19968e-06 4.8551e-10)
(-6.27914e-09 -3.81048e-06 -1.11673e-07)
(-1.85106e-06 -1.87029e-06 4.08152e-08)
(-1.74184e-06 -5.91128e-06 8.12278e-07)
(3.58765e-07 -5.23965e-06 3.58765e-07)
(2.04593e-07 -4.03019e-06 -8.95839e-08)
(-4.34579e-06 -1.67735e-06 3.53191e-07)
(-3.73809e-06 -9.95126e-06 3.05591e-06)
(1.66909e-06 -7.80363e-06 1.66909e-06)
(9.64085e-07 -4.44435e-06 2.98089e-07)
(-9.83527e-06 -1.23826e-06 1.11414e-06)
(-7.70107e-06 -1.8799e-05 9.83401e-06)
(5.58604e-06 -1.35359e-05 5.58604e-06)
(3.21122e-06 -4.86941e-06 1.6731e-06)
(-2.12866e-05 -1.62633e-06 2.18169e-06)
(-1.56523e-05 -5.04567e-05 2.59152e-05)
(1.51147e-05 -3.42709e-05 1.51147e-05)
(8.95478e-06 -5.50871e-06 4.54608e-06)
(-5.67745e-05 -5.79243e-07 6.10554e-06)
(-3.92453e-05 -6.7565e-05 9.09815e-05)
(4.92703e-05 -4.68243e-05 4.92703e-05)
(3.03424e-05 -3.21708e-07 1.09554e-05)
(-5.53559e-05 -5.29189e-06 5.78954e-06)
(-4.02782e-05 -0.00031826 9.15634e-05)
(5.02271e-05 -0.000215791 5.02271e-05)
(3.28495e-05 7.32296e-06 1.14844e-05)
(-4.29466e-06 -1.83908e-05 3.53672e-06)
(-6.72836e-06 -0.00027809 -4.74222e-06)
(5.5227e-06 -0.00020192 5.5227e-06)
(6.121e-06 6.43089e-06 1.23597e-06)
(2.6441e-05 -1.80686e-05 4.57483e-06)
(2.55862e-07 -0.000263918 -5.05352e-05)
(-1.53446e-05 -0.000189688 -1.53446e-05)
(1.01027e-05 8.50648e-08 -6.09625e-06)
(5.50058e-05 -8.49107e-06 -3.7112e-06)
(3.85313e-05 -0.00022917 -8.14032e-05)
(-4.57923e-05 -0.000245136 -4.57923e-05)
(-2.67078e-05 -1.98978e-05 -1.24733e-05)
(-4.68096e-07 -1.75454e-06 6.1438e-09)
(-4.99767e-07 -3.8387e-06 3.01655e-08)
(-1.11673e-07 -3.81048e-06 -6.27914e-09)
(-8.79616e-08 -3.8655e-06 -8.79616e-08)
(-1.54018e-06 -1.49695e-06 6.29765e-08)
(-1.52157e-06 -4.42856e-06 3.19885e-07)
(-8.95839e-08 -4.03019e-06 2.04593e-07)
(-1.35994e-07 -3.85211e-06 -1.35994e-07)
(-3.26112e-06 -8.81933e-07 3.12882e-07)
(-2.94004e-06 -5.66397e-06 1.28132e-06)
(2.98089e-07 -4.44435e-06 9.64085e-07)
(-7.86803e-08 -3.72127e-06 -7.86803e-08)
(-6.18586e-06 2.14269e-07 7.976e-07)
(-5.0293e-06 -7.55276e-06 4.21226e-06)
(1.6731e-06 -4.86941e-06 3.21122e-06)
(3.95628e-07 -3.1109e-06 3.95628e-07)
(-1.08356e-05 1.80371e-06 1.68211e-06)
(-7.96769e-06 -1.12597e-05 1.16479e-05)
(4.54608e-06 -5.50871e-06 8.95478e-06)
(1.44038e-06 -1.8222e-06 1.44038e-06)
(-1.90036e-05 3.79203e-06 4.14348e-06)
(-1.23055e-05 -4.95513e-06 4.10062e-05)
(1.09554e-05 -3.21708e-07 3.03424e-05)
(3.84008e-06 2.68416e-06 3.84008e-06)
(-1.86627e-05 5.36228e-06 5.27094e-06)
(-1.16447e-05 8.42788e-06 4.06155e-05)
(1.14844e-05 7.32296e-06 3.28495e-05)
(3.86053e-06 9.69332e-06 3.86053e-06)
(-4.99634e-06 2.74975e-06 3.49568e-06)
(-3.1778e-06 1.2481e-05 1.44591e-06)
(1.23597e-06 6.43089e-06 6.121e-06)
(-1.03515e-06 1.39528e-05 -1.03515e-06)
(9.58145e-06 1.61374e-06 6.35783e-06)
(4.30564e-06 3.16306e-06 -9.4685e-06)
(-6.09625e-06 8.50648e-08 1.01027e-05)
(-9.58645e-07 1.36817e-05 -9.58645e-07)
(1.9885e-05 2.56709e-06 -2.40839e-06)
(1.27591e-05 -1.49919e-05 -3.54589e-05)
(-1.24733e-05 -1.98978e-05 -2.67078e-05)
(-4.73493e-06 5.68593e-06 -4.73493e-06)
)
;

boundaryField
{
    inlet
    {
        type            fixedValue;
        value           nonuniform 0();
    }
    outlet
    {
        type            zeroGradient;
    }
    walls
    {
        type            fixedValue;
        value           uniform (0 0 0);
    }
    procBoundary0to1
    {
        type            processor;
        value           nonuniform List<vector> 
16
(
(7.01154e-06 4.26379e-06 7.01154e-06)
(8.933e-06 -3.95195e-06 6.79323e-05)
(-6.15548e-06 -1.14151e-06 4.69862e-05)
(-7.3627e-06 2.41047e-06 1.65367e-05)
(6.79323e-05 -3.95195e-06 8.933e-06)
(4.98329e-05 -0.000115793 4.98329e-05)
(-5.88919e-05 -7.05996e-05 5.19878e-05)
(-3.69758e-05 -1.19229e-05 1.31476e-05)
(4.69862e-05 -1.14151e-06 -6.15548e-06)
(5.19878e-05 -7.05996e-05 -5.88919e-05)
(-4.27944e-05 -5.99696e-05 -4.27944e-05)
(-4.42206e-05 -7.10258e-06 -9.36893e-06)
(1.65367e-05 2.41047e-06 -7.3627e-06)
(1.31476e-05 -1.19229e-05 -3.69758e-05)
(-9.36893e-06 -7.10258e-06 -4.42206e-05)
(-5.20331e-06 1.12874e-06 -5.20331e-06)
)
;
    }
}


// ************************************************************************* //
