/*--------------------------------*- C++ -*----------------------------------*\
| =========                 |                                                 |
| \\      /  F ield         | OpenFOAM: The Open Source CFD Toolbox           |
|  \\    /   O peration     | Version:  5.x                                   |
|   \\  /    A nd           | Web:      www.OpenFOAM.org                      |
|    \\/     M anipulation  |                                                 |
\*---------------------------------------------------------------------------*/
FoamFile
{
    version     2.0;
    format      ascii;
    class       volScalarField;
    location    "0.087";
    object      interFace;
}
// * * * * * * * * * * * * * * * * * * * * * * * * * * * * * * * * * * * * * //

dimensions      [0 0 0 0 0 0 0];

internalField   nonuniform List<scalar> 
1581
(
0
0
0
0
0
0
0
0
0
0
0
0
0
0
0
0
0
0
0
0
0
0
0
0
0
0
0
0
0
0
0
0
0
0
0
0
0
0
0
0
0
0
0
0
0
0
0
0
0
0
0
0
0
0
0
0
0
0
0
0
0
0
0
0
0
0
0
0
0
0
0
0
0
0
0
0
0
0
0
0
0
0
0
0
0
0
0
0
0
0
0
0
0
0
0
0
0
0
0
0
0
0
0
0
0
0
0
0
0
0
0
0
0
0
0
0
0
0
0
0
0
0
0
0
0
0
0
0
0
0
0
0
0
0
0
0
0
0
0
0
0
0
0
0
0
0
0
0
0
0
0
0
0
0
0
0
0
0
0
0
0
0
0
0
0
0
0
0
0
0
0
0
0
0
0
0
0
0
0
0
0
0
0
0
0
0
0
0
0
0
0
0
0
0
0
0
0
0
0
0
0
0
0
0
0
0
0
0
0
0
0
0
0
0
0
0
0
0
0
0
0
0
0
0
0
0
0
0
0
0
0
0
0
0
0
0
0
0
0
0
0
0
0
0
0
0
0
0
0
0
0
0
0
0
0
0
0
0
0
0
0
0
0
0
0
0
0
0
0
0
0
0
0
0
0
0
0
0
0
0
0
0
0
0
0
0
0
0
0
0
0
0
0
0
0
0
0
0
0
0
0
0
0
0
0
0
0
0
0
0
0
0
0
0
0
0
0
0
0
0
0
0
0
0
0
0
0
0
0
0
0
0
0
0
0
0
0
0
0
0
0
0
0
0
0
0
0
0
0
0
0
0
0
0
0
0
0
0
0
0
0
0
0
0
0
0
0
0
0
0
0
0
0
0
0
0
0
0
0
0
0
0
0
0
0
0
0
0
0
0
0
0
0
0
0
0
0
0
0
0
0
0
0
0
0
0
0
0
0
0
0
0
0
0
0
0
0
0
0
0
0
0
0
0
0
0
0
0
0
0
0
0
0
0
0
0
0
0
0
0
0
0
0
0
0
0
0
0
0
0
0
0
0
0
0
0
0
0
0
0
0
0
0
0
0
0
0
0
0
0
0
0
0
0
0
0
0
0
0
0
0
0
0
0
0
0
0
0
0
0
0
0
0
0
0
0
0
0
0
0
0
0
0
0
0
0
0
0
0
0
0
0
0
0
0
0
0
0
0
0
0
0
0
0
0
0
0
0
0
0
0
0
0
0
0
0
0
0
0
0
0
0
0
0
0
0
0
0
0
0
0
0
0
0
0
0
0
0
0
0
0
0
0
0
0
0
0
0
0
0
0
0
0
0
0
0
0
0
0
0
0
0
0
0
0
0
0
0
0
0
0
0
0
0
0
0
0
0
0
0
0
0
0
0
0
0
0
0
0
0
0
0
0
0
0
0
0
0
0
0
0
0
0
0
0
0
0
0
0
0
0
0
0
0
0
0
0
0
0
0
0
0
0
0
0
0
0
0
0
0.966894
0
0
0
0
0
0
0
0
0
0
0
0
0
0
0
0
0
0
0
0
0
0
0
0
0.600065
0
0
0
0
0
0
0
0
0
0
0
0
0
0
0
0
0
0
0
0
0
0
0
0
0.68675
0
0
0
0
0
0
0
0
0
0
0
0
0
0
0
0
0
0
0
0
0
0
0
0
0
0
0
0
0
0
0
0
0
0
0
0
0
0
0
0
0
0
0
0
0
0
0
0
0
0.733188
0
0
0
0
0
0
0
0
0
0
0
0
0
0
0
0
0
0
0
0
0
0
0
0
0.57744
0
0
0
0
0
0
0
0
0
0
0
0
0
0
0
0
0
0
0
0
0
0
0
0
0
0
0
0
0
0
0
0
0
0
0
0
0
0
0
0
0
0
0
0
0
0
0
0
0
0
0
0
0
0
0
0
0
0
0
0
0
0
0
0
0
0
0
0
0
0
0
0
0
0
0
0
0
0
0
0
0
0
0
0
0
0
0
0
0
0
0
0
0
0
0
0
0
0
0
0
0
0
0
0
0
0
0
0
0
0
0
0
0
0
0
0
0
0
0
0
0
0
0
0
0
0
0
0
0
0
0
0
0
0
0
0
0
0
0
0
0
0
0
0
0
0
0
0
0
0
0
0
0
0
0
0
0
0
0
0
0
0
0
0
0
0
0
0
0
0
0
0
0
0
0
0
0
0
0
0
0
0
0
0
0
0
0
0
0
0
0
0
0
0
0
0
0
0
0
0
0
0
0
0
0
0
0
0
0
0
0
0
0
0
0
0
0
0
0
0
0
0
0
0
0
0.308636
0.308647
0.0398432
0.931244
0.66244
0.662451
0.393647
0.934587
0.934595
0.755392
0
0
0
0
0.464385
0.464396
0.195592
0.549146
0.280342
0.280353
0.0115496
0
0
0.953716
0.884177
0.615373
0.615384
0.346581
0.418053
0.418051
0.149353
0.959503
0.953682
0.95368
0.684983
0.729729
0.729728
0.774474
0.55111
0.461619
0.506365
0.506364
0
0.960832
0.59726
0
0
0
0
0.960831
0
0.597258
0
0
0
0
0.998428
0.819295
0.86404
0.640677
0.730319
0.775064
0.595931
0.998426
0.819294
0.86404
0.640676
0.730316
0.775062
0.59593
0.32045
0.230892
0.438424
0.438428
0.483205
0.275669
0.275673
0
0.756678
0.487875
0
0
0
0.877913
0.756682
0
0.487889
0
0
0
0.877928
0.410047
0.499685
0.707221
0.528022
0.544465
0.572803
0.365267
0.410051
0.499696
0.707228
0.528029
0.544473
0.572806
0.365274
0.331368
0.331366
0.0626681
0.597848
0.329151
0.329149
0.0604511
0.372567
0.194099
0.194098
0.283076
0.238844
0.327822
0.327821
0.462134
0.462798
0.283666
0.551775
0.328411
0.596521
0.417388
0.462133
0.462797
0.283664
0.551773
0.32841
0.596519
0.417387
0.499648
0.768488
0.796822
0.796825
0.634067
0.63407
0.662404
0.551699
0.552364
0.552363
0.820473
0.417977
0.686087
0.686086
0.202515
0.0846203
0.0846239
0.112957
0.129401
0.157734
0.157738
0.292113
0.353417
0.174218
0.38175
0.218998
0.426531
0.247332
0.292116
0.353424
0.174225
0.381761
0.219002
0.426538
0.247339
0.105197
0.105196
0.149942
0.105861
0.0163695
0.0611155
0.0611148
0
0.779273
0.510575
0
0
0.777056
0.508358
0.779272
0
0.510572
0
0.777055
0
0.508355
0.642006
0.730983
0.775728
0.999756
0.821289
0.866034
0.955011
0.642004
0.73098
0.775726
0.999754
0.821285
0.866031
0.955008
0.373896
0.194764
0.239509
0.195427
0.285069
0.329814
0.150682
0.373895
0.194762
0.239508
0.195427
0.285067
0.329813
0.150681
0.381714
0.443018
0.443021
0.650554
0.3086
0.516132
0.516136
0.463462
0.463461
0.329075
0.284993
0.553767
0.41938
0.41938
0
0
0
0
0
0
0
0.0563267
0.0563303
0.101107
0.117634
0.0280766
0.0728536
0.0728572
0
0.887354
0.643623
0
0
0.728385
0.459581
0.887361
0
0.643638
0
0.728388
0
0.459595
0.325123
0.145924
0.190705
0.207232
0.296869
0.34165
0.162451
0.32513
0.145931
0.190708
0.207235
0.29688
0.341657
0.162458
0.711934
0.532655
0.560989
0.756714
0.605769
0.829829
0.785048
0.532666
0.711952
0.561003
0.756729
0.60578
0.829843
0.785066
0.787762
0.78776
0.693112
0.690445
0.421748
0.421746
0.153048
0.1066
0.107414
0.107413
0.0171085
0.152159
0.0618545
0.0618538
0.414724
0.414728
0.280306
0.296833
0.565673
0.431251
0.431255
0.196166
0.376113
0.196981
0.285808
0.241726
0.330553
0.151421
0.196166
0.376112
0.196979
0.285806
0.241725
0.330552
0.15142
0.553104
0.732386
0.777132
0.464277
0.509022
0.73305
0.688305
0.553101
0.732383
0.777129
0.464274
0.50902
0.733047
0.688301
0.285732
0.465679
0.465678
0.554506
0.331292
0.420119
0.420119
0.980737
0.622256
0.829792
0.846316
0.695371
0.91943
0
0.980745
0.622264
0.829796
0.846326
0.695378
0.919441
0
0.178982
0.240369
0.240373
0.089424
0.28515
0.134201
0.134205
0
0
0
0
0
0
0
0.642669
0
0.866698
0.732974
0.598588
0.822616
0.957002
0.642668
0
0.866695
0.732974
0.598587
0.822614
0.957001
0.268579
0.509165
0.329967
0.358217
0.374747
0.402997
0.223799
0.268583
0.509173
0.329974
0.358228
0.374751
0.403005
0.223806
0.68364
0.504362
0.728421
0.476108
0.520889
0.744948
0.700167
0.504372
0.683658
0.728435
0.476122
0.520899
0.744962
0.700185
0.197794
0.197793
0.242539
0.37774
0.288249
0.332995
0.332994
0
0
0
0
0
0.965266
0.786135
0
0
0
0
0.965265
0
0.786132
0.35818
0.598767
0.59877
0.62702
0.464348
0.492599
0.492602
0.555321
0.465016
0.509761
0.733789
0.734604
0.779349
0.689044
0.555319
0.465013
0.509759
0.733786
0.7346
0.779346
0.68904
0.466493
0.287361
0.332106
0.467307
0.556948
0.601694
0.422561
0.466492
0.287359
0.332105
0.467306
0.556946
0.601692
0.42256
0.556059
0.556058
0.421672
0.556872
0.825646
0.69126
0.691259
0
0
0
0
0
0
0
0.952444
0.593963
0.818022
0.744911
0.61049
0.834549
0.968971
0.952451
0.59397
0.818033
0.744915
0.610497
0.83456
0.968978
0.391358
0.391361
0.436138
0.631947
0.54239
0.587167
0.58717
0.644886
0.733713
0.599327
0.823355
0
0.868915
0.957741
0.644885
0.733713
0.599326
0.823353
0
0.868913
0.95774
0
0
0
0
0
0
0
0
0
0
0
0
0
0
0.660154
0.480955
0.525736
0.721545
0.811182
0.855963
0.676764
0.660161
0.480962
0.525739
0.721549
0.811193
0.85597
0.676772
0.688404
0.537455
0.582236
0.867683
0.912463
0.806295
0.761515
0.688415
0.53747
0.582247
0.867701
0.912478
0.80631
0.761533
0
0
0
0
0
0
0
0.557761
0.737858
0.737857
0.46827
0.782603
0.513016
0.513015
0.749755
0.749759
0.615337
0.811146
0
0.945564
0.945568
)
;

boundaryField
{
    inlet
    {
        type            calculated;
        value           uniform 0;
    }
    wall
    {
        type            calculated;
        value           uniform 0;
    }
    outlet
    {
        type            calculated;
        value           uniform 0;
    }
    procBoundary0to1
    {
        type            processor;
        value           uniform 0;
    }
    procBoundary0to2
    {
        type            processor;
        value           uniform 0;
    }
}


// ************************************************************************* //
