/*--------------------------------*- C++ -*----------------------------------*\
| =========                 |                                                 |
| \\      /  F ield         | OpenFOAM: The Open Source CFD Toolbox           |
|  \\    /   O peration     | Version:  5.x                                   |
|   \\  /    A nd           | Web:      www.OpenFOAM.org                      |
|    \\/     M anipulation  |                                                 |
\*---------------------------------------------------------------------------*/
FoamFile
{
    version     2.0;
    format      ascii;
    class       surfaceScalarField;
    location    "0.087";
    object      phi;
}
// * * * * * * * * * * * * * * * * * * * * * * * * * * * * * * * * * * * * * //

dimensions      [0 3 -1 0 0 0 0];

internalField   nonuniform List<scalar> 
4381
(
-5.05725e-07
-5.06057e-07
1.36683e-07
-4.32016e-07
-5.69623e-07
4.71648e-08
-3.85199e-07
-5.96681e-07
7.8985e-08
-2.64162e-07
-6.34247e-07
1.54528e-08
-6.51002e-07
3.19818e-08
-5.69223e-07
-4.31997e-07
4.7109e-08
-5.02549e-07
-5.02548e-07
-1.33732e-07
-4.33196e-07
-5.30091e-07
-1.35925e-07
-3.01084e-07
-5.67101e-07
-1.99235e-07
-5.84417e-07
-1.8564e-07
-5.96289e-07
-3.84756e-07
7.88664e-08
-5.30091e-07
-4.32771e-07
-1.35958e-07
-4.52373e-07
-4.51948e-07
-1.55841e-07
-3.15291e-07
-4.83794e-07
-2.20363e-07
-4.99254e-07
-2.07109e-07
-6.33848e-07
-2.63446e-07
1.54854e-08
-5.67094e-07
-3.00376e-07
-1.99124e-07
-4.84214e-07
-3.14582e-07
-2.20221e-07
-3.42723e-07
-3.42015e-07
-2.83234e-07
-3.55668e-07
-2.69133e-07
-6.5061e-07
3.21965e-08
-5.84418e-07
-1.85346e-07
-4.99678e-07
-2.06773e-07
-3.5638e-07
-2.68934e-07
-2.5301e-07
-1.914e-07
-1.89998e-07
2.4216e-07
-2.27587e-07
-1.03889e-07
1.13057e-07
-2.27636e-07
-7.70276e-08
1.01147e-07
-2.06719e-07
-5.43348e-08
1.19001e-08
-4.68536e-08
3.94536e-09
-1.05247e-07
-2.25888e-07
1.13218e-07
-1.57024e-07
-1.55385e-07
-3.04319e-08
-1.90973e-07
-1.32786e-07
-4.61884e-08
-1.86594e-07
-1.14942e-07
-1.42969e-07
-1.10407e-07
-1.54178e-07
-7.83914e-08
-2.2581e-07
1.01403e-07
-1.34427e-07
-1.89205e-07
-4.60715e-08
-1.81014e-07
-1.79248e-07
-6.27601e-08
-1.83341e-07
-1.71361e-07
-1.61574e-07
-1.72064e-07
-1.73399e-07
-5.56873e-08
-2.04809e-07
1.233e-08
-1.16586e-07
-1.84726e-07
-1.42668e-07
-1.7313e-07
-1.81483e-07
-1.61398e-07
-1.81731e-07
-1.79869e-07
-2.66056e-07
-1.83956e-07
-2.804e-07
-4.82e-08
4.54783e-09
-1.12044e-07
-1.53685e-07
-1.73824e-07
-1.73036e-07
-1.85807e-07
-2.80203e-07
-2.95377e-07
-4.58801e-07
-4.58752e-07
3.95432e-07
-4.27493e-07
-4.9486e-07
1.6805e-07
-3.86156e-07
-5.07177e-07
1.49506e-07
-2.72144e-07
-5.34031e-07
-5.01137e-09
-5.46165e-07
-1.55597e-08
-4.94912e-07
-4.27069e-07
1.68175e-07
-4.63964e-07
-4.63537e-07
-9.26647e-08
-4.19127e-07
-4.76385e-07
-1.21784e-07
-3.01289e-07
-5.05014e-07
-2.89789e-07
-5.18473e-07
-3.06157e-07
-5.07227e-07
-3.85421e-07
1.49794e-07
-4.76808e-07
-4.18388e-07
-1.21604e-07
-4.31036e-07
-4.30301e-07
-1.54585e-07
-3.12041e-07
-4.5881e-07
-3.26742e-07
-4.72765e-07
-3.44608e-07
-5.34082e-07
-2.71174e-07
-4.47025e-09
-5.05441e-07
-3.00313e-07
-2.8935e-07
-4.59549e-07
-3.1107e-07
-3.26491e-07
-3.3883e-07
-3.37853e-07
-5.07697e-07
-3.51453e-07
-5.29326e-07
-5.46214e-07
-1.47072e-08
-5.18898e-07
-3.05389e-07
-4.73497e-07
-3.4404e-07
-3.52425e-07
-5.2899e-07
-5.51803e-07
-4.24519e-07
-4.23299e-07
5.44019e-07
-4.11458e-07
-4.10577e-07
2.26009e-07
-3.76414e-07
-4.07802e-07
1.84461e-07
-2.82336e-07
-4.08639e-07
-2.85126e-08
-4.11046e-07
-5.55487e-08
-4.11797e-07
-4.09841e-07
2.26317e-07
-4.03697e-07
-4.02081e-07
-1.09202e-07
-3.7639e-07
-4.00943e-07
-1.55899e-07
-2.86801e-07
-4.05331e-07
-3.8264e-07
-4.09703e-07
-4.15225e-07
-4.09021e-07
-3.74463e-07
1.84994e-07
-4.02554e-07
-3.74439e-07
-1.55661e-07
-3.78106e-07
-3.76165e-07
-2.03767e-07
-2.90318e-07
-3.8493e-07
-4.34896e-07
-3.91684e-07
-4.69129e-07
-4.09865e-07
-2.80189e-07
-2.75837e-08
-4.06952e-07
-2.84649e-07
-3.82005e-07
-3.8688e-07
-2.88183e-07
-4.3451e-07
-3.01828e-07
-2.99678e-07
-6.77974e-07
-3.07939e-07
-7.17513e-07
-4.12264e-07
-5.42608e-08
-4.11321e-07
-4.14207e-07
-3.93617e-07
-4.68383e-07
-3.10078e-07
-7.17118e-07
-7.58783e-07
-6.46052e-07
-6.45484e-07
7.48914e-07
-5.99057e-07
-6.79522e-07
2.89614e-07
-5.30191e-07
-6.90231e-07
2.28519e-07
-3.57553e-07
-7.2092e-07
-8.02094e-08
-7.34356e-07
-1.1789e-07
-6.80096e-07
-5.98041e-07
2.89969e-07
-6.35606e-07
-6.34576e-07
-1.98554e-07
-5.66776e-07
-6.46445e-07
-2.6844e-07
-3.91222e-07
-6.80203e-07
-5.98844e-07
-6.95576e-07
-6.44815e-07
-6.90792e-07
-5.28783e-07
2.29153e-07
-6.47463e-07
-5.6535e-07
-2.68142e-07
-5.79171e-07
-5.7776e-07
-3.40681e-07
-4.03331e-07
-6.1311e-07
-6.77778e-07
-6.29823e-07
-7.26254e-07
-7.21484e-07
-3.55868e-07
-7.9061e-08
-6.81235e-07
-3.89505e-07
-5.98032e-07
-6.14538e-07
-4.01638e-07
-6.77278e-07
-4.37359e-07
-4.35638e-07
-1.03259e-06
-4.52484e-07
-1.0887e-06
-7.34893e-07
-1.16286e-07
-6.96613e-07
-6.43524e-07
-6.3121e-07
-7.25246e-07
-4.54183e-07
-1.08816e-06
-1.1473e-06
-8.18594e-07
-8.17158e-07
1.01022e-06
-7.56355e-07
-8.40501e-07
3.63217e-07
-6.61662e-07
-8.48518e-07
2.70858e-07
-4.40738e-07
-8.72918e-07
-1.57811e-07
-8.84475e-07
-2.15422e-07
-8.41945e-07
-7.54363e-07
3.63746e-07
-7.83508e-07
-7.81499e-07
-3.1589e-07
-6.90761e-07
-7.9088e-07
-4.18731e-07
-4.68956e-07
-8.19291e-07
-8.74186e-07
-8.33071e-07
-9.42222e-07
-8.49946e-07
-6.59151e-07
2.71702e-07
-7.92871e-07
-6.8823e-07
-4.18391e-07
-7.01248e-07
-6.98736e-07
-5.24365e-07
-4.79535e-07
-7.30019e-07
-9.8869e-07
-7.45903e-07
-1.06003e-06
-8.74355e-07
-4.37902e-07
-1.56252e-07
-8.213e-07
-4.66093e-07
-8.73134e-07
-7.32551e-07
-4.76684e-07
-9.88003e-07
-5.11058e-07
-5.08115e-07
-1.47593e-06
-5.24638e-07
-1.55709e-06
-8.85887e-07
-2.13355e-07
-8.35054e-07
-9.40623e-07
-7.48357e-07
-1.0588e-06
-5.27557e-07
-1.55655e-06
-1.64203e-06
-1.11864e-06
-1.11744e-06
1.35608e-06
-1.02259e-06
-1.1751e-06
4.53109e-07
-8.80801e-07
-1.19211e-06
3.18109e-07
-5.56494e-07
-1.24371e-06
-2.80226e-07
-1.26441e-06
-3.61658e-07
-1.17631e-06
-1.0208e-06
4.53754e-07
-1.0842e-06
-1.08237e-06
-5.00634e-07
-9.41668e-07
-1.10111e-06
-6.52165e-07
-6.10315e-07
-1.15728e-06
-1.29187e-06
-1.18087e-06
-1.38862e-06
-1.19329e-06
-8.7844e-07
3.19094e-07
-1.1029e-06
-9.39269e-07
-6.51784e-07
-9.60999e-07
-9.58632e-07
-8.08655e-07
-6.28449e-07
-1.01675e-06
-1.46168e-06
-1.04248e-06
-1.56344e-06
-1.2449e-06
-5.5375e-07
-2.78321e-07
-1.1591e-06
-6.07527e-07
-1.29058e-06
-1.01916e-06
-6.2569e-07
-1.4608e-06
-6.82695e-07
-6.79888e-07
-2.14916e-06
-7.05564e-07
-2.26473e-06
-1.26556e-06
-3.59195e-07
-1.18265e-06
-1.38671e-06
-1.04483e-06
-1.56195e-06
-7.0833e-07
-2.26407e-06
-2.38538e-06
-1.55487e-06
-1.55286e-06
1.84018e-06
-1.41304e-06
-1.61807e-06
5.68211e-07
-1.20347e-06
-1.6395e-06
3.69023e-07
-7.42235e-07
-1.69765e-06
-4.66293e-07
-1.72229e-06
-5.8504e-07
-1.62011e-06
-1.41025e-06
5.69049e-07
-1.4841e-06
-1.48127e-06
-7.73374e-07
-1.27298e-06
-1.50454e-06
-9.98174e-07
-8.04078e-07
-1.56898e-06
-1.88936e-06
-1.59683e-06
-2.03028e-06
-1.64149e-06
-1.19989e-06
3.70191e-07
-1.50734e-06
-1.26935e-06
-9.97786e-07
-1.29642e-06
-1.29284e-06
-1.23121e-06
-8.25272e-07
-1.35917e-06
-2.14255e-06
-1.38919e-06
-2.29103e-06
-1.69967e-06
-7.38131e-07
-4.63925e-07
-1.57182e-06
-7.99916e-07
-1.88779e-06
-1.36281e-06
-8.21155e-07
-2.14141e-06
-8.87671e-07
-8.83497e-07
-3.09987e-06
-9.12942e-07
-3.26794e-06
-1.72425e-06
-5.82118e-07
-1.59961e-06
-2.02806e-06
-1.39276e-06
-2.28925e-06
-9.17059e-07
-3.26722e-06
-3.44349e-06
-2.09326e-06
-2.09128e-06
2.49081e-06
-1.89828e-06
-2.21229e-06
7.25589e-07
-1.59962e-06
-2.24809e-06
4.29325e-07
-9.54035e-07
-2.35121e-06
-7.27733e-07
-2.38956e-06
-9.01545e-07
-2.21431e-06
-1.8955e-06
7.26598e-07
-2.02585e-06
-2.023e-06
-1.15111e-06
-1.72103e-06
-2.0617e-06
-1.48937e-06
-1.05456e-06
-2.17219e-06
-2.73483e-06
-2.21523e-06
-2.94291e-06
-2.25003e-06
-1.596e-06
4.30617e-07
-2.06448e-06
-1.71732e-06
-1.489e-06
-1.75885e-06
-1.75522e-06
-1.8433e-06
-1.08743e-06
-1.86598e-06
-3.12014e-06
-1.91121e-06
-3.3412e-06
-2.3532e-06
-9.49856e-07
-7.24922e-07
-2.17504e-06
-1.05028e-06
-2.73297e-06
-1.8697e-06
-1.08322e-06
-3.11871e-06
-1.18526e-06
-1.18096e-06
-4.46926e-06
-1.22423e-06
-4.71888e-06
-2.39144e-06
-8.98242e-07
-2.21798e-06
-2.94042e-06
-1.91483e-06
-3.33915e-06
-1.22844e-06
-4.71814e-06
-4.97972e-06
-2.98427e-06
-2.9813e-06
3.42686e-06
-2.70008e-06
-3.12861e-06
9.44815e-07
-2.25826e-06
-3.18156e-06
5.0075e-07
-1.32267e-06
-3.3047e-06
-1.11822e-06
-3.35642e-06
-1.37628e-06
-3.13163e-06
-2.69602e-06
9.46028e-07
-2.85922e-06
-2.85507e-06
-1.69709e-06
-2.40695e-06
-2.9111e-06
-2.21214e-06
-1.44698e-06
-3.04586e-06
-3.95369e-06
-3.10266e-06
-4.26658e-06
-3.18449e-06
-2.253e-06
5.02113e-07
-2.91516e-06
-2.40157e-06
-2.21187e-06
-2.46001e-06
-2.45473e-06
-2.75485e-06
-1.49011e-06
-2.58739e-06
-4.54853e-06
-2.64601e-06
-4.88275e-06
-3.30769e-06
-1.31654e-06
-1.11495e-06
-3.05002e-06
-1.44072e-06
-3.95155e-06
-2.59279e-06
-1.48394e-06
-4.54675e-06
-1.60895e-06
-1.60264e-06
-6.43784e-06
-1.65652e-06
-6.81713e-06
-3.35925e-06
-1.37271e-06
-3.10668e-06
-4.26392e-06
-2.65126e-06
-4.8805e-06
-1.6627e-06
-6.81649e-06
-7.2164e-06
-4.04247e-06
-4.03957e-06
4.73204e-06
-3.6714e-06
-4.31282e-06
1.28953e-06
-3.04728e-06
-4.40193e-06
6.11044e-07
-1.74553e-06
-4.62506e-06
-1.6308e-06
-4.70719e-06
-2.02592e-06
-4.31582e-06
-3.6675e-06
1.29093e-06
-3.96003e-06
-3.95598e-06
-2.4098e-06
-3.31252e-06
-4.0515e-06
-3.21014e-06
-1.95055e-06
-4.28929e-06
-5.65149e-06
-4.38031e-06
-6.1372e-06
-4.40475e-06
-3.0422e-06
6.1239e-07
-4.05539e-06
-3.30725e-06
-3.21002e-06
-3.39978e-06
-3.39466e-06
-4.06735e-06
-2.01967e-06
-3.62562e-06
-6.59234e-06
-3.71499e-06
-7.1213e-06
-4.62802e-06
-1.73964e-06
-1.62709e-06
-4.29334e-06
-1.94445e-06
-5.64909e-06
-3.63093e-06
-2.01371e-06
-6.59016e-06
-2.21009e-06
-2.20393e-06
-9.28041e-06
-2.28322e-06
-9.87749e-06
-4.70988e-06
-2.02222e-06
-4.38412e-06
-6.13448e-06
-3.72008e-06
-7.11888e-06
-2.28919e-06
-9.87703e-06
-1.05069e-05
-5.7957e-06
-5.79141e-06
6.62694e-06
-5.27398e-06
-6.13305e-06
1.80592e-06
-4.36029e-06
-6.27941e-06
7.67333e-07
-2.47465e-06
-6.54756e-06
-2.37132e-06
-6.67106e-06
-2.97426e-06
-6.13745e-06
-5.26821e-06
1.80747e-06
-5.64569e-06
-5.63971e-06
-3.39497e-06
-4.69236e-06
-5.7932e-06
-4.64973e-06
-2.73621e-06
-6.08687e-06
-8.06837e-06
-6.21986e-06
-8.83059e-06
-6.28358e-06
-4.35267e-06
7.68404e-07
-5.79897e-06
-4.68446e-06
-4.64994e-06
-4.83082e-06
-4.82315e-06
-6.00559e-06
-2.83659e-06
-5.09769e-06
-9.57579e-06
-5.23156e-06
-1.04082e-05
-6.55189e-06
-2.46556e-06
-2.36736e-06
-6.09284e-06
-2.72681e-06
-8.06582e-06
-5.10564e-06
-2.82738e-06
-9.57316e-06
-3.07296e-06
-3.06349e-06
-1.33473e-05
-3.17442e-06
-1.43108e-05
-6.67503e-06
-2.97099e-06
-6.22554e-06
-8.82819e-06
-5.2392e-06
-1.04059e-05
-3.18365e-06
-1.43108e-05
-1.53415e-05
-7.95682e-06
-7.9531e-06
9.41407e-06
-7.32346e-06
-8.59254e-06
2.72827e-06
-6.02934e-06
-8.85112e-06
1.09665e-06
-3.38438e-06
-9.36238e-06
-3.26041e-06
-9.57165e-06
-4.22748e-06
-8.59645e-06
-7.31868e-06
2.72991e-06
-8.01905e-06
-8.01398e-06
-4.55097e-06
-6.65421e-06
-8.29592e-06
-6.5698e-06
-3.83879e-06
-8.85159e-06
-1.13946e-05
-9.08501e-06
-1.26392e-05
-8.85468e-06
-6.02303e-06
1.09731e-06
-8.30066e-06
-6.64754e-06
-6.57043e-06
-6.89693e-06
-6.89054e-06
-8.81471e-06
-4.01704e-06
-7.41625e-06
-1.3891e-05
-7.61727e-06
-1.53142e-05
-9.36624e-06
-3.37693e-06
-3.25632e-06
-8.85664e-06
-3.83097e-06
-1.1392e-05
-7.42302e-06
-4.00946e-06
-1.38879e-05
-4.41358e-06
-4.40565e-06
-1.93674e-05
-4.56849e-06
-2.09658e-05
-9.57499e-06
-4.22478e-06
-9.08959e-06
-1.26374e-05
-7.62362e-06
-1.5312e-05
-4.5761e-06
-2.09664e-05
-2.26817e-05
-1.13887e-05
-1.13829e-05
1.35167e-05
-1.05735e-05
-1.22409e-05
4.23166e-06
-8.70995e-06
-1.27088e-05
1.68473e-06
-4.88076e-06
-1.33513e-05
-4.41849e-06
-1.37135e-05
-5.92898e-06
-1.22469e-05
-1.05659e-05
4.23318e-06
-1.15326e-05
-1.15244e-05
-5.98188e-06
-9.53914e-06
-1.20362e-05
-9.23587e-06
-5.5067e-06
-1.27597e-05
-1.60187e-05
-1.31595e-05
-1.80666e-05
-1.27142e-05
-8.69948e-06
1.68423e-06
-1.20438e-05
-9.52798e-06
-9.23729e-06
-9.99976e-06
-9.98917e-06
-1.29058e-05
-5.80982e-06
-1.06476e-05
-2.0193e-05
-1.10719e-05
-2.25116e-05
-1.33572e-05
-4.86786e-06
-4.41491e-06
-1.27678e-05
-5.49299e-06
-1.60164e-05
-1.06588e-05
-5.7966e-06
-2.01894e-05
-6.36895e-06
-6.35514e-06
-2.79497e-05
-6.65623e-06
-3.07893e-05
-1.37184e-05
-5.92857e-06
-1.3167e-05
-1.80662e-05
-1.10825e-05
-2.25107e-05
-6.66961e-06
-3.07913e-05
-3.38844e-05
-1.59782e-05
-1.59746e-05
2.00129e-05
-1.51618e-05
-1.7528e-05
7.15226e-06
-1.24965e-05
-1.84364e-05
3.10016e-06
-7.02289e-06
-1.97236e-05
-5.39349e-06
-2.04113e-05
-7.88193e-06
-1.75319e-05
-1.51574e-05
7.15337e-06
-1.70058e-05
-1.7001e-05
-7.03499e-06
-1.4166e-05
-1.80976e-05
-1.24146e-05
-8.19056e-06
-1.96815e-05
-2.20361e-05
-2.05635e-05
-2.5483e-05
-1.84397e-05
-1.24905e-05
3.0983e-06
-1.81018e-05
-1.41594e-05
-1.24169e-05
-1.51711e-05
-1.51652e-05
-1.87688e-05
-8.96307e-06
-1.68103e-05
-2.92723e-05
-1.77052e-05
-3.36178e-05
-1.97275e-05
-7.01531e-06
-5.39096e-06
-1.96862e-05
-8.18247e-06
-2.20345e-05
-1.68167e-05
-8.95584e-06
-2.92683e-05
-1.02302e-05
-1.02229e-05
-4.11237e-05
-1.09335e-05
-4.6705e-05
-2.04143e-05
-7.88356e-06
-2.05672e-05
-2.54844e-05
-1.77101e-05
-3.36189e-05
-1.09387e-05
-4.67102e-05
-5.3266e-05
-2.26615e-05
-2.26551e-05
2.9686e-05
-2.201e-05
-2.515e-05
1.23603e-05
-1.83318e-05
-2.69939e-05
6.08995e-06
-1.03517e-05
-2.89162e-05
-5.75802e-06
-3.03098e-05
-9.66199e-06
-2.51571e-05
-2.20017e-05
1.23607e-05
-2.50439e-05
-2.50346e-05
-7.26358e-06
-2.10875e-05
-2.75924e-05
-1.57725e-05
-1.25186e-05
-3.01993e-05
-2.93219e-05
-3.25336e-05
-3.50316e-05
-2.69993e-05
-1.83197e-05
6.08496e-06
-2.75993e-05
-2.10751e-05
-1.57764e-05
-2.41172e-05
-2.41069e-05
-2.57364e-05
-1.47548e-05
-2.76505e-05
-4.11835e-05
-3.13551e-05
-4.86302e-05
-2.89226e-05
-1.03364e-05
-5.7574e-06
-3.02067e-05
-1.2504e-05
-2.93217e-05
-2.76649e-05
-1.47381e-05
-4.11788e-05
-1.83823e-05
-1.83604e-05
-5.96964e-05
-2.03125e-05
-7.46082e-05
-3.03138e-05
-9.67148e-06
-3.25432e-05
-3.5039e-05
-3.13717e-05
-4.86346e-05
-2.03354e-05
-7.46179e-05
-9.03324e-05
-3.20253e-05
-3.20246e-05
4.4498e-05
-3.21488e-05
-3.63039e-05
2.20107e-05
-2.7328e-05
-4.01662e-05
1.28615e-05
-1.60994e-05
-4.40725e-05
-3.45312e-06
-4.75284e-05
-9.84149e-06
-3.63049e-05
-3.21487e-05
2.20094e-05
-3.81817e-05
-3.81812e-05
-3.50948e-06
-3.4076e-05
-4.3205e-05
-1.68394e-05
-2.05918e-05
-5.14675e-05
-3.54111e-05
-5.72336e-05
-4.51853e-05
-4.01653e-05
-2.73284e-05
1.28536e-05
-4.32032e-05
-3.40749e-05
-1.68448e-05
-3.93232e-05
-3.93214e-05
-3.35001e-05
-2.50366e-05
-4.64198e-05
-6.05177e-05
-4.87958e-05
-8.11703e-05
-4.40732e-05
-1.60976e-05
-3.45708e-06
-5.14676e-05
-2.05887e-05
-3.54135e-05
-4.64234e-05
-2.50328e-05
-6.05116e-05
-2.77202e-05
-2.77157e-05
-9.71037e-05
-2.97306e-05
-0.000119784
-4.75301e-05
-9.8569e-06
-5.72362e-05
-4.51965e-05
-4.87985e-05
-8.11804e-05
-2.97351e-05
-0.000119795
-0.000146197
-4.13284e-05
-4.13226e-05
6.03324e-05
-4.32803e-05
-4.97787e-05
3.65404e-05
-3.78052e-05
-5.63917e-05
2.3451e-05
-2.32304e-05
-6.27637e-05
1.99081e-06
-7.03737e-05
-7.84514e-06
-4.97861e-05
-4.32723e-05
3.65368e-05
-5.32014e-05
-5.31917e-05
3.31876e-06
-4.8437e-05
-6.19162e-05
-1.60792e-05
-3.0414e-05
-7.14066e-05
-4.47912e-05
-7.46566e-05
-7.0461e-05
-5.63932e-05
-3.7795e-05
2.34381e-05
-6.19198e-05
-4.84221e-05
-1.60878e-05
-5.50751e-05
-5.50605e-05
-4.72003e-05
-3.30435e-05
-5.86338e-05
-9.53221e-05
-6.25563e-05
-0.000125323
-6.27696e-05
-2.32142e-05
1.98034e-06
-7.14159e-05
-3.03874e-05
-4.48018e-05
-5.86508e-05
-3.30204e-05
-9.53167e-05
-3.65277e-05
-3.65025e-05
-0.000141358
-3.96017e-05
-0.00017767
-7.0377e-05
-7.87577e-06
-7.46581e-05
-7.04888e-05
-6.25642e-05
-0.000125345
-3.96215e-05
-0.000177688
-0.00022186
-5.90976e-05
-5.91046e-05
8.55789e-05
-5.93815e-05
-6.59162e-05
5.27556e-05
-4.98819e-05
-7.77054e-05
3.58845e-05
-3.03061e-05
-8.74009e-05
1.0282e-05
-9.59973e-05
-6.19944e-06
-6.59092e-05
-5.93907e-05
5.27483e-05
-7.2791e-05
-7.28005e-05
1.70849e-05
-6.50397e-05
-8.74176e-05
-1.41182e-05
-3.90459e-05
-9.47609e-05
-6.3425e-05
-0.000105149
-9.96773e-05
-7.76987e-05
-4.98953e-05
3.58701e-05
-8.74086e-05
-6.50505e-05
-1.41279e-05
-7.27794e-05
-7.27901e-05
-7.6457e-05
-4.64923e-05
-8.10258e-05
-0.000135344
-9.15199e-05
-0.000184591
-8.73923e-05
-3.03153e-05
1.02597e-05
-9.47495e-05
-3.90538e-05
-6.34411e-05
-8.10143e-05
-4.64999e-05
-0.000135342
-5.37008e-05
-5.37103e-05
-0.000195987
-6.21209e-05
-0.00025894
-9.59894e-05
-6.24091e-06
-0.000105138
-9.97106e-05
-9.15114e-05
-0.000184616
-6.21146e-05
-0.000258962
-0.000341963
-8.16742e-05
-8.16719e-05
0.000122482
-8.24862e-05
-9.24971e-05
7.69513e-05
-6.84815e-05
-0.000107403
5.13832e-05
-4.15794e-05
-0.000119955
1.96781e-05
-0.000134172
-5.20411e-06
-9.2503e-05
-8.24787e-05
7.69375e-05
-9.90433e-05
-9.90319e-05
3.016e-05
-8.63955e-05
-0.00012029
-1.38795e-05
-5.53369e-05
-0.000135517
-7.89212e-05
-0.000153956
-0.000134329
-0.000107402
-6.84681e-05
5.13605e-05
-0.000120297
-8.63739e-05
-1.38904e-05
-0.000104618
-0.000104605
-0.000107822
-6.86883e-05
-0.000119425
-0.000187366
-0.000138708
-0.000267468
-0.00011996
-4.15532e-05
1.9641e-05
-0.000135528
-5.53018e-05
-7.89455e-05
-0.000119449
-6.86559e-05
-0.00018737
-8.18594e-05
-8.18195e-05
-0.000271182
-9.56959e-05
-0.000381835
-0.000134163
-5.27498e-06
-0.000153963
-0.00013437
-0.000138719
-0.000267512
-9.57382e-05
-0.000381853
-0.00052902
-0.000116253
-0.000116281
0.000184049
-0.000124395
-0.000132099
0.000124833
-0.000107097
-0.000158688
8.44852e-05
-6.46349e-05
-0.000172531
3.55318e-05
-0.000201863
1.85019e-06
-0.000132069
-0.000124431
0.000124813
-0.000147319
-0.000147355
6.06655e-05
-0.000128287
-0.000184529
-7.07074e-06
-8.62016e-05
-0.000211877
-8.16606e-05
-0.000255293
-0.000166327
-0.000158661
-0.000107138
8.44536e-05
-0.000184497
-0.000128325
-7.08436e-06
-0.000169852
-0.000169887
-0.000137109
-0.000119365
-0.000200605
-0.000249123
-0.000252048
-0.000389143
-0.000172496
-6.46772e-05
3.54793e-05
-0.000211837
-8.62377e-05
-8.16907e-05
-0.000200564
-0.000119397
-0.000249133
-0.000146887
-0.000146924
-0.00037854
-0.000190253
-0.000587966
-0.000201829
1.76012e-06
-0.000255262
-0.000166369
-0.000252019
-0.000389194
-0.000190226
-0.000587991
-0.00090388
-0.000153191
-0.000153205
0.000265448
-0.000167447
-0.000179253
0.000195499
-0.000147728
-0.000226196
0.000141003
-9.5465e-05
-0.000252841
7.65216e-05
-0.000305125
2.25953e-05
-0.000179247
-0.000167451
0.000195464
-0.000208181
-0.000208176
0.000118523
-0.000187294
-0.000274047
1.98938e-05
-0.000132638
-0.000323021
-6.61364e-05
-0.000404775
-0.000198404
-0.000226174
-0.000147727
0.00014096
-0.000274047
-0.000187277
1.98886e-05
-0.000261233
-0.000261236
-0.000162734
-0.000190112
-0.000320165
-0.0003231
-0.000424978
-0.000557973
-0.000252836
-9.54381e-05
7.64388e-05
-0.000323022
-0.000132592
-6.61894e-05
-0.000320192
-0.000190069
-0.000323131
-0.000250612
-0.000250552
-0.000517733
-0.00034729
-0.00091391
-0.000305091
2.24805e-05
-0.000404771
-0.000198448
-0.000424969
-0.000558047
-0.000347364
-0.000913901
-0.00159357
-0.000204484
-0.000204556
0.000387619
-0.000238596
-0.000245155
0.000319
-0.000220915
-0.000333212
0.000254234
-0.000152114
-0.000383504
0.000173789
-0.000492194
9.17644e-05
-0.000245081
-0.000238681
0.000318957
-0.000306799
-0.000306883
0.000241969
-0.000290432
-0.000432273
0.000102588
-0.000211415
-0.000526055
-2.60264e-06
-0.000722243
-0.000178984
-0.000333143
-0.000221016
0.000254186
-0.000432194
-0.000290533
0.00010259
-0.000445444
-0.00044554
-0.000136217
-0.000356496
-0.000582117
-0.000355986
-0.000874916
-0.000760758
-0.000383416
-0.000152212
0.000173676
-0.00052596
-0.00021151
-2.6689e-06
-0.000582012
-0.00035659
-0.000356029
-0.00050122
-0.000501308
-0.000679334
-0.00082747
-0.00145896
-0.000492123
9.16273e-05
-0.00072218
-0.000179023
-0.000874833
-0.000760872
-0.000827406
-0.00145894
-0.00324006
-0.000258238
-0.000258283
0.000542444
-0.000301818
-0.000313801
0.000481531
-0.000284928
-0.000455176
0.000424677
-0.00020459
-0.000534567
0.000344405
-0.000748845
0.000251719
-0.000313768
-0.000301842
0.00048146
-0.000402037
-0.000402055
0.000418491
-0.000400107
-0.000628875
0.000274356
-0.000331778
-0.000788358
0.00018286
-0.00117557
-8.32949e-05
-0.000455118
-0.000284961
0.000424627
-0.000628858
-0.000400096
0.000274371
-0.000682436
-0.000682484
-2.903e-05
-0.000586818
-0.000938827
-0.000301135
-0.00156204
-0.000960179
-0.000534531
-0.000204601
0.00034425
-0.000788337
-0.000331717
0.000182759
-0.000938872
-0.000586753
-0.000301225
-0.000924855
-0.000924726
-0.000707453
-0.00165272
-0.00229093
-0.000748747
0.000251573
-0.00117554
-8.33089e-05
-0.00156195
-0.000960309
-0.00165291
-0.0022907
-0.00168859
-0.00160583
-0.00160578
-0.00164316
-0.000307043
-0.000307204
0.000740303
-0.000374582
-0.000380743
0.000708979
-0.000371428
-0.000596995
0.000687979
-0.000277581
-0.000737684
0.000631505
-0.0011171
0.000567399
-0.000380579
-0.000374762
0.000708894
-0.000521239
-0.000521414
0.000699823
-0.000558048
-0.000883864
0.000598033
-0.000480841
-0.0012092
0.000577172
-0.00200063
0.00032009
-0.000596837
-0.00037163
0.000687922
-0.000883699
-0.000558252
0.000598071
-0.00108805
-0.00108829
0.000379743
-0.00098357
-0.00168196
6.71456e-05
-0.00339391
-0.000549109
-0.000737492
-0.000277762
0.000631297
-0.00120904
-0.00048101
0.000577065
-0.00168173
-0.000983776
6.6951e-05
-0.00183595
-0.00183592
-0.000399276
-0.000957708
-0.000653284
-0.000654045
-0.000998345
-0.00126263
-0.000874598
-0.00105491
-0.00105917
-0.00111696
0.000567265
-0.00200053
0.000320169
-0.00339365
-0.000549424
-0.000957683
-0.000653299
-0.000998251
-0.000653773
-0.00126248
-0.000874538
-0.00105487
-0.00105906
-0.000681469
-0.000681457
-0.00224106
-0.000340952
-0.000341039
0.000948879
-0.000416682
-0.000430154
0.000969776
-0.000428144
-0.000735574
0.00104322
-0.000345068
-0.000927451
0.00106637
-0.00160405
0.00115058
-0.000430076
-0.00041673
0.000969652
-0.00059157
-0.00059163
0.00102279
-0.000678
-0.0011307
0.00107959
-0.000656026
-0.00152517
0.00115292
-0.0031121
0.00117267
-0.000735474
-0.000428196
0.00104317
-0.00113067
-0.000677995
0.00107963
-0.00155063
-0.0015507
0.00121971
-0.00161826
-0.00269034
0.00129994
-0.00151456
0.00146476
-0.00159313
-0.00166346
-0.00197178
-0.000927376
-0.000345061
0.00106608
-0.00152507
-0.000655973
0.00115274
-0.0026904
-0.00161819
0.00129977
-0.000822311
-0.000822284
0.000329448
0.00050403
0.000504014
0.00052315
-0.000954768
-0.00071583
-0.0013277
-0.000954724
-0.000715729
-0.00132731
-0.000623
-0.00196497
-0.000402181
-0.00160392
0.00115052
-0.00311193
0.00117265
-0.00151449
0.00146464
-0.00159303
-0.00166341
-0.00197174
-0.00196496
-0.000623003
-0.000402111
-0.00200328
-0.00200327
0.00224347
0.00224353
-0.000958138
-0.000605095
-0.000705562
-0.000704858
0.00249321
-0.000305249
-0.000305521
0.00111933
-0.000377909
-0.000375745
0.00121512
-0.000397664
-0.000675408
0.00136917
-0.000306678
-0.000871145
0.00150039
-0.0015065
0.00170769
-0.000375479
-0.000378232
0.00121502
-0.00053777
-0.000538059
0.0013474
-0.000625659
-0.00108311
0.00157518
-0.000628013
-0.00146508
0.00174921
-0.00296319
0.00200139
-0.000675132
-0.000398053
0.00136917
-0.0010828
-0.000625955
0.0015752
-0.00151198
-0.00151256
0.00207834
-0.00149217
-0.000727425
0.00262914
-0.000951197
-0.000505574
-0.000629901
-0.00175229
0.00360455
-0.00220436
-0.00118122
-0.00145561
-0.000870811
-0.000307142
0.00150015
-0.00146475
-0.000628304
0.00174902
-0.000727313
-0.0014929
0.00262883
-0.000951093
-0.000505366
-0.000629693
-0.000887917
-0.000887187
0.000649814
-0.000794127
0.000962528
0.000976555
-0.000121485
-0.000670141
-0.000704799
-0.000730104
-0.00067072
-0.00150637
0.00170785
-0.00296254
0.00200116
-0.00175217
0.00360476
-0.00220496
-0.00118086
-0.0014555
-0.000794635
0.000961407
0.000975203
-0.000121381
-0.000669402
-0.000703988
-0.000729504
-0.000669866
0.000943794
0.000943302
0.00023867
-0.00109693
-0.00109718
6.83433e-05
-0.000235523
-0.000235678
0.00119499
-0.000242353
-0.000283158
0.00131662
-0.000223435
-0.000450243
0.00149813
-0.00015605
-0.000504802
0.00162537
-0.000866724
0.00183674
-0.000282997
-0.000242448
0.00131648
-0.000352918
-0.000353078
0.00148724
-0.000409435
-0.000559137
0.00174059
-0.000431106
-0.000662982
0.00192906
-0.00151388
0.0022181
-0.000450097
-0.000223435
0.00149806
-0.000559115
-0.000409541
0.00174068
-0.000671351
-0.000671308
0.00230274
-0.000665795
-0.000754363
0.00271497
-0.000781666
0.00360064
-0.00115488
-0.000123159
-0.000116772
-0.000504678
-0.000155931
0.00162501
-0.000662995
-0.000431144
0.00192894
-0.000754659
-0.000665293
0.00271448
-0.000336049
-0.000335556
0.00310966
-6.34839e-05
-0.000281927
0.000476814
-6.26477e-05
-0.000282189
0.000476906
-0.000857358
-0.000958582
-0.000958462
-0.00143615
-0.000226052
-0.000423354
0.000687947
-0.00115626
-0.000866488
0.00183666
-0.00151375
0.00221794
-0.000781327
0.00360053
-0.00115534
-0.00012273
-0.000116723
-0.000422719
-0.000225946
0.000687041
-0.00115526
0.000122508
0.000122235
0.000219721
4.40733e-05
4.3913e-05
-0.00055245
-0.00010208
-0.000102402
0.00116261
-6.60274e-05
-7.44051e-05
0.00129877
-2.99386e-05
-0.000110889
0.0014252
4.67141e-05
-6.73266e-05
0.00154202
-0.000134132
0.00166454
-7.40506e-05
-6.64545e-05
0.00129869
-7.79395e-05
-7.83806e-05
0.0014951
-0.000127598
-3.4619e-05
0.00171398
-0.000217135
1.4618e-05
0.00193666
-0.000417399
0.00228279
-0.000110591
-3.03577e-05
0.00142509
-3.41103e-05
-0.000128196
0.00171401
8.80716e-05
8.74801e-05
0.00205846
0.000212167
0.000206073
0.00239942
0.000246415
0.00271875
0.000344557
0.00016994
-8.43255e-05
-6.70358e-05
4.61636e-05
0.00154185
1.4912e-05
-0.000217869
0.00193667
0.00020647
0.00021119
0.00239921
4.51927e-05
4.54949e-05
0.000650233
0.000652925
0.000652914
0.000516259
0.000298576
0.000231762
-5.10096e-05
0.000298784
0.000232001
-5.09269e-05
0.000207492
8.47428e-05
0.000702467
-0.000703094
-0.000134088
0.00166439
-0.000417289
0.00228301
0.000246539
0.00271856
0.000344665
0.000170338
-8.42691e-05
0.000208015
0.000702364
8.49059e-05
-0.000703251
0.00113167
0.00113089
0.00779765
-0.00128023
-0.00128048
-0.00192743
-0.00182358
-0.00187426
-0.00187424
-6.47706e-05
-6.50666e-05
0.00108457
-5.21995e-06
-4.78398e-05
0.00122651
2.4753e-05
-7.79696e-05
0.00134286
5.39524e-05
-6.57698e-05
0.00148721
-0.000164642
0.00162105
-4.75869e-05
-5.51049e-06
0.00122647
-2.14925e-05
-2.16981e-05
0.00144287
-4.64914e-05
-1.07617e-05
0.00167177
-9.67616e-05
-1.02967e-05
0.00193145
-0.000254436
0.0022746
-7.76258e-05
2.44563e-05
0.00134279
-1.04485e-05
-4.65603e-05
0.0016717
-6.64796e-06
-6.86047e-06
0.00205076
2.64852e-06
7.00436e-07
0.00254068
-0.000181114
0.000109283
-8.97266e-05
-0.000114381
0.00300949
-0.000368291
1.91971e-05
-7.97549e-05
-6.55434e-05
5.37726e-05
0.00148711
-1.02026e-05
-9.66262e-05
0.00193139
5.4169e-07
2.55014e-06
0.00254093
-0.000181215
0.000109174
-8.98282e-05
3.15803e-05
3.19375e-05
0.000587958
-1.68127e-05
-0.000338387
-0.000369179
-9.62706e-05
0.000706268
-0.000164213
0.00162084
-0.000253756
0.00227437
-0.000114268
0.00300928
-0.000368283
1.91785e-05
-7.98104e-05
-0.000338475
-1.6124e-05
-0.000369059
-9.69005e-05
0.000706291
0.00146401
9.23163e-05
9.24367e-05
-0.000190701
-0.000190551
-0.00126751
8.05049e-05
8.01307e-05
0.000921406
0.000158974
0.000241589
0.00105764
0.000174899
0.00035244
0.00113022
0.000177077
0.000607857
0.00125762
0.000812657
0.0013377
0.000241912
0.000158601
0.00105765
0.000355497
0.000355066
0.00121581
0.000410448
0.000588541
0.00138072
0.000283398
0.00114406
0.0015223
0.00164427
0.00172321
0.000352728
0.000174508
0.00113019
0.000588939
0.00040992
0.00138063
0.000796271
0.000795786
0.00163618
0.000772727
0.00035793
0.00199691
0.000249043
0.000550684
0.00055371
0.000592825
0.00229731
0.000481576
0.000999292
0.00105276
0.000608225
0.00017657
0.00125768
0.00114446
0.00028279
0.00152229
0.000358089
0.000772103
0.00199719
0.000249152
0.00055082
0.000553823
0.000344283
0.000344099
0.000697918
-0.00067028
0.000131332
0.000192322
-0.000269618
3.09298e-05
8.5183e-05
4.45219e-05
0.000203355
0.000174798
0.00081276
0.00133754
0.00164454
0.001723
0.000592945
0.00229728
0.000481663
0.000999429
0.00105286
0.000130957
0.000192372
-0.000269377
3.09219e-05
8.5242e-05
4.45646e-05
0.000203406
0.000174859
0.000492568
-8.64509e-05
-8.65097e-05
4.10218e-05
4.09628e-05
-0.000401592
0.000126323
0.000125995
0.000718507
0.000245976
0.000253435
0.000821157
0.000284489
0.000423098
0.000827957
0.000271209
0.000665265
0.000908807
0.000959662
0.000886806
0.000253763
0.000245659
0.000821206
0.000400016
0.00039975
0.00092324
0.0004293
0.000786509
0.000988021
0.000310225
0.00127019
0.00103646
0.00188705
0.00110235
0.000423434
0.000284198
0.000827938
0.000786782
0.000429063
0.000987971
0.00109851
0.00109824
0.00101272
0.00111272
0.00209155
0.00116135
0.00436392
0.00092647
0.00066562
0.000270966
0.000908902
0.00127046
0.000310011
0.0010365
0.00209193
0.00111248
0.00116148
0.00285909
0.00285856
0.000905448
-0.000532661
-0.000548297
-0.000548329
-0.000810336
0.00232751
-0.00348301
0.00281763
0.00192028
0.00257726
0.000119694
-8.21364e-05
-4.77534e-05
0.00107145
0.000959947
0.000886647
0.00188716
0.00110226
0.00436405
0.000926414
0.00232764
-0.00348278
0.00281775
0.0019204
0.00257732
0.000119587
-4.79182e-05
-8.23446e-05
0.00107127
0.000896369
0.00230185
0.00230163
-0.00604415
0.0013823
0.00138227
0.00243488
0.000185492
0.000185196
0.000554725
0.000270394
0.000379951
0.000618135
0.000290218
0.000568947
0.000586216
0.000243763
0.00087705
0.000624496
0.00120656
0.000559979
0.000380271
0.000270068
0.000618215
0.000514903
0.000514576
0.000653982
0.000556865
0.000872924
0.000642083
0.000411422
0.00143033
0.000628613
0.00212258
0.000594657
0.000569231
0.000289863
0.000586223
0.000873226
0.000556528
0.000642023
0.00110335
0.00110305
0.000552473
0.00097416
0.00217534
0.000545529
0.00389632
0.000121247
0.000877339
0.00024338
0.000624663
0.00143066
0.00041103