/*--------------------------------*- C++ -*----------------------------------*\
| =========                 |                                                 |
| \\      /  F ield         | OpenFOAM: The Open Source CFD Toolbox           |
|  \\    /   O peration     | Version:  5.x                                   |
|   \\  /    A nd           | Web:      www.OpenFOAM.org                      |
|    \\/     M anipulation  |                                                 |
\*---------------------------------------------------------------------------*/
FoamFile
{
    version     2.0;
    format      ascii;
    class       volVectorField;
    location    "0.087";
    object      U;
}
// * * * * * * * * * * * * * * * * * * * * * * * * * * * * * * * * * * * * * //

dimensions      [0 1 -1 0 0 0 0];

internalField   nonuniform List<vector> 
1581
(
(-5.23073e-05 -5.23918e-05 0.0461793)
(-5.49023e-05 -6.08532e-05 0.0461549)
(-3.97579e-05 -6.39103e-05 0.0461632)
(-4.01686e-05 -6.76094e-05 0.046149)
(-1.64016e-05 -6.92802e-05 0.0461542)
(-6.07687e-05 -5.4921e-05 0.0461549)
(-6.60728e-05 -6.60912e-05 0.0461076)
(-4.63281e-05 -7.03325e-05 0.0461073)
(-4.53978e-05 -7.52132e-05 0.046092)
(-2.00634e-05 -7.74393e-05 0.046096)
(-6.38256e-05 -3.97423e-05 0.0461631)
(-7.03138e-05 -4.63112e-05 0.0461073)
(-4.88819e-05 -4.88645e-05 0.0461027)
(-4.72759e-05 -5.25127e-05 0.0460866)
(-2.13677e-05 -5.41937e-05 0.0460904)
(-6.75236e-05 -4.01071e-05 0.0461489)
(-7.51931e-05 -4.5336e-05 0.0460919)
(-5.25297e-05 -4.72137e-05 0.0460866)
(-5.0727e-05 -5.06654e-05 0.0460706)
(-2.4167e-05 -5.22245e-05 0.0460745)
(-6.91952e-05 -1.63249e-05 0.0461541)
(-7.74199e-05 -1.99854e-05 0.046096)
(-5.42112e-05 -2.1288e-05 0.0460905)
(-5.22866e-05 -2.40867e-05 0.0460745)
(-2.54856e-05 -2.54051e-05 0.0460788)
(-1.86289e-05 -1.85081e-05 -0.0278509)
(-2.73101e-05 -9.94884e-06 -0.027849)
(-2.55156e-05 -7.35613e-06 -0.027852)
(-2.60594e-05 -4.94027e-06 -0.0278522)
(-1.96296e-05 -4.1153e-06 -0.0278545)
(-1.00697e-05 -2.71187e-05 -0.027849)
(-1.65673e-05 -1.63785e-05 -0.0278425)
(-2.06997e-05 -1.29398e-05 -0.0278438)
(-2.29473e-05 -1.007e-05 -0.0278429)
(-1.84829e-05 -9.15184e-06 -0.0278448)
(-7.47955e-06 -2.533e-05 -0.0278519)
(-1.31313e-05 -2.05182e-05 -0.0278438)
(-1.92134e-05 -1.90321e-05 -0.0278444)
(-2.22758e-05 -1.7876e-05 -0.0278431)
(-1.8458e-05 -1.77662e-05 -0.0278448)
(-5.06516e-06 -2.58565e-05 -0.027852)
(-1.02631e-05 -2.27469e-05 -0.0278428)
(-1.80576e-05 -2.20749e-05 -0.027843)
(-2.16815e-05 -2.148e-05 -0.0278416)
(-1.86892e-05 -2.17307e-05 -0.0278432)
(-4.24125e-06 -1.94201e-05 -0.0278544)
(-9.34537e-06 -1.82752e-05 -0.0278447)
(-1.79463e-05 -1.8253e-05 -0.0278447)
(-2.19316e-05 -1.8484e-05 -0.0278432)
(-1.92996e-05 -1.9096e-05 -0.027845)
(-5.17372e-05 -5.17669e-05 0.0359569)
(-5.7534e-05 -5.53834e-05 0.0359294)
(-4.40805e-05 -5.6617e-05 0.0359289)
(-4.36621e-05 -5.92915e-05 0.035911)
(-1.89732e-05 -6.05053e-05 0.0359112)
(-5.53537e-05 -5.74923e-05 0.0359294)
(-6.22508e-05 -6.22086e-05 0.0358948)
(-4.78907e-05 -6.38707e-05 0.035892)
(-4.74573e-05 -6.73924e-05 0.0358716)
(-2.20136e-05 -6.90205e-05 0.0358707)
(-5.65868e-05 -4.4018e-05 0.0359289)
(-6.39124e-05 -4.78273e-05 0.035892)
(-4.92647e-05 -4.92016e-05 0.0358883)
(-4.8812e-05 -5.23412e-05 0.0358671)
(-2.3162e-05 -5.3853e-05 0.035866)
(-5.92609e-05 -4.35614e-05 0.035911)
(-6.74341e-05 -4.73555e-05 0.0358716)
(-5.24046e-05 -4.87107e-05 0.0358671)
(-5.21087e-05 -5.20067e-05 0.0358446)
(-2.60418e-05 -5.36131e-05 0.0358429)
(-6.0474e-05 -1.88563e-05 0.0359112)
(-6.90617e-05 -2.18954e-05 0.0358708)
(-5.39158e-05 -2.30441e-05 0.035866)
(-5.37144e-05 -2.5923e-05 0.035843)
(-2.75252e-05 -2.74071e-05 0.0358412)
(-4.72837e-05 -4.71868e-05 -0.0178614)
(-5.54024e-05 -4.58895e-05 -0.0178822)
(-4.39878e-05 -4.56646e-05 -0.0178862)
(-4.37992e-05 -4.57257e-05 -0.0179004)
(-2.2018e-05 -4.59817e-05 -0.0179032)
(-4.59864e-05 -5.52188e-05 -0.0178821)
(-5.39633e-05 -5.37795e-05 -0.0179027)
(-4.38631e-05 -5.35321e-05 -0.0179066)
(-4.41421e-05 -5.38303e-05 -0.0179212)
(-2.2941e-05 -5.4257e-05 -0.0179241)
(-4.57613e-05 -4.37902e-05 -0.0178861)
(-5.37157e-05 -4.36655e-05 -0.0179066)
(-4.40404e-05 -4.38438e-05 -0.0179104)
(-4.45256e-05 -4.47522e-05 -0.0179251)
(-2.35162e-05 -4.54698e-05 -0.0179282)
(-4.58226e-05 -4.35622e-05 -0.0179003)
(-5.40151e-05 -4.39046e-05 -0.0179211)
(-4.49497e-05 -4.42889e-05 -0.0179251)
(-4.57681e-05 -4.55299e-05 -0.0179404)
(-2.50806e-05 -4.64536e-05 -0.0179438)
(-4.60778e-05 -2.17655e-05 -0.0179031)
(-5.44408e-05 -2.26878e-05 -0.017924)
(-4.56656e-05 -2.3265e-05 -0.0179281)
(-4.66903e-05 -2.48266e-05 -0.0179437)
(-2.61437e-05 -2.58917e-05 -0.0179472)
(-7.35084e-05 -7.34861e-05 0.0274932)
(-8.22566e-05 -7.69999e-05 0.0274498)
(-6.23548e-05 -7.81495e-05 0.0274445)
(-6.07134e-05 -8.12634e-05 0.0274155)
(-2.32385e-05 -8.26517e-05 0.0274125)
(-7.70222e-05 -8.2143e-05 0.0274498)
(-8.67992e-05 -8.66842e-05 0.0274025)
(-6.65167e-05 -8.82046e-05 0.0273961)
(-6.51132e-05 -9.23004e-05 0.0273646)
(-2.68558e-05 -9.41529e-05 0.0273606)
(-7.81702e-05 -6.22173e-05 0.0274445)
(-8.83181e-05 -6.63775e-05 0.0273961)
(-6.79701e-05 -6.78324e-05 0.0273893)
(-6.6661e-05 -7.17527e-05 0.0273571)
(-2.82652e-05 -7.36069e-05 0.0273528)
(-8.1284e-05 -6.05295e-05 0.0274155)
(-9.24152e-05 -6.49267e-05 0.0273647)
(-7.18919e-05 -6.64769e-05 0.0273571)
(-7.08876e-05 -7.07004e-05 0.027323)
(-3.20173e-05 -7.27493e-05 0.027318)
(-8.26699e-05 -2.30308e-05 0.0274126)
(-9.42662e-05 -2.66426e-05 0.0273608)
(-7.37438e-05 -2.80593e-05 0.0273529)
(-7.29334e-05 -3.18068e-05 0.0273181)
(-3.39534e-05 -3.37454e-05 0.0273127)
(-9.28551e-05 -9.27444e-05 -0.0104931)
(-0.000104323 -9.51907e-05 -0.0105449)
(-7.82793e-05 -9.61269e-05 -0.0105532)
(-7.57729e-05 -9.86203e-05 -0.0105874)
(-2.76817e-05 -9.98609e-05 -0.0105924)
(-9.53013e-05 -0.000104096 -0.0105449)
(-0.000107628 -0.0001074 -0.0105989)
(-8.16382e-05 -0.000108642 -0.0106078)
(-7.94339e-05 -0.00011205 -0.0106441)
(-3.09081e-05 -0.000113723 -0.0106499)
(-9.62356e-05 -7.8022e-05 -0.0105531)
(-0.000108868 -8.13791e-05 -0.0106078)
(-8.29295e-05 -8.26725e-05 -0.0106169)
(-8.08536e-05 -8.61725e-05 -0.0106538)
(-3.22165e-05 -8.79558e-05 -0.0106599)
(-9.87291e-05 -7.5457e-05 -0.0105872)
(-0.000112279 -7.91151e-05 -0.0106439)
(-8.64316e-05 -8.05373e-05 -0.0106537)
(-8.47172e-05 -8.4398e-05 -0.0106926)
(-3.58799e-05 -8.639e-05 -0.0106994)
(-9.99667e-05 -2.7333e-05 -0.0105922)
(-0.000113949 -3.05563e-05 -0.0106497)
(-8.82124e-05 -3.18677e-05 -0.0106598)
(-8.67063e-05 -3.55143e-05 -0.0106994)
(-3.78132e-05 -3.74638e-05 -0.0107066)
(-0.000127698 -0.000127615 0.0212703)
(-0.000142151 -0.000133668 0.0211901)
(-0.000104803 -0.000135564 0.0211782)
(-0.000100014 -0.000140872 0.0211252)
(-3.07172e-05 -0.000143063 0.0211182)
(-0.00013375 -0.000141946 0.0211902)
(-0.000149883 -0.000149675 0.0211056)
(-0.000111826 -0.000152151 0.0210921)
(-0.000107333 -0.000159045 0.0210357)
(-3.6292e-05 -0.000161951 0.0210273)
(-0.000135643 -0.00010456 0.0211783)
(-0.000152356 -0.000111579 0.0210922)
(-0.00011417 -0.000113928 0.0210783)
(-0.000109812 -0.000120446 0.0210206)
(-3.83846e-05 -0.000123361 0.0210118)
(-0.000140951 -9.97086e-05 0.0211254)
(-0.000159253 -0.000107022 0.0210358)
(-0.000120692 -0.000109505 0.0210207)
(-0.000116767 -0.000116454 0.0209602)
(-4.42619e-05 -0.00011965 0.0209501)
(-0.000143136 -3.03694e-05 0.0211184)
(-0.000162154 -3.59396e-05 0.0210275)
(-0.000123602 -3.80352e-05 0.021012)
(-0.000119958 -4.39085e-05 0.0209502)
(-4.72003e-05 -4.68505e-05 0.0209396)
(-0.000177024 -0.00017686 -0.00513)
(-0.000196679 -0.000183666 -0.00523586)
(-0.000143201 -0.000186101 -0.00525336)
(-0.000135716 -0.000192055 -0.00532239)
(-3.78862e-05 -0.000194704 -0.00533248)
(-0.00018383 -0.00019636 -0.00523577)
(-0.000205645 -0.000205321 -0.00534773)
(-0.000151363 -0.000208475 -0.00536717)
(-0.000144099 -0.000216405 -0.00544129)
(-4.44011e-05 -0.000219887 -0.00545319)
(-0.00018626 -0.000142825 -0.00525324)
(-0.000208794 -0.000150982 -0.00536714)
(-0.000154282 -0.000153906 -0.00538728)
(-0.000147125 -0.00016144 -0.005463)
(-4.6804e-05 -0.000164895 -0.00547555)
(-0.000192214 -0.000135257 -0.00532217)
(-0.000216729 -0.000143633 -0.00544114)
(-0.00016182 -0.000146664 -0.00546289)
(-0.000155087 -0.000154619 -0.00554302)
(-5.36586e-05 -0.000158374 -0.0055572)
(-0.000194856 -3.73607e-05 -0.00533221)
(-0.000220204 -4.38703e-05 -0.00545298)
(-0.000165268 -4.62771e-05 -0.00547538)
(-0.000158834 -5.31255e-05 -0.00555713)
(-5.70328e-05 -5.65058e-05 -0.00557203)
(-0.000238509 -0.000238345 0.0168639)
(-0.000265375 -0.000251058 0.0167098)
(-0.000191401 -0.000255026 0.0166845)
(-0.000179244 -0.000265665 0.0165836)
(-4.36668e-05 -0.000269719 0.0165691)
(-0.000251222 -0.000265055 0.0167099)
(-0.000281559 -0.000281231 0.0165473)
(-0.0002056 -0.000286425 0.0165186)
(-0.000193549 -0.000300097 0.0164113)
(-5.33492e-05 -0.000305468 0.0163941)
(-0.00025518 -0.000191015 0.0166846)
(-0.000286744 -0.000205207 0.0165186)
(-0.000210261 -0.000209876 0.0164888)
(-0.000198282 -0.000222417 0.0163789)
(-5.68794e-05 -0.000227618 0.0163607)
(-0.000265821 -0.000178776 0.0165839)
(-0.000300426 -0.000193069 0.0164115)
(-0.00022281 -0.00019781 0.0163791)
(-0.000211291 -0.000210807 0.0162641)
(-6.69354e-05 -0.000216358 0.0162435)
(-0.000269861 -4.31197e-05 0.0165695)
(-0.000305783 -5.27931e-05 0.0163944)
(-0.000227999 -5.63284e-05 0.016361)
(-0.00021683 -6.63761e-05 0.0162436)
(-7.1784e-05 -7.1232e-05 0.016222)
(-0.000338945 -0.000338683 -0.00129124)
(-0.000376589 -0.000353835 -0.0014999)
(-0.000269334 -0.000359701 -0.00153846)
(-0.000250942 -0.000372167 -0.00167336)
(-5.6024e-05 -0.000377669 -0.00169506)
(-0.000354097 -0.000376127 -0.00149979)
(-0.000396906 -0.000396432 -0.00172307)
(-0.0002871 -0.000404051 -0.00176691)
(-0.000268382 -0.00042083 -0.00191356)
(-6.83154e-05 -0.000428025 -0.00193955)
(-0.000359952 -0.000268765 -0.00153833)
(-0.000404514 -0.000286521 -0.00176688)
(-0.000293722 -0.000293153 -0.00181299)
(-0.000274907 -0.000308427 -0.00196354)
(-7.26568e-05 -0.00031521 -0.00199132)
(-0.00037242 -0.000250261 -0.00167307)
(-0.000421304 -0.000267684 -0.00191338)
(-0.000309006 -0.000274221 -0.00196339)
(-0.000290439 -0.000289736 -0.00212384)
(-8.51212e-05 -0.000296848 -0.00215507)
(-0.000377903 -5.52021e-05 -0.00169474)
(-0.000428482 -6.74837e-05 -0.00193932)
(-0.000315773 -7.1832e-05 -0.00199113)
(-0.000297534 -8.42863e-05 -0.00215501)
(-9.09589e-05 -9.01345e-05 -0.00218778)
(-0.000457082 -0.00045681 0.0138872)
(-0.000512484 -0.000485172 0.0135888)
(-0.000364967 -0.000494708 0.0135335)
(-0.00033602 -0.000517586 0.0133397)
(-6.77029e-05 -0.000526061 0.0133086)
(-0.000485444 -0.000512036 0.013589)
(-0.000549159 -0.000548691 0.0132719)
(-0.000396389 -0.000561544 0.0132071)
(-0.000366458 -0.000590966 0.0129999)
(-8.57763e-05 -0.000602433 0.0129617)
(-0.000494961 -0.000364402 0.0135337)
(-0.000561992 -0.000395811 0.0132071)
(-0.000407224 -0.000406661 0.0131387)
(-0.000376894 -0.000433013 0.0129246)
(-9.23425e-05 -0.000443468 0.0128838)
(-0.000517845 -0.000335362 0.0133402)
(-0.000591434 -0.000365775 0.0130002)
(-0.000433592 -0.000376229 0.0129249)
(-0.000403266 -0.000402576 0.0127008)
(-0.000110424 -0.000413115 0.012654)
(-0.000526288 -6.68946e-05 0.0133091)
(-0.000602873 -8.49519e-05 0.0129621)
(-0.000444024 -9.15263e-05 0.0128841)
(-0.000413781 -0.000109593 0.0126541)
(-0.00011868 -0.00011786 0.0126047)
(-0.000652459 -0.000652044 0.00144303)
(-0.000730982 -0.000686104 0.001035)
(-0.000518263 -0.00070165 0.000946722)
(-0.000475579 -0.000727972 0.00068466)
(-9.05994e-05 -0.000740773 0.000634497)
(-0.000686519 -0.000730335 0.00103514)
(-0.000778815 -0.000778141 0.000593208)
(-0.000558714 -0.000798733 0.000489471)
(-0.000513429 -0.000835751 0.000200171)
(-0.00011482 -0.000852667 0.000138662)
(-0.000702038 -0.000517409 0.000946817)
(-0.00079938 -0.00055784 0.00048945)
(-0.000575845 -0.00057499 0.000377464)
(-0.00052949 -0.000607199 7.80055e-05)
(-0.000123337 -0.000622559 1.01432e-05)
(-0.000728367 -0.000474586 0.000684982)
(-0.000836424 -0.000512396 0.000200363)
(-0.000608073 -0.000528485 7.82101e-05)
(-0.000561001 -0.000559959 -0.000244668)
(-0.00014708 -0.000575639 -0.000320131)
(-0.00074112 -8.93036e-05 0.000634758)
(-0.000853302 -0.000113506 0.000138826)
(-0.000623405 -0.000122032 1.03131e-05)
(-0.000576643 -0.000145758 -0.000320142)
(-0.000157764 -0.000156454 -0.000399912)
(-0.000884731 -0.000884326 0.0120851)
(-0.0010088 -0.000948576 0.0115115)
(-0.000715448 -0.00097429 0.0113862)
(-0.000648505 -0.00102551 0.0110146)
(-0.000117833 -0.00104571 0.0109436)
(-0.000948982 -0.00100826 0.0115117)
(-0.00109564 -0.00109505 0.0108929)
(-0.000789828 -0.0011318 0.0107386)
(-0.000717639 -0.00119874 0.0103368)
(-0.000154426 -0.00122793 0.010244)
(-0.000974656 -0.000714699 0.0113864)
(-0.00113234 -0.000789057 0.0107386)
(-0.000819091 -0.000818344 0.0105721)
(-0.000744605 -0.000878301 0.0101493)
(-0.000169034 -0.000902724 0.0100486)
(-0.00102589 -0.000647683 0.0110152)
(-0.00119933 -0.000716771 0.0103372)
(-0.000879072 -0.00074377 0.0101497)
(-0.000802022 -0.000801139 0.00970749)
(-0.000202706 -0.0008236 0.00958604)
(-0.00104603 -0.000116732 0.0109442)
(-0.00122847 -0.000153302 0.0102445)
(-0.000903455 -0.000167916 0.010049)
(-0.000824436 -0.000201572 0.00958608)
(-0.000217748 -0.000216616 0.00945549)
(-0.00125553 -0.0012549 0.00344246)
(-0.00143097 -0.00133531 0.00264969)
(-0.00101494 -0.00138075 0.00244136)
(-0.000917904 -0.00143847 0.0019337)
(-0.00016349 -0.00147368 0.00181021)
(-0.00133593 -0.00143014 0.00264981)
(-0.00155217 -0.00155128 0.001783)
(-0.00111437 -0.00161293 0.00152668)
(-0.0010076 -0.00170102 0.000956229)
(-0.00021719 -0.00174763 0.000799791)
(-0.00138131 -0.00101369 0.0024413)
(-0.00161376 -0.00111309 0.00152654)
(-0.00116459 -0.00116334 0.00123864)
(-0.00105254 -0.00123588 0.000639954)
(-0.000236292 -0.00127992 0.000455995)
(-0.00143905 -0.00091653 0.0019339)
(-0.0017019 -0.00100613 0.000956317)
(-0.00123716 -0.00105115 0.000640193)
(-0.00112419 -0.00112272 -1.60123e-05)
(-0.000290073 -0.00116826 -0.000211292)
(-0.00147414 -0.000161459 0.00181015)
(-0.00174844 -0.000215124 0.000799661)
(-0.00128117 -0.00023422 0.000455999)
(-0.00116966 -0.000287975 -0.000211487)
(-0.000313111 -0.000311001 -0.000421424)
(-0.00171599 -0.00171547 0.0113764)
(-0.00201017 -0.00185795 0.0102944)
(-0.00143156 -0.00193372 0.00999985)
(-0.00128001 -0.0020504 0.00928874)
(-0.000235512 -0.0021048 0.00911565)
(-0.00185846 -0.00200969 0.0102947)
(-0.00222016 -0.00221961 0.00909576)
(-0.00161715 -0.00233628 0.00870933)
(-0.00144507 -0.00249447 0.00792535)
(-0.000317651 -0.00258421 0.00767731)
(-0.00193417 -0.00143073 0.00999991)
(-0.00233676 -0.00161629 0.00870924)
(-0.00170627 -0.00170543 0.00827975)
(-0.00152785 -0.00185119 0.00743196)
(-0.000361369 -0.00191448 0.00716521)
(-0.00205089 -0.0012792 0.00928947)
(-0.00249502 -0.00144419 0.00792587)
(-0.00185205 -0.00152701 0.00743257)
(-0.00165414 -0.00165321 0.00655234)
(-0.000419631 -0.00170169 0.00619865)
(-0.00210518 -0.000234202 0.00911606)
(-0.00258467 -0.000316324 0.00767773)
(-0.00191528 -0.000360019 0.00716556)
(-0.00170253 -0.000418297 0.00619848)
(-0.000452707 -0.000451311 0.00581494)
(-0.0023946 -0.00239373 0.00510616)
(-0.00280946 -0.00259512 0.00357754)
(-0.00202036 -0.00273552 0.00307178)
(-0.00180171 -0.00286914 0.00208473)
(-0.000333898 -0.00298159 0.00176471)
(-0.00259598 -0.00280857 0.00357749)
(-0.00313836 -0.00313731 0.00191472)
(-0.0022839 -0.00333356 0.00125079)
(-0.00203898 -0.00355815 0.000125709)
(-0.000474313 -0.00369841 -0.00029928)
(-0.00273623 -0.00201864 0.00307131)
(-0.00333445 -0.0022821 0.00125038)
(-0.0024409 -0.00243913 0.000458495)
(-0.00216637 -0.00260783 -0.000766675)
(-0.000517157 -0.00275745 -0.00133533)
(-0.00286992 -0.00179998 0.00208439)
(-0.00355915 -0.00203698 0.000125411)
(-0.00260964 -0.00216462 -0.000766481)
(-0.0023573 -0.00235538 -0.00217031)
(-0.000675119 -0.00251767 -0.00279836)
(-0.00298202 -0.000330757 0.00176376)
(-0.00369928 -0.000471074 -0.000300197)
(-0.0027593 -0.000513843 -0.00133588)
(-0.00251942 -0.000671749 -0.00279913)
(-0.000731476 -0.000727964 -0.00354408)
(-0.00331937 -0.00331892 0.0119693)
(-0.00404542 -0.00360464 0.00998967)
(-0.00292423 -0.00384528 0.00925337)
(-0.00258749 -0.00410663 0.00787856)
(-0.000538293 -0.00427035 0.00742496)
(-0.00360509 -0.00404541 0.0099899)
(-0.00454919 -0.0045491 0.00770028)
(-0.00340681 -0.00495264 0.00669536)
(-0.00299588 -0.0053494 0.00513397)
(-0.000749584 -0.00568786 0.00444043)
(-0.00384565 -0.00292368 0.009253)
(-0.00495265 -0.00340625 0.00669503)
(-0.003724 -0.00372337 0.00552422)
(-0.00332247 -0.00414776 0.00373107)
(-0.000940747 -0.00441422 0.0028976)
(-0.00410707 -0.00258715 0.00787937)
(-0.00534942 -0.00299551 0.00513458)
(-0.00414833 -0.00332218 0.00373198)
(-0.00368689 -0.00368655 0.00181855)
(-0.00108966 -0.00391149 0.000804474)
(-0.00427068 -0.00053718 0.00742452)
(-0.00568792 -0.000748496 0.00444036)
(-0.00441487 -0.000939492 0.00289759)
(-0.00391178 -0.00108854 0.000804158)
(-0.00124019 -0.0012388 -0.000367516)
(-0.00448218 -0.0044811 0.00710587)
(-0.00552891 -0.00500425 0.0042983)
(-0.00413126 -0.00542379 0.00311054)
(-0.0036297 -0.00575194 0.00118211)
(-0.000773289 -0.00611261 0.000352249)
(-0.00500534 -0.0055284 0.00429767)
(-0.00643517 -0.00643422 0.00133502)
(-0.00484853 -0.00706446 -0.000365416)
(-0.00429288 -0.00770681 -0.00253284)
(-0.00117832 -0.00822704 -0.00376879)
(-0.00542444 -0.00412895 0.00310917)
(-0.00706497 -0.00484611 -0.000366267)
(-0.00540294 -0.0054006 -0.00256019)
(-0.00479181 -0.00592124 -0.00510215)
(-0.00135973 -0.00639143 -0.00677802)
(-0.0057529 -0.00362805 0.00118012)
(-0.00770772 -0.00429061 -0.00253419)
(-0.00592366 -0.00479008 -0.00510248)
(-0.00528365 -0.00528114 -0.00782315)
(-0.00171762 -0.00578216 -0.00995405)
(-0.00611263 -0.000768391 0.000349203)
(-0.00822748 -0.0011733 -0.00377129)
(-0.00639353 -0.00135428 -0.00677952)
(-0.00578389 -0.0017124 -0.00995556)
(-0.001934 -0.00192814 -0.0126343)
(-0.00626363 -0.00626383 0.0150636)
(-0.00804237 -0.00672261 0.0112449)
(-0.00603888 -0.00749691 0.00957066)
(-0.00534571 -0.00801129 0.00696149)
(-0.00133362 -0.00859494 0.00573073)
(-0.00672242 -0.00804372 0.0112449)
(-0.00921538 -0.00921677 0.00717056)
(-0.00727479 -0.0106279 0.00475247)
(-0.00640054 -0.0116404 0.00172915)
(-0.00198199 -0.0128257 -0.000208242)
(-0.00749674 -0.00603969 0.00956949)
(-0.0106266 -0.00727558 0.00475173)
(-0.00846091 -0.00846146 0.00144037)
(-0.00754226 -0.00943896 -0.0023208)
(-0.00261046 -0.0106004 -0.00509008)
(-0.00801106 -0.00534704 0.00696191)
(-0.0116387 -0.00640181 0.00172952)
(-0.00943818 -0.00754347 -0.00231951)
(-0.00853983 -0.00854132 -0.00647968)
(-0.00326095 -0.0097694 -0.010125)
(-0.00859469 -0.00133381 0.00572824)
(-0.0128242 -0.00198231 -0.000209069)
(-0.0106001 -0.00261036 -0.00509148)
(-0.0097682 -0.00326111 -0.0101262)
(-0.00395432 -0.00395378 -0.01477)
(-0.00850441 -0.00850337 0.0116067)
(-0.0110283 -0.0092959 0.00664936)
(-0.00841441 -0.0104915 0.00384456)
(-0.00747014 -0.011253 7.39122e-05)
(-0.00197653 -0.0123444 -0.0020565)
(-0.00929694 -0.011029 0.00664727)
(-0.0129332 -0.012933 0.00124452)
(-0.0102874 -0.0151996 -0.00290365)
(-0.00925272 -0.0169941 -0.00694155)
(-0.00312169 -0.0190541 -0.0104954)
(-0.0104917 -0.00841166 0.00384132)
(-0.0151989 -0.0102846 -0.00290501)
(-0.0124731 -0.0124702 -0.00864824)
(-0.0113225 -0.0141295 -0.0143185)
(-0.00413417 -0.0163083 -0.0198927)
(-0.011254 -0.00746979 6.83818e-05)
(-0.0169941 -0.00925054 -0.0069448)
(-0.0141323 -0.0113221 -0.0143201)
(-0.01309 -0.0130874 -0.0205624)
(-0.00541116 -0.0154628 -0.0281027)
(-0.0123427 -0.00196917 -0.00206367)
(-0.0190534 -0.00311432 -0.0105008)
(-0.0163107 -0.00412512 -0.0198966)
(-0.0154631 -0.00540328 -0.0281056)
(-0.00662076 -0.00660997 -0.0389422)
(-0.01149 -0.0114923 0.0223895)
(-0.0158083 -0.0124187 0.0161403)
(-0.0126107 -0.0145858 0.0125716)
(-0.0112461 -0.0153904 0.00765992)
(-0.0034039 -0.0174446 0.00457124)
(-0.0124164 -0.0158129 0.0161391)
(-0.0187703 -0.0187752 0.00935575)
(-0.0154597 -0.0231289 0.00338528)
(-0.013993 -0.0260429 -0.00200451)
(-0.00554408 -0.0306743 -0.00783111)
(-0.0145837 -0.0126149 0.0125687)
(-0.0231243 -0.0154637 0.00338449)
(-0.0198759 -0.0198794 -0.00533758)
(-0.018788 -0.0230621 -0.0137075)
(-0.0081793 -0.0282131 -0.0231963)
(-0.0153879 -0.0112513 0.00765871)
(-0.0260373 -0.0139982 -0.00200494)
(-0.0230581 -0.018793 -0.0137065)
(-0.0223228 -0.0223289 -0.0227902)
(-0.0108943 -0.0288221 -0.0368404)
(-0.0174424 -0.00340803 0.00456466)
(-0.0306695 -0.00554791 -0.00783261)
(-0.0282105 -0.00818226 -0.0232007)
(-0.0288171 -0.0108975 -0.036841)
(-0.0148609 -0.0148625 -0.0575053)
(-0.0151204 -0.0151206 0.0205696)
(-0.0208601 -0.0164933 0.0132677)
(-0.0168938 -0.0201793 0.00810089)
(-0.0154721 -0.0214577 0.00203806)
(-0.00502313 -0.025378 -0.00296848)
(-0.0164931 -0.0208637 0.0132625)
(-0.0256977 -0.0256995 0.00526439)
(-0.0216452 -0.0331196 -0.00385752)
(-0.020465 -0.0383682 -0.0111302)
(-0.00895352 -0.0468259 -0.0209067)
(-0.0201773 -0.016891 0.00809469)
(-0.033116 -0.0216428 -0.00385883)
(-0.0295622 -0.029559 -0.0181236)
(-0.0291741 -0.0349154 -0.0307145)
(-0.0136245 -0.0453226 -0.0491304)
(-0.0214579 -0.0154755 0.00202496)
(-0.038366 -0.0204635 -0.0111374)
(-0.0349178 -0.0291781 -0.0307201)
(-0.0362115 -0.0362084 -0.0457161)
(-0.0195416 -0.0497539 -0.0740082)
(-0.0253712 -0.00501236 -0.00298244)
(-0.046823 -0.0089431 -0.020916)
(-0.0453241 -0.0136086 -0.0491394)
(-0.0497498 -0.0195296 -0.0740124)
(-0.0273816 -0.027359 -0.123081)
(-0.0192406 -0.0192482 0.0382358)
(-0.0282793 -0.0209272 0.0297111)
(-0.0238297 -0.0272136 0.0234171)
(-0.0223081 -0.0292995 0.0157348)
(-0.00831043 -0.0363069 0.00861716)
(-0.0209197 -0.0282901 0.0297076)
(-0.0358893 -0.0359006 0.0207705)
(-0.031854 -0.0493618 0.00854465)
(-0.0310385 -0.0588014 9.46637e-05)
(-0.0153368 -0.0768482 -0.0163745)
(-0.0272065 -0.0238418 0.0234126)
(-0.049351 -0.0318651 0.00854489)
(-0.0467415 -0.046752 -0.012725)
(-0.0497868 -0.0576763 -0.0311569)
(-0.0266081 -0.0813722 -0.0647204)
(-0.0292909 -0.0223211 0.0157299)
(-0.0587884 -0.0310517 9.24617e-05)
(-0.0576651 -0.0498008 -0.031158)
(-0.065584 -0.0656 -0.0518283)
(-0.0394525 -0.102773 -0.112755)
(-0.0363 -0.00832414 0.00860583)
(-0.0768384 -0.0153482 -0.0163738)
(-0.0813646 -0.026619 -0.0647303)
(-0.102759 -0.039461 -0.112748)
(-0.0643614 -0.0643658 -0.229516)
(-0.0242456 -0.0242494 0.0381304)
(-0.0357014 -0.0261038 0.0302098)
(-0.03087 -0.0360032 0.0239691)
(-0.0302742 -0.0381669 0.0157372)
(-0.0120834 -0.0517785 0.00779514)
(-0.0261001 -0.0357094 0.0301992)
(-0.0468684 -0.0468734 0.0223361)
(-0.0423302 -0.0692704 0.00805041)
(-0.0453567 -0.0852328 -0.00138262)
(-0.0254408 -0.120086 -0.0236881)
(-0.0359963 -0.0308688 0.0239586)
(-0.0692623 -0.04233 0.00805102)
(-0.069268 -0.0692657 -0.0176474)
(-0.0810689 -0.0868576 -0.0434938)
(-0.0472802 -0.141754 -0.0948947)
(-0.0381643 -0.0302844 0.0157112)
(-0.0852268 -0.0453547 -0.00139499)
(-0.0868578 -0.0810828 -0.0435083)
(-0.117586 -0.117576 -0.0786782)
(-0.0810874 -0.213846 -0.185361)
(-0.0517594 -0.0120682 0.00777054)
(-0.120082 -0.0254274 -0.0236987)
(-0.141749 -0.0472513 -0.0949151)
(-0.213832 -0.0810685 -0.185362)
(-0.146931 -0.146877 -0.390155)
(-0.0278253 -0.0278437 0.0679208)
(-0.0424233 -0.0295142 0.0613879)
(-0.038276 -0.0442502 0.0560239)
(-0.0384397 -0.0477289 0.0483642)
(-0.0161342 -0.0697681 0.0379004)
(-0.0294958 -0.0424446 0.0613806)
(-0.0579965 -0.0580179 0.0555731)
(-0.0555935 -0.0909381 0.0409765)
(-0.062706 -0.117977 0.0330702)
(-0.0377951 -0.179386 0.00161758)
(-0.0442317 -0.0383035 0.0560196)
(-0.0909167 -0.0556171 0.0409797)
(-0.0983629 -0.0983873 0.00916215)
(-0.126786 -0.135106 -0.0238236)
(-0.0786753 -0.24318 -0.113577)
(-0.0477065 -0.0384668 0.0483525)
(-0.117952 -0.0627304 0.0330629)
(-0.135083 -0.12682 -0.0238304)
(-0.207171 -0.207204 -0.0624378)
(-0.151574 -0.473314 -0.316808)
(-0.069747 -0.0161688 0.0378918)
(-0.179372 -0.0378194 0.00162514)
(-0.243164 -0.0787032 -0.113592)
(-0.473261 -0.151584 -0.316771)
(-0.27429 -0.274292 -0.868752)
(-0.0315428 -0.0315539 0.0662363)
(-0.0476008 -0.0327398 0.0653412)
(-0.0439029 -0.0524524 0.0672061)
(-0.0483714 -0.0551122 0.0635844)
(-0.0225606 -0.0908688 0.0643847)
(-0.0327286 -0.0476132 0.0653264)
(-0.0672678 -0.0672769 0.0685713)
(-0.0648909 -0.116114 0.063535)
(-0.0844791 -0.157297 0.0667747)
(-0.0573837 -0.270868 0.0516214)
(-0.0524379 -0.043906 0.0671943)
(-0.116102 -0.064898 0.0635404)
(-0.134186 -0.134187 0.0556537)
(-0.203181 -0.181116 0.0330297)
(-0.140049 -0.408324 -0.00389884)
(-0.0551051 -0.0483857 0.063547)
(-0.157286 -0.0844728 0.0667587)
(-0.181107 -0.203211 0.0330046)
(-0.400625 -0.400615 -0.0294654)
(-0.331489 -0.745046 -0.223404)
(-0.0908334 -0.0225417 0.0643539)
(-0.27087 -0.0573772 0.0516275)
(-0.408289 -0.140013 -0.00395331)
(-0.745053 -0.331521 -0.223504)
(-1.01241 -1.01239 -1.11968)
(-0.0292889 -0.0293224 0.109008)
(-0.0414058 -0.0268686 0.114828)
(-0.0400507 -0.0490661 0.127411)
(-0.0412185 -0.0458071 0.136428)
(-0.015354 -0.0850843 0.15442)
(-0.0268351 -0.041439 0.114814)
(-0.0596986 -0.0597294 0.122951)
(-0.0573414 -0.102329 0.140657)
(-0.0739266 -0.147232 0.151188)
(-0.0535604 -0.238143 0.169663)
(-0.0490301 -0.0401009 0.127408)
(-0.102295 -0.0573809 0.140665)
(-0.127976 -0.128021 0.181454)
(-0.179209 -0.16147 0.219172)
(-0.118253 -0.368574 0.305336)
(-0.0457629 -0.0412649 0.136401)
(-0.147195 -0.0739501 0.151173)
(-0.161424 -0.179295 0.219143)
(-0.370076 -0.37016 0.208109)
(-0.427601 -0.871327 0.217152)
(-0.0850255 -0.0154239 0.154433)
(-0.238151 -0.0536007 0.169664)
(-0.368414 -0.118344 0.305363)
(-0.87125 -0.427395 0.216937)
(-1.75809 -1.75786 -0.0849792)
(-0.0260322 -0.0260573 0.0880043)
(-0.0292273 -0.0249291 0.101301)
(-0.022296 -0.040085 0.119811)
(-0.0213001 -0.0414777 0.135443)
(-0.00460493 -0.0780587 0.161705)
(-0.0249041 -0.0292429 0.10129)
(-0.0414391 -0.041454 0.120511)
(-0.0367881 -0.0621086 0.148951)
(-0.0553359 -0.0742327 0.171299)
(-0.0396979 -0.10907 0.200484)
(-0.0400594 -0.0223131 0.11981)
(-0.0620932 -0.036811 0.148952)
(-0.0556384 -0.0556598 0.215058)
(-0.0693826 -0.0698494 0.278178)
(-0.0522581 -0.233487 0.408698)
(-0.0414589 -0.021298 0.135414)
(-0.0742239 -0.0553375 0.171276)
(-0.0698506 -0.0693561 0.278129)
(-0.0915237 -0.0914628 0.394455)
(-0.16123 -0.282416 0.346449)
(-0.0780369 -0.00458805 0.161717)
(-0.109038 -0.0397113 0.200435)
(-0.233466 -0.0521932 0.408719)
(-0.282237 -0.161019 0.3462)
(-0.197182 -0.197586 -0.750738)
(-0.0157044 -0.0157487 0.12614)
(-0.00951293 -0.00718081 0.137925)
(-0.00572272 -0.0197216 0.152467)
(0.00094437 -0.00972945 0.161556)
(0.011457 -0.0471782 0.176093)
(-0.00713649 -0.00954707 0.137909)
(-0.0120735 -0.0121141 0.154326)
(-0.00686372 -0.00753688 0.174474)
(-0.023775 -0.00863197 0.190209)
(-0.0250554 0.0126183 0.219413)
(-0.0196835 -0.00579168 0.152453)
(-0.00750258 -0.00692564 0.174486)
(-0.0025098 -0.00259885 0.211369)
(0.0219749 0.00901125 0.22987)
(0.023123 -0.113151 0.264348)
(-0.00967813 0.000910888 0.161512)
(-0.00861106 -0.0238471 0.190207)
(0.00905532 0.0219326 0.229815)
(0.0336897 0.0336857 0.205347)
(-0.00669086 0.226627 -0.286149)
(-0.047179 0.0113585 0.176063)
(0.0126374 -0.0251396 0.219434)
(-0.113119 0.0229623 0.264308)
(0.226626 -0.00656959 -0.286148)
(0.707684 0.707604 -3.08393)
(-0.0135464 -0.0135887 0.0689042)
(-0.00299093 -0.00758296 0.0836582)
(0.00127849 -0.016823 0.0934592)
(0.00231581 -0.01105 0.106361)
(0.0103911 -0.0331136 0.113456)
(-0.00754071 -0.00302086 0.0836581)
(-0.00493307 -0.00495275 0.107261)
(-0.000767644 -0.00307294 0.129525)
(-0.011256 -0.00705838 0.157894)
(-0.010197 -0.00859382 0.199307)
(-0.0167698 0.00123477 0.0934562)
(-0.00304309 -0.000793632 0.129521)
(-0.00122764 -0.00129262 0.158098)
(-0.00190296 0.00220866 0.204394)
(0.00137122 -0.0554473 0.221265)
(-0.0109896 0.00230218 0.106365)
(-0.00705934 -0.0112492 0.157896)
(0.00224421 -0.00191093 0.204418)
(-0.00837048 -0.00825296 0.239186)
(0.0144597 -0.0684288 -0.213018)
(-0.0330394 0.0103635 0.113447)
(-0.00856187 -0.0101831 0.19931)
(-0.0553197 0.00135604 0.221254)
(-0.068415 0.0147132 -0.21299)
(-0.208485 -0.208211 -2.11236)
(4.15218e-05 -3.01312e-06 0.119088)
(0.0148048 0.01778 0.13408)
(0.0166444 0.0184122 0.145253)
(0.0203244 0.0443133 0.159596)
(0.0186785 0.0424623 0.173847)
(0.0178246 0.0147678 0.134079)
(0.0333278 0.0332835 0.154889)
(0.0432849 0.0558934 0.176512)
(0.0447682 0.0858188 0.200113)
(0.0164904 0.134556 0.228043)
(0.01845 0.0165799 0.145249)
(0.0559305 0.0432258 0.176498)
(0.0693754 0.06931 0.218229)
(0.0999018 0.161042 0.27063)
(0.061885 0.223365 0.33573)
(0.0443632 0.0202857 0.159594)
(0.085862 0.0447063 0.200102)
(0.161103 0.0998523 0.270666)
(0.149278 0.149198 0.280977)
(0.0989108 0.258473 0.0798075)
(0.042477 0.0185911 0.17383)
(0.134581 0.0164153 0.227995)
(0.223416 0.0617873 0.33572)
(0.258538 0.0987642 0.0797894)
(0.117743 0.117632 -0.576076)
(0.00290565 0.00286213 0.0235245)
(0.0233417 0.0153407 0.0334838)
(0.0270409 0.0177518 0.0361552)
(0.0311537 0.0338342 0.0453343)
(0.0256158 0.0281527 0.0452414)
(0.0153843 0.0233074 0.0334889)
(0.0377009 0.0376664 0.0420618)
(0.0447763 0.0700472 0.0517651)
(0.0409033 0.102671 0.0549268)
(0.0187672 0.167718 0.063587)
(0.0177956 0.026996 0.0361543)
(0.0700814 0.0447387 0.051762)
(0.0919985 0.0919576 0.0608456)
(0.130725 0.150991 0.0825712)
(0.09146 0.218136 0.0739309)
(0.0338855 0.0311275 0.0453493)
(0.102709 0.0408741 0.0549357)
(0.151032 0.130698 0.0825889)
(0.282926 0.282874 0.0683281)
(0.29547 0.625767 -0.357201)
(0.0281941 0.0255726 0.0452341)
(0.167752 0.0187345 0.0635928)
(0.218149 0.0914204 0.0739321)
(0.625784 0.295409 -0.357157)
(1.19995 1.19987 -2.58728)
(0.011181 0.0111415 0.0971211)
(0.0272284 0.0283288 0.106122)
(0.0282422 0.0369998 0.10404)
(0.0291517 0.0583389 0.110272)
(0.0189174 0.0673109 0.104395)
(0.0283683 0.0271904 0.106127)
(0.0514245 0.0513824 0.115734)
(0.0559418 0.0802216 0.117835)
(0.0563071 0.12193 0.123615)
(0.0250475 0.170361 0.125929)