/*--------------------------------*- C++ -*----------------------------------*\
| =========                 |                                                 |
| \\      /  F ield         | OpenFOAM: The Open Source CFD Toolbox           |
|  \\    /   O peration     | Version:  5.x                                   |
|   \\  /    A nd           | Web:      www.OpenFOAM.org                      |
|    \\/     M anipulation  |                                                 |
\*---------------------------------------------------------------------------*/
FoamFile
{
    version     2.0;
    format      ascii;
    class       volScalarField;
    location    "0.03";
    object      Ksl;
}
// * * * * * * * * * * * * * * * * * * * * * * * * * * * * * * * * * * * * * //

dimensions      [1 -3 -1 0 0 0 0];

internalField   nonuniform List<scalar> 
160
(
0.669045
2.09861
1.14802
0.284308
0.106868
0.415563
0.251112
0.0396509
0.0016722
0.00979723
0.00615114
0.000693818
0.000155811
0.000495997
0.000283865
0
0
0
0
0
0
0
0
0
0
0
0
0
0
0
0
0
0
0
0
0
0
0
0
0
2.09861
3.11574
1.50751
1.11737
0.415563
3.06966
2.26114
0.242244
0.00979723
0.128243
0.0631131
0.00593033
0.000495997
0.00226069
0.00132528
0.000272122
0
0.00011769
6.71275e-05
0
0
0
0
0
0
0
0
0
0
0
0
0
0
0
0
0
0
0
0
0
1.14802
1.50751
1.01313
0.679902
0.251112
2.26114
0.97788
0.135311
0.00615114
0.0631131
0.0440003
0.003318
0.000283865
0.00132528
0.000799627
0.000175237
0
6.71275e-05
4.29829e-05
0
0
0
0
0
0
0
0
0
0
0
0
0
0
0
0
0
0
0
0
0
0.284308
1.11737
0.679902
0.217804
0.0396509
0.242244
0.135311
0.0322361
0.000693818
0.00593033
0.003318
0.000524812
5.36699e-05
0.000272123
0.000175237
0
0
0
0
0
0
0
0
0
0
0
0
0
0
0
0
0
0
0
0
0
0
0
0
0
)
;

boundaryField
{
    inlet
    {
        type            zeroGradient;
    }
    outlet
    {
        type            zeroGradient;
    }
    walls
    {
        type            zeroGradient;
    }
    procBoundary1to0
    {
        type            processor;
        value           nonuniform List<scalar> 
16
(
2.77249
3.12806
1.50767
1.33784
3.12806
3.16384
1.49595
1.47926
1.50767
1.49595
1.00103
1.00326
1.33784
1.47926
1.00326
0.895028
)
;
    }
}


// ************************************************************************* //
