/*--------------------------------*- C++ -*----------------------------------*\
| =========                 |                                                 |
| \\      /  F ield         | OpenFOAM: The Open Source CFD Toolbox           |
|  \\    /   O peration     | Version:  5.x                                   |
|   \\  /    A nd           | Web:      www.OpenFOAM.org                      |
|    \\/     M anipulation  |                                                 |
\*---------------------------------------------------------------------------*/
FoamFile
{
    version     2.0;
    format      ascii;
    class       volScalarField;
    location    "0.03";
    object      p;
}
// * * * * * * * * * * * * * * * * * * * * * * * * * * * * * * * * * * * * * //

dimensions      [0 2 -2 0 0 0 0];

internalField   nonuniform List<scalar> 
160
(
-1.91967e-06
-3.52351e-06
-3.36309e-06
-1.24924e-06
-1.59609e-06
-1.69882e-06
-1.57404e-06
-1.1906e-06
-1.80222e-06
-2.0756e-06
-2.09168e-06
-1.47848e-06
-1.65877e-06
-1.67974e-06
-1.64582e-06
-1.43502e-06
-1.66108e-06
-1.70456e-06
-1.6791e-06
-1.52231e-06
-1.60479e-06
-1.60517e-06
-1.58658e-06
-1.52476e-06
-1.58397e-06
-1.58945e-06
-1.57497e-06
-1.53899e-06
-1.56798e-06
-1.56858e-06
-1.56018e-06
-1.54361e-06
-1.55941e-06
-1.55967e-06
-1.55467e-06
-1.54622e-06
-1.55539e-06
-1.55494e-06
-1.55186e-06
-1.54754e-06
-3.52351e-06
-2.01073e-05
-1.3372e-05
-2.75118e-06
-1.69882e-06
-3.59869e-06
-2.54834e-06
-1.28643e-06
-2.0756e-06
-3.74838e-06
-3.29451e-06
-1.91431e-06
-1.67974e-06
-2.02361e-06
-1.8793e-06
-1.47812e-06
-1.70456e-06
-1.88252e-06
-1.81429e-06
-1.60093e-06
-1.60517e-06
-1.674e-06
-1.63689e-06
-1.54419e-06
-1.58945e-06
-1.61253e-06
-1.59322e-06
-1.5515e-06
-1.56858e-06
-1.57688e-06
-1.5675e-06
-1.54815e-06
-1.55967e-06
-1.56234e-06
-1.55731e-06
-1.54802e-06
-1.55494e-06
-1.55528e-06
-1.55232e-06
-1.54787e-06
-3.36309e-06
-1.3372e-05
-1.35202e-05
-1.62189e-06
-1.57404e-06
-2.54834e-06
-2.13742e-06
-9.5935e-07
-2.09168e-06
-3.29451e-06
-3.45252e-06
-1.71518e-06
-1.64582e-06
-1.8793e-06
-1.84874e-06
-1.33137e-06
-1.6791e-06
-1.81429e-06
-1.79461e-06
-1.53803e-06
-1.58658e-06
-1.63689e-06
-1.61791e-06
-1.506e-06
-1.57497e-06
-1.59322e-06
-1.58001e-06
-1.53369e-06
-1.56018e-06
-1.5675e-06
-1.55951e-06
-1.53913e-06
-1.55467e-06
-1.55731e-06
-1.55282e-06
-1.54349e-06
-1.55186e-06
-1.55232e-06
-1.54958e-06
-1.54523e-06
-1.24924e-06
-2.75118e-06
-1.62189e-06
-9.94194e-07
-1.1906e-06
-1.28643e-06
-9.5935e-07
-9.73724e-07
-1.47848e-06
-1.91431e-06
-1.71518e-06
-1.33639e-06
-1.43502e-06
-1.47812e-06
-1.33137e-06
-1.2899e-06
-1.52231e-06
-1.60093e-06
-1.53803e-06
-1.43489e-06
-1.52476e-06
-1.54419e-06
-1.506e-06
-1.46943e-06
-1.53899e-06
-1.5515e-06
-1.53369e-06
-1.50783e-06
-1.54361e-06
-1.54815e-06
-1.53913e-06
-1.52627e-06
-1.54622e-06
-1.54802e-06
-1.54349e-06
-1.53674e-06
-1.54754e-06
-1.54787e-06
-1.54523e-06
-1.54161e-06
)
;

boundaryField
{
    inlet
    {
        type            zeroGradient;
    }
    outlet
    {
        type            totalPressure;
        rho             rho;
        psi             none;
        gamma           1;
        p0              nonuniform 0();
        value           nonuniform 0();
    }
    walls
    {
        type            zeroGradient;
    }
    procBoundary1to0
    {
        type            processor;
        value           nonuniform List<scalar> 
16
(
-7.8213e-07
-7.83872e-07
-7.83741e-07
-7.81555e-07
-7.83872e-07
-7.88597e-07
-7.85931e-07
-7.83701e-07
-7.83741e-07
-7.85931e-07
-7.88743e-07
-7.83937e-07
-7.81555e-07
-7.83701e-07
-7.83937e-07
-7.82081e-07
)
;
    }
}


// ************************************************************************* //
