/*--------------------------------*- C++ -*----------------------------------*\
| =========                 |                                                 |
| \\      /  F ield         | OpenFOAM: The Open Source CFD Toolbox           |
|  \\    /   O peration     | Version:  5.x                                   |
|   \\  /    A nd           | Web:      www.OpenFOAM.org                      |
|    \\/     M anipulation  |                                                 |
\*---------------------------------------------------------------------------*/
FoamFile
{
    version     2.0;
    format      ascii;
    class       surfaceScalarField;
    location    "0.03";
    object      phi;
}
// * * * * * * * * * * * * * * * * * * * * * * * * * * * * * * * * * * * * * //

dimensions      [0 3 -1 0 0 0 0];

internalField   nonuniform List<scalar> 
384
(
4.20519e-11
1.01998e-11
4.20519e-11
2.17719e-12
-1.56625e-12
3.45109e-10
-4.70809e-11
-2.46449e-12
3.13313e-10
1.13136e-11
4.48188e-11
5.2758e-12
8.09407e-12
5.2758e-12
-1.45563e-13
-4.30651e-12
4.84235e-11
-8.10195e-12
-5.94608e-12
4.28964e-11
9.36583e-12
6.38953e-12
1.07251e-11
2.67398e-12
1.07251e-11
3.55113e-13
-2.04614e-12
3.82497e-11
-1.26849e-11
-3.33217e-12
3.48079e-11
3.55997e-12
1.23227e-11
2.28996e-12
1.71493e-12
2.28996e-12
1.21623e-13
-1.97131e-12
1.10775e-11
-3.31416e-12
-2.45118e-12
9.9782e-12
2.30329e-12
3.12293e-12
2.25064e-12
6.72922e-13
2.25064e-12
-6.02569e-15
-7.39093e-13
4.90329e-12
-2.63574e-12
-1.00707e-12
4.53226e-12
9.63284e-13
2.58757e-12
7.41263e-13
3.8531e-13
7.41263e-13
2.6279e-14
-4.8817e-13
2.05465e-12
-9.14925e-13
-5.39573e-13
1.88553e-12
5.09889e-13
9.80483e-13
4.55355e-13
1.83849e-13
4.55355e-13
2.55763e-15
-2.10916e-13
7.98686e-13
-4.92708e-13
-2.28416e-13
7.61107e-13
2.30114e-13
5.31654e-13
2.02881e-13
9.65452e-14
2.02881e-13
1.04918e-14
-9.74384e-14
3.38251e-13
-2.01169e-13
-9.83572e-14
3.27603e-13
1.06451e-13
2.45611e-13
1.02032e-13
4.93325e-14
1.02032e-13
8.49328e-15
-3.893e-14
1.46007e-13
-8.69892e-14
-3.96466e-14
1.44824e-13
4.68667e-14
1.17654e-13
4.69348e-14
4.69348e-14
6.12348e-15
5.9352e-14
-3.3685e-14
6.01499e-14
5.34949e-14
3.45109e-10
-1.56625e-12
2.17719e-12
-5.52881e-11
-2.36292e-10
-5.52881e-11
-3.12208e-10
-1.74108e-10
4.09936e-11
-1.60412e-12
-6.48358e-12
4.84235e-11
-4.30651e-12
-1.45563e-13
-7.39878e-12
-1.24647e-10
-7.39878e-12
-4.42263e-11
-9.67619e-11
2.37801e-12
-5.24627e-12
-2.33501e-12
3.82497e-11
-2.04614e-12
3.55113e-13
-3.7201e-12
-4.07078e-11
-3.7201e-12
-3.51747e-11
-3.36769e-11
3.1775e-12
-2.98739e-12
-1.03492e-12
1.10775e-11
-1.97131e-12
1.21623e-13
-6.30678e-13
-1.72915e-11
-6.30677e-13
-1.01705e-11
-1.47018e-11
5.42937e-13
-2.32239e-12
-5.65021e-13
4.90329e-12
-7.39094e-13
-6.02562e-15
-2.87899e-13
-6.90912e-12
-2.87899e-13
-4.5994e-12
-6.07223e-12
2.14135e-13
-1.04683e-12
-1.09562e-13
2.05465e-12
-4.8817e-13
2.62791e-14
-2.94009e-14
-2.74103e-12
-2.94009e-14
-1.82307e-12
-2.46336e-12
7.03328e-14
-5.79016e-13
-5.16715e-14
7.98686e-13
-2.10916e-13
2.55765e-15
-1.36102e-14
-1.11644e-12
-1.36102e-14
-7.22778e-13
-1.02458e-12
3.1506e-14
-2.72975e-13
6.65802e-16
3.38251e-13
-9.74384e-14
1.04918e-14
7.48689e-15
-4.54895e-13
7.4869e-15
-2.82157e-13
-4.27782e-13
2.04521e-14
-1.26888e-13
9.71623e-15
1.46007e-13
-3.893e-14
8.49328e-15
9.30978e-15
-1.81486e-13
9.30979e-15
-1.12823e-13
-1.75148e-13
1.43279e-14
-5.77574e-14
1.21373e-14
5.9352e-14
6.12349e-15
7.42245e-15
7.42245e-15
-3.93524e-14
9.63537e-15
9.42403e-15
3.13313e-10
-2.46449e-12
-4.70809e-11
4.09936e-11
-1.74108e-10
-3.12208e-10
-3.37399e-10
-2.24472e-10
-3.37399e-10
1.05582e-12
-3.95805e-11
4.28964e-11
-5.94608e-12
-8.10195e-12
2.37801e-12
-9.67619e-11
-4.42263e-11
-4.76763e-11
-1.24363e-10
-4.76763e-11
-2.60872e-12
-4.98858e-12
3.48079e-11
-3.33217e-12
-1.26849e-11
3.1775e-12
-3.36769e-11
-3.51747e-11
-3.85579e-11
-4.08924e-11
-3.85579e-11
-9.31316e-13
-1.12755e-11
9.9782e-12
-2.45118e-12
-3.31416e-12
5.42937e-13
-1.47018e-11
-1.01705e-11
-1.13748e-11
-1.7057e-11
-1.13748e-11
-1.51289e-12
-2.59773e-12
4.53226e-12
-1.00707e-12
-2.63574e-12
2.14135e-13
-6.07223e-12
-4.5994e-12
-4.9562e-12
-6.71629e-12
-4.9562e-12
-6.19785e-13
-2.27303e-12
1.88553e-12
-5.39573e-13
-9.14925e-13
7.03327e-14
-2.46336e-12
-1.82307e-12
-1.97604e-12
-2.62353e-12
-1.97604e-12
-4.21278e-13
-8.05243e-13
7.61107e-13
-2.28416e-13
-4.92708e-13
3.15059e-14
-1.02458e-12
-7.22778e-13
-7.53045e-13
-1.05442e-12
-7.53045e-13
-2.11217e-13
-4.25462e-13
3.27603e-13
-9.83572e-14
-2.01169e-13
2.04521e-14
-4.27782e-13
-2.82157e-13
-2.89931e-13
-4.33658e-13
-2.89931e-13
-1.08549e-13
-1.80049e-13
1.44824e-13
-3.96466e-14
-8.69892e-14
1.43279e-14
-1.75148e-13
-1.12823e-13
-1.13651e-13
-1.77695e-13
-1.13651e-13
-5.43811e-14
-7.68407e-14
6.01499e-14
-3.3685e-14
9.63537e-15
-3.93524e-14
-3.85638e-14
-3.85638e-14
-2.95118e-14
4.48188e-11
1.13136e-11
-6.48358e-12
-1.60412e-12
-3.95805e-11
1.05582e-12
1.14031e-11
6.38953e-12
9.36583e-12
-2.33501e-12
-5.24627e-12
-4.98858e-12
-2.60872e-12
9.95939e-12
1.23227e-11
3.55997e-12
-1.03492e-12
-2.98739e-12
-1.12755e-11
-9.31316e-13
3.59571e-12
3.12292e-12
2.30329e-12
-5.65021e-13
-2.32239e-12
-2.59773e-12
-1.51289e-12
2.25896e-12
2.58757e-12
9.63284e-13
-1.09562e-13
-1.04683e-12
-2.27303e-12
-6.19785e-13
9.24068e-13
9.80483e-13
5.09889e-13
-5.16716e-14
-5.79016e-13
-8.05243e-13
-4.21278e-13
4.47139e-13
5.31654e-13
2.30114e-13
6.65787e-16
-2.72975e-13
-4.25462e-13
-2.11217e-13
1.8448e-13
2.45611e-13
1.06451e-13
9.71622e-15
-1.26888e-13
-1.80049e-13
-1.08549e-13
7.24037e-14
1.17654e-13
4.68667e-14
1.21373e-14
-5.77574e-14
-7.68407e-14
-5.43811e-14
2.39924e-14
5.34949e-14
9.42402e-15
-2.95118e-14
)
;

boundaryField
{
    inlet
    {
        type            calculated;
        value           nonuniform List<scalar> 
16
(
2.77271e-14
-1.2733e-14
-1.54573e-14
1.99491e-14
-1.2733e-14
-7.76184e-14
-7.78516e-14
-2.7314e-14
-1.54573e-14
-7.78516e-14
-8.12858e-14
-2.82312e-14
1.99491e-14
-2.73139e-14
-2.82312e-14
4.27761e-15
)
;
    }
    outlet
    {
        type            calculated;
        value           nonuniform 0();
    }
    walls
    {
        type            calculated;
        value           nonuniform List<scalar> 
160
(
-2.98145e-11
-4.22294e-12
-8.01502e-12
-1.81043e-12
-1.72964e-12
-5.97457e-13
-3.54633e-13
-1.59233e-13
-7.84216e-14
-3.61275e-14
-2.74298e-10
-4.02618e-11
-3.01401e-11
-8.98397e-12
-3.87885e-12
-1.59061e-12
-6.23149e-13
-2.59329e-13
-1.10961e-13
-4.47245e-14
-2.10367e-10
-3.14584e-11
-2.43818e-11
-7.4234e-12
-3.34666e-12
-1.41183e-12
-5.76997e-13
-2.45992e-13
-1.08044e-13
-4.45251e-14
-3.6227e-11
-6.04781e-12
-9.73467e-12
-2.71528e-12
-2.02224e-12
-7.94025e-13
-4.10495e-13
-1.87678e-13
-8.79154e-14
-3.92554e-14
-3.65252e-11
-6.49584e-12
-9.46707e-12
-2.46512e-12
-1.86108e-12
-6.4799e-13
-3.34088e-13
-1.35438e-13
-5.71408e-14
-2.10028e-14
-2.10501e-10
-3.18595e-11
-2.40759e-11
-7.14756e-12
-3.17782e-12
-1.25873e-12
-4.97829e-13
-1.92347e-13
-7.6432e-14
-2.57183e-14
-2.8123e-10
-4.13581e-11
-2.99947e-11
-8.76048e-12
-3.68584e-12
-1.42097e-12
-5.36976e-13
-2.02831e-13
-7.88317e-14
-2.57696e-14
-3.03565e-11
-4.26675e-12
-8.09369e-12
-1.92935e-12
-1.60558e-12
-5.66778e-13
-2.94132e-13
-1.24008e-13
-5.26305e-14
-1.96543e-14
-2.98145e-11
-4.22294e-12
-8.01502e-12
-1.81043e-12
-1.72964e-12
-5.97457e-13
-3.54633e-13
-1.59233e-13
-7.84216e-14
-3.61275e-14
-2.74298e-10
-4.02618e-11
-3.01401e-11
-8.98397e-12
-3.87885e-12
-1.59061e-12
-6.23149e-13
-2.59329e-13
-1.10961e-13
-4.47245e-14
-2.10367e-10
-3.14584e-11
-2.43818e-11
-7.4234e-12
-3.34666e-12
-1.41183e-12
-5.76997e-13
-2.45992e-13
-1.08044e-13
-4.45251e-14
-3.6227e-11
-6.04781e-12
-9.73467e-12
-2.71528e-12
-2.02224e-12
-7.94025e-13
-4.10495e-13
-1.87678e-13
-8.79154e-14
-3.92554e-14
-3.65252e-11
-6.49584e-12
-9.46707e-12
-2.46512e-12
-1.86108e-12
-6.4799e-13
-3.34088e-13
-1.35438e-13
-5.71408e-14
-2.10028e-14
-2.10501e-10
-3.18595e-11
-2.40759e-11
-7.14756e-12
-3.17782e-12
-1.25873e-12
-4.97829e-13
-1.92347e-13
-7.6432e-14
-2.57183e-14
-2.8123e-10
-4.13581e-11
-2.99947e-11
-8.76048e-12
-3.68584e-12
-1.42097e-12
-5.36976e-13
-2.02831e-13
-7.88317e-14
-2.57696e-14
-3.03565e-11
-4.26675e-12
-8.09369e-12
-1.92935e-12
-1.60558e-12
-5.66778e-13
-2.94132e-13
-1.24008e-13
-5.26305e-14
-1.96543e-14
)
;
    }
    procBoundary1to0
    {
        type            processor;
        value           nonuniform List<scalar> 
16
(
-3.46748e-11
-2.93706e-11
-5.12231e-11
-3.0461e-11
-2.93706e-11
1.03709e-09
7.03347e-10
-4.88008e-11
-5.12231e-11
7.03347e-10
9.81258e-10
-2.41279e-11
-3.0461e-11
-4.88008e-11
-2.41279e-11
-2.9851e-11
)
;
    }
}


// ************************************************************************* //
