/*--------------------------------*- C++ -*----------------------------------*\
| =========                 |                                                 |
| \\      /  F ield         | OpenFOAM: The Open Source CFD Toolbox           |
|  \\    /   O peration     | Version:  5.x                                   |
|   \\  /    A nd           | Web:      www.OpenFOAM.org                      |
|    \\/     M anipulation  |                                                 |
\*---------------------------------------------------------------------------*/
FoamFile
{
    version     2.0;
    format      ascii;
    class       volVectorField;
    location    "0.03";
    object      U;
}
// * * * * * * * * * * * * * * * * * * * * * * * * * * * * * * * * * * * * * //

dimensions      [0 1 -1 0 0 0 0];

internalField   nonuniform List<vector> 
160
(
(5.08701e-06 3.34064e-06 5.08701e-06)
(5.95339e-06 3.64031e-06 4.71669e-05)
(-5.53973e-06 3.98513e-06 3.56381e-05)
(-6.26145e-06 3.09898e-06 6.09291e-06)
(6.95955e-07 9.91584e-07 6.95955e-07)
(8.9954e-07 -2.80717e-06 6.81764e-06)
(-9.72848e-07 -3.45557e-06 5.22604e-06)
(-1.11505e-06 1.22956e-06 9.86574e-07)
(1.33639e-06 9.74571e-07 1.33639e-06)
(1.50378e-06 5.95429e-07 5.15327e-06)
(-1.50537e-06 4.86161e-07 4.139e-06)
(-1.63582e-06 1.1474e-06 1.64361e-06)
(2.93811e-07 1.63893e-07 2.93811e-07)
(3.70349e-07 -8.94984e-07 1.50545e-06)
(-3.81057e-07 -1.03425e-06 1.23392e-06)
(-4.36046e-07 2.84666e-07 4.42955e-07)
(2.85328e-07 2.20873e-07 2.85328e-07)
(3.00198e-07 2.34961e-08 6.55815e-07)
(-3.21842e-07 -3.47578e-08 5.62205e-07)
(-3.28734e-07 2.86738e-07 3.39084e-07)
(9.56687e-08 5.52301e-08 9.56687e-08)
(1.06182e-07 -1.72802e-07 2.6811e-07)
(-1.10312e-07 -1.83385e-07 2.35843e-07)
(-1.15888e-07 8.61421e-08 1.30882e-07)
(5.78233e-08 4.10298e-08 5.78233e-08)
(5.9113e-08 -2.92937e-08 1.04269e-07)
(-6.11848e-08 -3.65938e-08 9.59292e-08)
(-6.0558e-08 5.51821e-08 6.81481e-08)
(2.55947e-08 1.84379e-08 2.55947e-08)
(2.6843e-08 -2.67616e-08 4.31348e-08)
(-2.4653e-08 -2.64737e-08 4.08047e-08)
(-2.49435e-08 2.35055e-08 3.09247e-08)
(1.25998e-08 1.01789e-08 1.25998e-08)
(1.34036e-08 -9.47749e-09 1.82816e-08)
(-1.04555e-08 -9.73779e-09 1.78092e-08)
(-1.08115e-08 1.10238e-08 1.44217e-08)
(5.69209e-09 3.644e-09 5.69209e-09)
(6.18009e-09 -2.97169e-09 7.2239e-09)
(-3.88502e-09 -3.02907e-09 7.2152e-09)
(-4.21204e-09 3.45162e-09 6.34656e-09)
(4.71669e-05 3.64031e-06 5.95339e-06)
(3.66937e-05 -3.79979e-06 3.66937e-05)
(-4.70335e-05 -1.13241e-06 4.66002e-05)
(-3.57805e-05 3.8597e-06 5.08453e-06)
(6.81764e-06 -2.80717e-06 8.9954e-07)
(5.4554e-06 -4.59367e-05 5.4554e-06)
(-6.84647e-06 -3.5878e-05 6.42997e-06)
(-5.34711e-06 -3.28225e-06 6.4389e-07)
(5.15327e-06 5.95429e-07 1.50378e-06)
(4.31269e-06 -4.82605e-06 4.31269e-06)
(-5.02981e-06 -3.59905e-06 4.96134e-06)
(-4.12512e-06 6.20802e-07 1.43143e-06)
(1.50545e-06 -8.94984e-07 3.70349e-07)
(1.31907e-06 -5.4883e-06 1.31907e-06)
(-1.44943e-06 -4.69385e-06 1.42129e-06)
(-1.22296e-06 -1.03334e-06 3.40866e-07)
(6.55815e-07 2.34961e-08 3.00198e-07)
(5.75351e-07 -1.24167e-06 5.75351e-07)
(-6.35747e-07 -1.05836e-06 6.16754e-07)
(-5.50651e-07 -2.75191e-08 3.04499e-07)
(2.6811e-07 -1.72802e-07 1.06182e-07)
(2.47189e-07 -7.35437e-07 2.47189e-07)
(-2.46623e-07 -6.59525e-07 2.49964e-07)
(-2.19731e-07 -1.86672e-07 1.14453e-07)
(1.04269e-07 -2.92937e-08 5.9113e-08)
(9.68952e-08 -2.59513e-07 9.68952e-08)
(-9.60705e-08 -2.36725e-07 9.9297e-08)
(-8.79046e-08 -4.59866e-08 6.45407e-08)
(4.31348e-08 -2.67616e-08 2.6843e-08)
(4.20793e-08 -1.1431e-07 4.20793e-08)
(-3.62804e-08 -1.06179e-07 4.25034e-08)
(-3.46026e-08 -3.06364e-08 3.06333e-08)
(1.82816e-08 -9.47749e-09 1.34036e-08)
(1.85818e-08 -4.58317e-08 1.85818e-08)
(-1.39118e-08 -4.38282e-08 1.89408e-08)
(-1.40671e-08 -1.3553e-08 1.5136e-08)
(7.2239e-09 -2.97169e-09 6.18009e-09)
(7.73456e-09 -1.38146e-08 7.73456e-09)
(-4.55102e-09 -1.34438e-08 7.97774e-09)
(-4.99324e-09 -4.39951e-09 7.06406e-09)
(3.56381e-05 3.98513e-06 -5.53973e-06)
(4.66002e-05 -1.13241e-06 -4.70335e-05)
(-3.71586e-05 -3.63411e-06 -3.71586e-05)
(-4.73499e-05 3.34136e-06 -6.1383e-06)
(5.22604e-06 -3.45557e-06 -9.72848e-07)
(6.42997e-06 -3.5878e-05 -6.84647e-06)
(-5.78292e-06 -4.57284e-05 -5.78292e-06)
(-6.8503e-06 -2.42739e-06 -1.08606e-06)
(4.139e-06 4.86161e-07 -1.50537e-06)
(4.96134e-06 -3.59905e-06 -5.02981e-06)
(-4.38339e-06 -4.57073e-06 -4.38339e-06)
(-5.14277e-06 8.8367e-07 -1.61911e-06)
(1.23392e-06 -1.03425e-06 -3.81057e-07)
(1.42129e-06 -4.69385e-06 -1.44943e-06)
(-1.35634e-06 -5.43592e-06 -1.35634e-06)
(-1.50401e-06 -8.39498e-07 -4.41076e-07)
(5.62205e-07 -3.47578e-08 -3.21842e-07)
(6.16754e-07 -1.05836e-06 -6.35747e-07)
(-5.90872e-07 -1.21565e-06 -5.90872e-07)
(-6.40482e-07 6.73213e-08 -3.19528e-07)
(2.35843e-07 -1.83385e-07 -1.10312e-07)
(2.49964e-07 -6.59525e-07 -2.46623e-07)
(-2.41528e-07 -7.08863e-07 -2.41528e-07)
(-2.49489e-07 -1.52399e-07 -1.19271e-07)
(9.59292e-08 -3.65938e-08 -6.11848e-08)
(9.9297e-08 -2.36725e-07 -9.60705e-08)
(-9.26702e-08 -2.46487e-07 -9.26702e-08)
(-9.50781e-08 -2.76541e-08 -5.75461e-08)
(4.08047e-08 -2.64737e-08 -2.4653e-08)
(4.25034e-08 -1.06179e-07 -3.62804e-08)
(-3.55135e-08 -1.07996e-07 -3.55135e-08)
(-3.64847e-08 -2.55214e-08 -2.3556e-08)
(1.78092e-08 -9.73779e-09 -1.04555e-08)
(1.89408e-08 -4.38282e-08 -1.39118e-08)
(-1.35313e-08 -4.43379e-08 -1.35312e-08)
(-1.44579e-08 -1.20626e-08 -9.41765e-09)
(7.2152e-09 -3.02907e-09 -3.88502e-09)
(7.97774e-09 -1.34438e-08 -4.55102e-09)
(-4.32264e-09 -1.36473e-08 -4.32264e-09)
(-4.98062e-09 -4.17312e-09 -3.28187e-09)
(6.09291e-06 3.09898e-06 -6.26145e-06)
(5.08453e-06 3.8597e-06 -3.57805e-05)
(-6.1383e-06 3.34136e-06 -4.73499e-05)
(-4.98099e-06 3.02525e-06 -4.98099e-06)
(9.86574e-07 1.22956e-06 -1.11505e-06)
(6.4389e-07 -3.28225e-06 -5.34711e-06)
(-1.08606e-06 -2.42739e-06 -6.8503e-06)
(-6.79842e-07 1.23612e-06 -6.79842e-07)
(1.64361e-06 1.1474e-06 -1.63582e-06)
(1.43143e-06 6.20802e-07 -4.12512e-06)
(-1.61911e-06 8.8367e-07 -5.14277e-06)
(-1.36979e-06 1.22575e-06 -1.36979e-06)
(4.42955e-07 2.84666e-07 -4.36046e-07)
(3.40866e-07 -1.03334e-06 -1.22296e-06)
(-4.41076e-07 -8.39498e-07 -1.50401e-06)
(-3.16884e-07 2.64054e-07 -3.16884e-07)
(3.39084e-07 2.86737e-07 -3.28734e-07)
(3.04499e-07 -2.75191e-08 -5.50651e-07)
(-3.19528e-07 6.73213e-08 -6.40482e-07)
(-2.7726e-07 2.87739e-07 -2.7726e-07)
(1.30882e-07 8.6142e-08 -1.15888e-07)
(1.14453e-07 -1.86672e-07 -2.19731e-07)
(-1.19271e-07 -1.52399e-07 -2.49489e-07)
(-9.79062e-08 7.45637e-08 -9.79062e-08)
(6.81481e-08 5.51821e-08 -6.0558e-08)
(6.45407e-08 -4.59866e-08 -8.79046e-08)
(-5.75461e-08 -2.76541e-08 -9.50781e-08)
(-5.21672e-08 4.91816e-08 -5.21672e-08)
(3.09247e-08 2.35055e-08 -2.49435e-08)
(3.06333e-08 -3.06364e-08 -3.46026e-08)
(-2.3556e-08 -2.55214e-08 -3.64847e-08)
(-2.23809e-08 1.74259e-08 -2.23809e-08)
(1.44217e-08 1.10238e-08 -1.08115e-08)
(1.5136e-08 -1.3553e-08 -1.40671e-08)
(-9.41765e-09 -1.20626e-08 -1.44579e-08)
(-9.75497e-09 6.67327e-09 -9.75497e-09)
(6.34656e-09 3.45162e-09 -4.21204e-09)
(7.06406e-09 -4.39951e-09 -4.99324e-09)
(-3.28187e-09 -4.17312e-09 -4.98062e-09)
(-3.85857e-09 1.64586e-09 -3.85857e-09)
)
;

boundaryField
{
    inlet
    {
        type            fixedValue;
        value           uniform (0 0 0);
    }
    outlet
    {
        type            zeroGradient;
    }
    walls
    {
        type            fixedValue;
        value           uniform (0 0 0);
    }
    procBoundary1to0
    {
        type            processor;
        value           nonuniform List<vector> 
16
(
(2.49042e-09 6.14343e-06 2.49042e-09)
(2.31626e-09 2.60518e-06 5.78497e-09)
(-3.10822e-09 8.34064e-06 2.14266e-09)
(-2.738e-09 5.54535e-06 2.85385e-09)
(5.78497e-09 2.60518e-06 2.31626e-09)
(1.93547e-08 -0.000361828 1.93547e-08)
(-2.15055e-08 -0.000249884 2.17894e-08)
(-1.96526e-09 8.03072e-06 3.2451e-09)
(2.14266e-09 8.34064e-06 -3.10822e-09)
(2.17894e-08 -0.000249884 -2.15055e-08)
(-1.94223e-08 -0.000342481 -1.94223e-08)
(-5.63044e-09 2.15569e-06 -2.24e-09)
(2.85385e-09 5.54535e-06 -2.738e-09)
(3.2451e-09 8.03072e-06 -1.96526e-09)
(-2.24e-09 2.15569e-06 -5.63044e-09)
(-2.46739e-09 5.46299e-06 -2.46739e-09)
)
;
    }
}


// ************************************************************************* //
