/*--------------------------------*- C++ -*----------------------------------*\
| =========                 |                                                 |
| \\      /  F ield         | OpenFOAM: The Open Source CFD Toolbox           |
|  \\    /   O peration     | Version:  5.x                                   |
|   \\  /    A nd           | Web:      www.OpenFOAM.org                      |
|    \\/     M anipulation  |                                                 |
\*---------------------------------------------------------------------------*/
FoamFile
{
    version     2.0;
    format      ascii;
    class       volVectorField;
    location    "0.03";
    object      Us;
}
// * * * * * * * * * * * * * * * * * * * * * * * * * * * * * * * * * * * * * //

dimensions      [0 1 -1 0 0 0 0];

internalField   nonuniform List<vector> 
160
(
(7.1043e-15 -1.80698e-06 7.10431e-15)
(1.73907e-13 -4.42333e-05 1.73907e-13)
(1.73938e-13 -4.42413e-05 1.73938e-13)
(7.10561e-15 -1.80732e-06 7.10562e-15)
(1.60895e-16 -4.09237e-08 1.60895e-16)
(3.53924e-15 -9.00206e-07 3.53924e-15)
(3.55414e-15 -9.03997e-07 3.55414e-15)
(1.76817e-16 -4.49734e-08 1.76817e-16)
(3.03669e-18 -7.72385e-10 3.0367e-18)
(6.35305e-17 -1.6159e-08 6.35305e-17)
(6.4337e-17 -1.63642e-08 6.4337e-17)
(3.92355e-18 -9.97956e-10 3.92355e-18)
(5.24994e-20 -1.33532e-11 5.24994e-20)
(1.06586e-18 -2.71102e-10 1.06586e-18)
(1.09028e-18 -2.77314e-10 1.09028e-18)
(7.97519e-20 -2.02849e-11 7.9752e-20)
(8.61821e-22 -2.19205e-13 8.61822e-22)
(1.7141e-20 -4.35982e-12 1.7141e-20)
(1.77234e-20 -4.50795e-12 1.77234e-20)
(1.52031e-21 -3.86691e-13 1.52031e-21)
(1.36717e-23 -3.47741e-15 1.36717e-23)
(2.67773e-22 -6.81083e-14 2.67773e-22)
(2.79963e-22 -7.12086e-14 2.79963e-22)
(2.76283e-23 -7.02727e-15 2.76283e-23)
(2.11681e-25 -5.3841e-17 2.11681e-25)
(4.09558e-24 -1.04171e-15 4.09558e-24)
(4.33051e-24 -1.10147e-15 4.33051e-24)
(4.84026e-25 -1.23112e-16 4.84026e-25)
(3.21855e-27 -8.18641e-19 3.21856e-27)
(6.16417e-26 -1.56786e-17 6.16418e-26)
(6.59194e-26 -1.67666e-17 6.59194e-26)
(8.23898e-27 -2.09559e-18 8.23898e-27)
(4.82544e-29 -1.22735e-20 4.82544e-29)
(9.16089e-28 -2.33008e-19 9.1609e-28)
(9.9081e-28 -2.52013e-19 9.9081e-28)
(1.37029e-28 -3.48534e-20 1.37029e-28)
(7.30726e-31 -1.8586e-22 7.30726e-31)
(1.36793e-29 -3.47933e-21 1.36793e-29)
(1.49609e-29 -3.80531e-21 1.49609e-29)
(2.27265e-30 -5.7805e-22 2.27265e-30)
(1.73907e-13 -4.42333e-05 1.73907e-13)
(6.38199e-12 -0.00162326 6.382e-12)
(6.38203e-12 -0.00162327 6.38203e-12)
(1.73954e-13 -4.42454e-05 1.73954e-13)
(3.53924e-15 -9.00206e-07 3.53924e-15)
(8.70064e-14 -2.21301e-05 8.70065e-14)
(8.69925e-14 -2.21266e-05 8.69925e-14)
(3.54052e-15 -9.00533e-07 3.54052e-15)
(6.35305e-17 -1.6159e-08 6.35305e-17)
(1.18615e-15 -3.01697e-07 1.18615e-15)
(1.18619e-15 -3.01708e-07 1.18619e-15)
(6.42131e-17 -1.63326e-08 6.42132e-17)
(1.06586e-18 -2.71102e-10 1.06586e-18)
(1.617e-17 -4.11285e-09 1.617e-17)
(1.61795e-17 -4.11528e-09 1.61796e-17)
(1.09305e-18 -2.78017e-10 1.09305e-18)
(1.7141e-20 -4.35982e-12 1.7141e-20)
(2.20427e-19 -5.60656e-11 2.20427e-19)
(2.20754e-19 -5.61489e-11 2.20754e-19)
(1.78735e-20 -4.54614e-12 1.78735e-20)
(2.67773e-22 -6.81083e-14 2.67773e-22)
(3.00465e-21 -7.64235e-13 3.00465e-21)
(3.01281e-21 -7.6631e-13 3.01281e-21)
(2.84278e-22 -7.23063e-14 2.84278e-22)
(4.09558e-24 -1.04171e-15 4.09558e-24)
(4.0954e-23 -1.04167e-14 4.0954e-23)
(4.11289e-23 -1.04612e-14 4.11289e-23)
(4.43068e-24 -1.12695e-15 4.43069e-24)
(6.16417e-26 -1.56786e-17 6.16418e-26)
(5.58169e-25 -1.41971e-16 5.58169e-25)
(5.61597e-25 -1.42843e-16 5.61598e-25)
(6.79953e-26 -1.72946e-17 6.79953e-26)
(9.16089e-28 -2.33008e-19 9.1609e-28)
(7.60678e-27 -1.93479e-18 7.60678e-27)
(7.67006e-27 -1.95088e-18 7.67007e-27)
(1.03085e-27 -2.62197e-19 1.03085e-27)
(1.36793e-29 -3.47933e-21 1.36793e-29)
(1.05074e-28 -2.67255e-20 1.05074e-28)
(1.06208e-28 -2.7014e-20 1.06208e-28)
(1.57058e-29 -3.99478e-21 1.57058e-29)
(1.73938e-13 -4.42413e-05 1.73938e-13)
(6.38203e-12 -0.00162327 6.38203e-12)
(6.382e-12 -0.00162326 6.382e-12)
(1.73939e-13 -4.42415e-05 1.73939e-13)
(3.55414e-15 -9.03997e-07 3.55414e-15)
(8.69925e-14 -2.21266e-05 8.69925e-14)
(8.6977e-14 -2.21227e-05 8.69771e-14)
(3.5548e-15 -9.04166e-07 3.5548e-15)
(6.4337e-17 -1.63642e-08 6.4337e-17)
(1.18619e-15 -3.01708e-07 1.18619e-15)
(1.18581e-15 -3.01611e-07 1.18581e-15)
(6.45958e-17 -1.643e-08 6.45959e-17)
(1.09028e-18 -2.77314e-10 1.09028e-18)
(1.61795e-17 -4.11528e-09 1.61796e-17)
(1.61729e-17 -4.11358e-09 1.61729e-17)
(1.10073e-18 -2.7997e-10 1.10073e-18)
(1.77234e-20 -4.50795e-12 1.77234e-20)
(2.20754e-19 -5.61489e-11 2.20754e-19)
(2.20657e-19 -5.61243e-11 2.20657e-19)
(1.80109e-20 -4.58108e-12 1.80109e-20)
(2.79963e-22 -7.12086e-14 2.79963e-22)
(3.01281e-21 -7.6631e-13 3.01281e-21)
(3.01167e-21 -7.66019e-13 3.01167e-21)
(2.86592e-22 -7.28949e-14 2.86593e-22)
(4.33051e-24 -1.10147e-15 4.33051e-24)
(4.11289e-23 -1.04612e-14 4.11289e-23)
(4.11197e-23 -1.04588e-14 4.11197e-23)
(4.46834e-24 -1.13652e-15 4.46834e-24)
(6.59194e-26 -1.67666e-17 6.59194e-26)
(5.61597e-25 -1.42843e-16 5.61598e-25)
(5.61624e-25 -1.42849e-16 5.61624e-25)
(6.85949e-26 -1.74472e-17 6.8595e-26)
(9.9081e-28 -2.52013e-19 9.9081e-28)
(7.67006e-27 -1.95088e-18 7.67007e-27)
(7.67344e-27 -1.95174e-18 7.67344e-27)
(1.04027e-27 -2.64594e-19 1.04027e-27)
(1.49609e-29 -3.80531e-21 1.49609e-29)
(1.06208e-28 -2.7014e-20 1.06208e-28)
(1.06311e-28 -2.70402e-20 1.06311e-28)
(1.58548e-29 -4.03268e-21 1.58548e-29)
(7.10561e-15 -1.80732e-06 7.10562e-15)
(1.73954e-13 -4.42454e-05 1.73954e-13)
(1.73939e-13 -4.42415e-05 1.73939e-13)
(7.10651e-15 -1.80754e-06 7.10651e-15)
(1.76817e-16 -4.49734e-08 1.76817e-16)
(3.54052e-15 -9.00533e-07 3.54052e-15)
(3.5548e-15 -9.04166e-07 3.5548e-15)
(1.93617e-16 -4.92465e-08 1.93617e-16)
(3.92355e-18 -9.97956e-10 3.92355e-18)
(6.42131e-17 -1.63326e-08 6.42132e-17)
(6.45958e-17 -1.643e-08 6.45959e-17)
(4.39641e-18 -1.11823e-09 4.39642e-18)
(7.97519e-20 -2.02849e-11 7.9752e-20)
(1.09305e-18 -2.78017e-10 1.09305e-18)
(1.10073e-18 -2.7997e-10 1.10073e-18)
(8.9857e-20 -2.28552e-11 8.9857e-20)
(1.52031e-21 -3.86691e-13 1.52031e-21)
(1.78735e-20 -4.54614e-12 1.78735e-20)
(1.80109e-20 -4.58108e-12 1.80109e-20)
(1.71434e-21 -4.36043e-13 1.71434e-21)
(2.76283e-23 -7.02727e-15 2.76283e-23)
(2.84278e-22 -7.23063e-14 2.84278e-22)
(2.86592e-22 -7.28949e-14 2.86593e-22)
(3.11535e-23 -7.92392e-15 3.11536e-23)
(4.84026e-25 -1.23112e-16 4.84026e-25)
(4.43068e-24 -1.12695e-15 4.43069e-24)
(4.46834e-24 -1.13652e-15 4.46834e-24)
(5.45981e-25 -1.38871e-16 5.45981e-25)
(8.23898e-27 -2.09559e-18 8.23898e-27)
(6.79953e-26 -1.72946e-17 6.79953e-26)
(6.85949e-26 -1.74472e-17 6.8595e-26)
(9.30394e-27 -2.36646e-18 9.30395e-27)
(1.37029e-28 -3.48534e-20 1.37029e-28)
(1.03085e-27 -2.62197e-19 1.03085e-27)
(1.04027e-27 -2.64594e-19 1.04027e-27)
(1.55043e-28 -3.94352e-20 1.55043e-28)
(2.27265e-30 -5.7805e-22 2.27265e-30)
(1.57058e-29 -3.99478e-21 1.57058e-29)
(1.58548e-29 -4.03268e-21 1.58548e-29)
(2.57787e-30 -6.55682e-22 2.57787e-30)
)
;

boundaryField
{
    inlet
    {
        type            zeroGradient;
    }
    outlet
    {
        type            zeroGradient;
    }
    walls
    {
        type            zeroGradient;
    }
    procBoundary1to0
    {
        type            processor;
        value           nonuniform List<vector> 
16
(
(1.73921e-13 -4.42369e-05 1.73921e-13)
(6.38203e-12 -0.00162327 6.38203e-12)
(6.38201e-12 -0.00162327 6.38201e-12)
(1.73904e-13 -4.42326e-05 1.73904e-13)
(6.38203e-12 -0.00162327 6.38203e-12)
(4.68245e-10 -0.119098 4.68246e-10)
(4.68245e-10 -0.119098 4.68246e-10)
(6.38201e-12 -0.00162327 6.38201e-12)
(6.38201e-12 -0.00162327 6.38201e-12)
(4.68245e-10 -0.119098 4.68246e-10)
(4.68245e-10 -0.119098 4.68246e-10)
(6.38203e-12 -0.00162327 6.38203e-12)
(1.73904e-13 -4.42326e-05 1.73904e-13)
(6.38201e-12 -0.00162327 6.38201e-12)
(6.38203e-12 -0.00162327 6.38203e-12)
(1.73921e-13 -4.42369e-05 1.73921e-13)
)
;
    }
}


// ************************************************************************* //
