/*--------------------------------*- C++ -*----------------------------------*\
| =========                 |                                                 |
| \\      /  F ield         | OpenFOAM: The Open Source CFD Toolbox           |
|  \\    /   O peration     | Version:  5.x                                   |
|   \\  /    A nd           | Web:      www.OpenFOAM.org                      |
|    \\/     M anipulation  |                                                 |
\*---------------------------------------------------------------------------*/
FoamFile
{
    version     2.0;
    format      ascii;
    class       volScalarField;
    location    "0.03";
    object      Ksl;
}
// * * * * * * * * * * * * * * * * * * * * * * * * * * * * * * * * * * * * * //

dimensions      [1 -3 -1 0 0 0 0];

internalField   nonuniform List<scalar> 
320
(
0
0
0
0
0
0
0
0
0
0
0
0
0
0
0
0
0
0
0
0
0
0.000190263
0.00034502
6.39635e-05
0.000210848
0.00300096
0.0044859
0.000325725
0.00960324
0.203366
0.423947
0.0141803
0.07707
0.600347
0.929448
0.118181
0.552787
0.978913
1.44699
0.825919
0.0770823
0.6005
0.929606
0.118183
0.0096251
0.203595
0.42446
0.0142054
0.000211365
0.00300266
0.00448718
0.000325549
0
0.000190364
0.000345031
0
0
0
0
0
0
0
0
0
0
0
0
0
0
0
0
0
0
0
0
0
0
0
0
0
0
0
0
0
0
0
0
0
0
0
0
0
0
0
0
0
0
0.000141029
0.000143725
0
0.000190263
0.00091515
0.00155765
0.000351419
0.00300096
0.0755896
0.079223
0.00477604
0.203366
1.33861
3.5828
0.442056
0.600347
1.00482
1.49504
0.955683
0.978913
1.00092
1.49587
1.47453
0.6005
1.00478
1.49502
0.955793
0.203595
1.33807
3.58375
0.442435
0.00300266
0.0755673
0.0792055
0.00477491
0.000190364
0.000915075
0.00155721
0.000351051
0
0.000141004
0.00014361
0
0
0
0
0
0
0
0
0
0
0
0
0
0
0
0
0
0
0
0
0
0
0
0
0
0
0
0
0
0
0
0
0
0
0
0
0
0
0.000143725
0.000383379
0
0.00034502
0.00155765
0.00264368
0.000562136
0.0044859
0.079223
0.219746
0.00904231
0.423947
3.5828
4.07086
0.624073
0.929448
1.49504
3.08944
1.83348
1.44699
1.49587
3.16387
3.05185
0.929606
1.49502
3.08932
1.83378
0.42446
3.58375
4.06746
0.624851
0.00448718
0.0792055
0.219675
0.00904011
0.000345031
0.00155721
0.00264294
0.000561736
0
0.00014361
0.000383139
0
0
0
0
0
0
0
0
0
0
0
0
0
0
0
0
0
0
0
0
0
0
0
0
0
0
0
0
0
0
0
0
0
0
0
0
0
0
0
0
0
6.39635e-05
0.000351419
0.000562136
0.000140649
0.000325725
0.00477604
0.00904231
0.000650825
0.0141803
0.442056
0.624073
0.0293987
0.118181
0.955683
1.83348
0.236564
0.825919
1.47453
3.05185
1.71788
0.118183
0.955793
1.83378
0.236599
0.0142054
0.442435
0.624851
0.0294248
0.000325549
0.00477491
0.00904011
0.000650773
6.40546e-05
0.000351051
0.000561736
0.000141267
0
0
0
0
0
0
0
0
0
0
0
0
0
0
0
0
0
0
0
0
0
0
0
0
)
;

boundaryField
{
    inlet
    {
        type            zeroGradient;
    }
    outlet
    {
        type            zeroGradient;
    }
    walls
    {
        type            zeroGradient;
    }
}


// ************************************************************************* //
