/*--------------------------------*- C++ -*----------------------------------*\
| =========                 |                                                 |
| \\      /  F ield         | OpenFOAM: The Open Source CFD Toolbox           |
|  \\    /   O peration     | Version:  5.x                                   |
|   \\  /    A nd           | Web:      www.OpenFOAM.org                      |
|    \\/     M anipulation  |                                                 |
\*---------------------------------------------------------------------------*/
FoamFile
{
    version     2.0;
    format      ascii;
    class       volScalarField;
    location    "0.03";
    object      p;
}
// * * * * * * * * * * * * * * * * * * * * * * * * * * * * * * * * * * * * * //

dimensions      [0 2 -2 0 0 0 0];

internalField   nonuniform List<scalar> 
320
(
2.8929e-09
6.96859e-09
7.74085e-09
4.77279e-09
-2.8148e-08
-2.51244e-08
-2.28414e-08
-2.16273e-08
1.26362e-08
3.9978e-08
4.54591e-08
2.82929e-08
-1.56984e-07
-1.41609e-07
-1.30569e-07
-1.26954e-07
4.84529e-08
2.00867e-07
2.16291e-07
1.10361e-07
-6.7343e-07
-6.15085e-07
-5.66703e-07
-5.53352e-07
-7.12596e-08
6.31026e-07
7.2022e-07
1.44584e-07
-2.44581e-06
-2.28511e-06
-1.9816e-06
-2.06871e-06
-1.84993e-06
5.98861e-07
1.15714e-06
-1.26486e-06
-6.8783e-06
-6.88018e-06
-6.87992e-06
-6.87826e-06
-1.19047e-05
-1.43554e-05
-1.49131e-05
-1.24889e-05
-1.13037e-05
-1.14628e-05
-1.17667e-05
-1.16808e-05
-1.36802e-05
-1.43824e-05
-1.4472e-05
-1.3896e-05
-1.30761e-05
-1.31344e-05
-1.31823e-05
-1.3196e-05
-1.37989e-05
-1.39514e-05
-1.39666e-05
-1.38607e-05
-1.35925e-05
-1.3608e-05
-1.36191e-05
-1.36227e-05
-1.37621e-05
-1.37896e-05
-1.37953e-05
-1.37782e-05
-1.37202e-05
-1.37243e-05
-1.3727e-05
-1.37278e-05
-1.37484e-05
-1.37535e-05
-1.37551e-05
-1.37525e-05
-1.37446e-05
-1.37465e-05
-1.37474e-05
-1.37474e-05
6.96859e-09
7.62007e-09
8.82682e-09
8.93438e-09
-2.51244e-08
-1.56244e-08
-1.53539e-08
-1.85952e-08
3.9978e-08
5.84707e-08
6.46799e-08
5.49095e-08
-1.41609e-07
-8.93992e-08
-8.96371e-08
-1.0966e-07
2.00867e-07
3.37782e-07
3.52656e-07
2.59449e-07
-6.15085e-07
-3.8377e-07
-3.69071e-07
-4.74649e-07
6.31026e-07
1.85878e-06
1.78883e-06
8.4338e-07
-2.28511e-06
-1.70931e-06
-1.32722e-06
-1.81632e-06
5.98861e-07
9.95009e-06
1.03084e-05
1.5703e-06
-6.88018e-06
-6.88578e-06
-6.88227e-06
-6.88002e-06
-1.43554e-05
-2.37069e-05
-2.40646e-05
-1.53263e-05
-1.14628e-05
-1.20321e-05
-1.24176e-05
-1.19317e-05
-1.43824e-05
-1.56103e-05
-1.55404e-05
-1.45949e-05
-1.31344e-05
-1.33646e-05
-1.33796e-05
-1.32746e-05
-1.39514e-05
-1.40882e-05
-1.41031e-05
-1.40098e-05
-1.3608e-05
-1.36602e-05
-1.366e-05
-1.36401e-05
-1.37896e-05
-1.38086e-05
-1.3815e-05
-1.38051e-05
-1.37243e-05
-1.37343e-05
-1.3735e-05
-1.37319e-05
-1.37535e-05
-1.37567e-05
-1.37585e-05
-1.37577e-05
-1.37465e-05
-1.37491e-05
-1.37498e-05
-1.37492e-05
7.74085e-09
8.82682e-09
9.47153e-09
9.88648e-09
-2.28414e-08
-1.53539e-08
-1.00662e-08
-1.53381e-08
4.54591e-08
6.46799e-08
7.23981e-08
6.3129e-08
-1.30569e-07
-8.96371e-08
-6.00177e-08
-9.44624e-08
2.16291e-07
3.52656e-07
4.07471e-07
2.98147e-07
-5.66703e-07
-3.69071e-07
-1.95768e-07
-4.17668e-07
7.2022e-07
1.78883e-06
2.29141e-06
1.07448e-06
-1.9816e-06
-1.32722e-06
-2.6327e-07
-1.52359e-06
1.15714e-06
1.03084e-05
1.73638e-05
2.72307e-06
-6.87992e-06
-6.88227e-06
-6.88631e-06
-6.88045e-06
-1.49131e-05
-2.40646e-05
-3.11208e-05
-1.64801e-05
-1.17667e-05
-1.24176e-05
-1.34771e-05
-1.22241e-05
-1.4472e-05
-1.55404e-05
-1.60429e-05
-1.48266e-05
-1.31823e-05
-1.33796e-05
-1.35525e-05
-1.33311e-05
-1.39666e-05
-1.41031e-05
-1.41578e-05
-1.40484e-05
-1.36191e-05
-1.366e-05
-1.36897e-05
-1.36554e-05
-1.37953e-05
-1.3815e-05
-1.38229e-05
-1.38135e-05
-1.3727e-05
-1.3735e-05
-1.37408e-05
-1.37357e-05
-1.37551e-05
-1.37585e-05
-1.37603e-05
-1.37597e-05
-1.37474e-05
-1.37498e-05
-1.37512e-05
-1.37504e-05
4.77279e-09
8.93438e-09
9.88648e-09
7.34375e-09
-2.16273e-08
-1.85952e-08
-1.53381e-08
-1.55611e-08
2.82929e-08
5.49095e-08
6.3129e-08
4.63378e-08
-1.26954e-07
-1.0966e-07
-9.44624e-08
-9.80947e-08
1.10361e-07
2.59449e-07
2.98147e-07
1.81042e-07
-5.53352e-07
-4.74649e-07
-4.17668e-07
-4.40264e-07
1.44584e-07
8.4338e-07
1.07448e-06
3.7446e-07
-2.06871e-06
-1.81632e-06
-1.52359e-06
-1.71023e-06
-1.26486e-06
1.5703e-06
2.72307e-06
-6.4299e-07
-6.87826e-06
-6.88002e-06
-6.88045e-06
-6.87858e-06
-1.24889e-05
-1.53263e-05
-1.64801e-05
-1.3112e-05
-1.16808e-05
-1.19317e-05
-1.22241e-05
-1.20393e-05
-1.3896e-05
-1.45949e-05
-1.48266e-05
-1.41261e-05
-1.3196e-05
-1.32746e-05
-1.33311e-05
-1.3309e-05
-1.38607e-05
-1.40098e-05
-1.40484e-05
-1.39314e-05
-1.36227e-05
-1.36401e-05
-1.36554e-05
-1.36517e-05
-1.37782e-05
-1.38051e-05
-1.38135e-05
-1.37968e-05
-1.37278e-05
-1.37319e-05
-1.37357e-05
-1.37351e-05
-1.37525e-05
-1.37577e-05
-1.37597e-05
-1.37573e-05
-1.37474e-05
-1.37492e-05
-1.37504e-05
-1.37501e-05
)
;

boundaryField
{
    inlet
    {
        type            zeroGradient;
    }
    outlet
    {
        type            totalPressure;
        rho             rho;
        psi             none;
        gamma           1;
        p0              uniform 0;
        value           nonuniform List<scalar> 
16
(
-3.29883e-16
-6.10117e-17
-9.60298e-17
-3.24013e-16
-6.10117e-17
0
0
-7.33765e-17
-9.60298e-17
0
0
-6.18026e-17
-3.24013e-16
-7.33765e-17
-6.18026e-17
-2.77438e-16
)
;
    }
    walls
    {
        type            zeroGradient;
    }
}


// ************************************************************************* //
