/*--------------------------------*- C++ -*----------------------------------*\
| =========                 |                                                 |
| \\      /  F ield         | OpenFOAM: The Open Source CFD Toolbox           |
|  \\    /   O peration     | Version:  5.x                                   |
|   \\  /    A nd           | Web:      www.OpenFOAM.org                      |
|    \\/     M anipulation  |                                                 |
\*---------------------------------------------------------------------------*/
FoamFile
{
    version     2.0;
    format      ascii;
    class       surfaceScalarField;
    location    "0.03";
    object      phi;
}
// * * * * * * * * * * * * * * * * * * * * * * * * * * * * * * * * * * * * * //

dimensions      [0 3 -1 0 0 0 0];

internalField   nonuniform List<scalar> 
784
(
-5.47672e-14
2.22832e-13
-5.47672e-14
1.7564e-15
-1.72226e-14
-1.50685e-14
5.3658e-14
6.38748e-15
-2.13567e-14
2.155e-13
-5.86086e-14
-6.73153e-14
3.5747e-13
-6.73153e-14
1.4906e-15
8.43947e-14
-1.70406e-13
5.11336e-14
1.20393e-13
-1.63638e-13
3.33802e-13
-6.71632e-14
-4.51566e-13
1.26062e-12
-4.51566e-13
1.71626e-14
-5.52441e-14
-3.29086e-13
4.33926e-13
6.97694e-14
-3.66144e-13
1.23911e-12
-4.71389e-13
-3.93924e-13
2.04847e-12
-3.93924e-13
5.15823e-15
6.23432e-13
-1.07778e-12
3.18373e-13
7.89758e-13
-1.03322e-12
1.95308e-12
-3.95603e-13
-2.88481e-12
7.81808e-12
-2.88481e-12
1.55311e-13
4.55076e-13
-2.87181e-12
2.7951e-12
1.21389e-12
-3.06396e-12
7.70466e-12
-2.95649e-12
-1.8857e-12
1.15895e-11
-1.8857e-12
-7.06328e-14
4.80642e-12
-6.16645e-12
1.60107e-12
5.38635e-12
-5.84417e-12
1.12492e-11
-1.94342e-12
-1.61317e-11
4.38527e-11
-1.61317e-11
1.08107e-12
1.55543e-11
-2.79606e-11
1.57689e-11
1.92102e-11
-2.85117e-11
4.33315e-11
-1.63134e-11
-7.4775e-12
5.88077e-11
-7.4775e-12
-8.25741e-13
3.72387e-11
-2.83362e-11
7.02746e-12
3.92458e-11
-2.78887e-11
5.863e-11
-8.27105e-12
-7.10447e-11
2.00897e-10
-7.10447e-11
3.6061e-12
2.41623e-10
-2.79035e-10
7.12191e-11
2.47423e-10
-2.75791e-10
2.02605e-10
-7.27564e-11
1.48992e-14
2.00867e-10
1.48992e-14
-4.35987e-15
2.41566e-10
7.62386e-14
-1.63593e-14
2.47374e-10
6.16394e-14
2.02572e-10
1.67313e-14
7.10534e-11
5.87604e-11
7.10534e-11
-3.60019e-12
3.71715e-11
2.79048e-10
-7.12223e-11
3.91876e-11
2.75808e-10
5.85903e-11
7.27597e-11
7.45691e-12
4.38466e-11
7.45691e-12
8.30494e-13
1.55426e-11
2.82554e-11
-7.00926e-12
1.92009e-11
2.78264e-11
4.33283e-11
8.25276e-12
1.61333e-11
1.15801e-11
1.61333e-11
-1.08169e-12
4.8005e-12
2.7957e-11
-1.57722e-11
5.38281e-12
2.85086e-11
1.124e-11
1.63162e-11
1.88217e-12
7.81577e-12
1.88217e-12
7.08873e-14
4.5369e-13
6.15808e-12
-1.59716e-12
1.21324e-12
5.83763e-12
7.70289e-12
1.93995e-12
2.88511e-12
2.04554e-12
2.88511e-12
-1.55573e-13
6.2245e-13
2.87195e-12
-2.79528e-12
7.88539e-13
3.06441e-12
1.95074e-12
2.95688e-12
3.95129e-13
1.25529e-12
3.95129e-13
-5.06264e-15
-5.51633e-14
1.07779e-12
-3.19266e-13
6.93528e-14
1.03339e-12
1.23451e-12
3.96964e-13
4.54203e-13
3.469e-13
4.54203e-13
-1.69786e-14
8.20508e-14
3.3397e-13
-4.35629e-13
1.1682e-13
3.71191e-13
3.24724e-13
4.74156e-13
7.88015e-14
1.8929e-13
7.88015e-14
-1.44588e-15
-1.48584e-14
1.77164e-13
-6.10475e-14
5.15285e-15
1.71271e-13
1.84156e-13
7.95182e-14
7.0854e-14
4.75894e-14
7.0854e-14
-1.52185e-15
1.02138e-14
4.7312e-14
-6.53619e-14
1.56003e-14
5.33993e-14
4.35918e-14
7.52025e-14
2.37965e-14
2.37965e-14
8.43881e-17
3.39379e-14
-1.86926e-14
3.4383e-14
2.48977e-14
-1.50685e-14
-1.72226e-14
1.7564e-15
-1.23629e-15
-1.92939e-13
-1.23629e-15
1.55088e-14
-1.65821e-13
-4.66625e-15
-1.87526e-14
-4.93902e-15
-1.70406e-13
8.43947e-14
1.4906e-15
2.25585e-14
-5.78853e-13
2.25585e-14
1.51508e-13
-4.28013e-13
-3.03892e-14
8.18551e-14
-1.62575e-14
-3.29086e-13
-5.52441e-14
1.71626e-14
1.7926e-14
-1.27289e-12
1.7926e-14
3.25148e-13
-1.04663e-12
-5.47576e-14
-1.726e-14
-4.71282e-14
-1.07778e-12
6.23432e-13
5.15823e-15
1.73364e-13
-3.7752e-12
1.73364e-13
9.75428e-13
-2.65396e-12
-2.27971e-13
6.46952e-13
-8.43773e-14
-2.87181e-12
4.55076e-13
1.55311e-13
3.25004e-13
-1.01689e-11
3.25004e-13
2.89753e-12
-7.79221e-12
-4.98258e-13
8.72448e-13
-2.84415e-13
-6.16645e-12
4.80642e-12
-7.06328e-14
1.05033e-12
-2.46024e-11
1.05033e-12
5.59934e-12
-1.67056e-11
-1.47978e-12
4.86234e-12
-3.33944e-13
-2.79606e-11
1.55543e-11
1.08107e-12
4.36124e-12
-8.92462e-11
4.36124e-12
2.80251e-11
-6.34906e-11
-5.39052e-12
1.83968e-11
-1.8228e-12
-2.83362e-11
3.72387e-11
-8.25741e-13
3.89676e-12
-1.53712e-10
3.89676e-12
2.70404e-11
-1.05226e-10
-9.29724e-12
3.87536e-11
-1.58745e-12
-2.79035e-10
2.41623e-10
3.6061e-12
4.34894e-11
-7.98761e-10
4.34894e-11
2.75912e-10
-5.48709e-10
-6.47298e-11
2.50109e-10
-8.2002e-12
7.62387e-14
2.41566e-10
-4.35987e-15
-2.86139e-14
-7.98551e-10
-2.86139e-14
-6.27423e-14
-5.48641e-10
2.74122e-14
2.50059e-10
4.15565e-15
2.79048e-10
3.71715e-11
-3.60019e-12
-4.35073e-11
-1.53441e-10
-4.35073e-11
-2.7593e-10
-1.05157e-10
6.4747e-11
3.86955e-11
8.1941e-12
2.82554e-11
1.55426e-11
8.30494e-13
-3.85976e-12
-8.92105e-11
-3.85976e-12
-2.6977e-11
-6.34764e-11
9.26264e-12
1.83872e-11
1.58399e-12
2.7957e-11
4.8005e-12
-1.08169e-12
-4.36104e-12
-2.45744e-11
-4.36104e-12
-2.80224e-11
-1.66961e-11
5.38976e-12
4.85635e-12
1.82462e-12
6.15808e-12
4.5369e-13
7.08873e-14
-1.04707e-12
-1.01641e-11
-1.04707e-12
-5.59226e-12
-7.79003e-12
1.47681e-12
8.71476e-13
3.32564e-13
2.87195e-12
6.2245e-13
-1.55573e-13
-3.24771e-13
-3.77066e-12
-3.24771e-13
-2.89778e-12
-2.65059e-12
4.97982e-13
6.46222e-13
2.84362e-13
1.07779e-12
-5.51633e-14
-5.06264e-15
-1.73093e-13
-1.26889e-12
-1.73093e-13
-9.75119e-13
-1.04327e-12
2.28093e-13
-1.65104e-14
8.45765e-14
3.3397e-13
8.20508e-14
-1.69786e-14
-1.77495e-14
-5.65438e-13
-1.77495e-14
-3.292e-13
-4.15832e-13
5.52026e-14
8.05682e-14
4.78722e-14
1.77164e-13
-1.48584e-14
-1.44588e-15
-2.23591e-14
-1.66388e-13
-2.23591e-14
-1.56631e-13
-1.42664e-13
3.23733e-14
-1.46247e-14
1.80727e-14
4.7312e-14
1.02138e-14
-1.52185e-15
-3.36002e-16
-7.10808e-14
-3.36001e-16
-4.30081e-14
-5.57856e-14
9.19424e-15
8.63996e-15
8.92442e-15
3.39379e-14
8.43886e-17
-1.59822e-15
-1.59821e-15
-2.86436e-14
5.64059e-15
4.88797e-15
-2.13567e-14
6.38748e-15
5.3658e-14
-4.66625e-15
-1.65821e-13
1.55088e-14
1.2689e-14
-1.87536e-13
1.2689e-14
-3.29039e-14
5.04682e-14
-1.63638e-13
1.20393e-13
5.11336e-14
-3.03892e-14
-4.28013e-13
1.51508e-13
1.50038e-13
-5.48382e-13
1.50038e-13
4.84087e-14
5.24802e-14
-3.66144e-13
6.97694e-14
4.33926e-13
-5.47576e-14
-1.04663e-12
3.25148e-13
2.98775e-13
-1.25545e-12
2.98775e-13
-1.16205e-13
4.16264e-13
-1.03322e-12
7.89758e-13
3.18373e-13
-2.27971e-13
-2.65396e-12
9.75428e-13
9.86032e-13
-3.68346e-12
9.86032e-13
4.56534e-13
3.28942e-13
-3.06396e-12
1.21389e-12
2.7951e-12
-4.98258e-13
-7.79221e-12
2.89753e-12
2.75991e-12
-1.01998e-11
2.75991e-12
1.85047e-13
2.74702e-12
-5.84417e-12
5.38635e-12
1.60107e-12
-1.47978e-12
-1.67056e-11
5.59934e-12
5.87509e-12
-2.49095e-11
5.87509e-12
4.05145e-12
1.67478e-12
-2.85117e-11
1.92102e-11
1.57689e-11
-5.39052e-12
-6.34906e-11
2.80251e-11
2.78127e-11
-9.13159e-11
2.78127e-11
1.4197e-11
1.58444e-11
-2.78887e-11
3.92458e-11
7.02746e-12
-9.29724e-12
-1.05226e-10
2.70404e-11
3.00575e-11
-1.70025e-10
3.00575e-11
3.49453e-11
7.72173e-12
-2.75791e-10
2.47423e-10
7.12191e-11
-6.47298e-11
-5.48709e-10
2.75912e-10
2.95087e-10
-8.89659e-10
2.95087e-10
2.47933e-10
7.38988e-11
6.16394e-14
2.47374e-10
-1.63593e-14
2.74122e-14
-5.48641e-10
-6.27423e-14
-7.52519e-14
-8.89454e-10
-7.52519e-14
2.47877e-10
-1.49116e-14
2.75808e-10
3.91876e-11
-7.12223e-11
6.4747e-11
-1.05157e-10
-2.7593e-10
-2.95099e-10
-1.69762e-10
-2.95099e-10
3.48801e-11
-7.39076e-11
2.78264e-11
1.92009e-11
-7.00926e-12
9.26264e-12
-6.34764e-11
-2.6977e-11
-2.99783e-11
-9.12803e-11
-2.99783e-11
1.41867e-11
-7.70083e-12
2.85086e-11
5.38281e-12
-1.57722e-11
5.38976e-12
-1.66961e-11
-2.80224e-11
-2.78081e-11
-2.48845e-11
-2.78081e-11
4.04977e-12
-1.58466e-11
5.83763e-12
1.21324e-12
-1.59716e-12
1.47681e-12
-7.79003e-12
-5.59226e-12
-5.86782e-12
-1.01952e-11
-5.86782e-12
1.85071e-13
-1.67057e-12
3.06441e-12
7.88539e-13
-2.79528e-12
4.97982e-13
-2.65059e-12
-2.89778e-12
-2.76009e-12
-3.67906e-12
-2.76009e-12
4.56259e-13
-2.74692e-12
1.03339e-12
6.93528e-14
-3.19266e-13
2.28093e-13
-1.04327e-12
-9.75119e-13
-9.85701e-13
-1.25147e-12
-9.85701e-13
-1.15096e-13
-3.29779e-13
3.71191e-13
1.1682e-13
-4.35629e-13
5.52026e-14
-4.15832e-13
-3.292e-13
-3.02508e-13
-5.36057e-13
-3.02508e-13
4.80092e-14
-4.17753e-13
1.71271e-13
5.15285e-15
-6.10475e-14
3.23733e-14
-1.42664e-13
-1.56631e-13
-1.54694e-13
-1.61933e-13
-1.54694e-13
-2.68461e-14
-6.17787e-14
5.33993e-14
1.56003e-14
-6.53619e-14
9.19424e-15
-5.57856e-14
-4.30081e-14
-3.89192e-14
-6.57156e-14
-3.89192e-14
4.56859e-15
-6.14202e-14
3.4383e-14
-1.86926e-14
5.64058e-15
-2.86436e-14
-2.72218e-14
-2.72218e-14
-1.77725e-14
-5.86086e-14
2.155e-13
-4.93902e-15
-1.87526e-14
5.04682e-14
-3.29039e-14
1.83233e-13
-6.71632e-14
3.33802e-13
-1.62575e-14
8.18551e-14
5.24802e-14
4.84087e-14
2.88197e-13
-4.71389e-13
1.23911e-12
-4.71282e-14
-1.726e-14
4.16264e-13
-1.16205e-13
1.12074e-12
-3.95603e-13
1.95308e-12
-8.43773e-14
6.46952e-13
3.28942e-13
4.56534e-13
1.77865e-12
-2.95649e-12
7.70466e-12
-2.84415e-13
8.72448e-13
2.74702e-12
1.85047e-13
7.2727e-12
-1.94342e-12
1.12492e-11
-3.33944e-13
4.86234e-12
1.67478e-12
4.05145e-12
1.06223e-11
-1.63134e-11
4.33315e-11
-1.8228e-12
1.83968e-11
1.58444e-11
1.4197e-11
4.2311e-11
-8.27105e-12
5.863e-11
-1.58745e-12
3.87536e-11
7.72173e-12
3.49453e-11
5.77545e-11
-7.27564e-11
2.02605e-10
-8.2002e-12
2.50109e-10
7.38988e-11
2.47933e-10
2.05552e-10
1.67313e-14
2.02572e-10
4.15565e-15
2.50059e-10
-1.49116e-14
2.47877e-10
2.05522e-10
7.27597e-11
5.85903e-11
8.1941e-12
3.86955e-11
-7.39076e-11
3.48801e-11
5.77069e-11
8.25276e-12
4.33283e-11
1.58399e-12
1.83872e-11
-7.70083e-12
1.41867e-11
4.23052e-11
1.63162e-11
1.124e-11
1.82462e-12
4.85635e-12
-1.58466e-11
4.04977e-12
1.0612e-11
1.93995e-12
7.70289e-12
3.32564e-13
8.71476e-13
-1.67057e-12
1.85071e-13
7.27088e-12
2.95688e-12
1.95074e-12
2.84362e-13
6.46222e-13
-2.74692e-12
4.56259e-13
1.77704e-12
3.96964e-13
1.23451e-12
8.45765e-14
-1.65104e-14
-3.29779e-13
-1.15096e-13
1.11747e-12
4.74156e-13
3.24724e-13
4.78722e-14
8.05682e-14
-4.17753e-13
4.80092e-14
2.81957e-13
7.95182e-14
1.84156e-13
1.80727e-14
-1.46247e-14
-6.17787e-14
-2.68461e-14
1.58392e-13
7.52025e-14
4.35918e-14
8.92441e-15
8.63996e-15
-6.14202e-14
4.56859e-15
3.55454e-14
2.48977e-14
4.88797e-15
-1.77725e-14
)
;

boundaryField
{
    inlet
    {
        type            calculated;
        value           uniform 0;
    }
    outlet
    {
        type            calculated;
        value           nonuniform List<scalar> 
16
(
-1.13298e-13
-2.42244e-14
-3.69243e-14
-1.03229e-13
-2.42244e-14
1.6529e-13
1.32395e-13
-1.94027e-14
-3.69243e-14
1.32395e-13
1.52831e-13
-9.80798e-15
-1.03229e-13
-1.94027e-14
-9.80798e-15
-8.22897e-14
)
;
    }
    walls
    {
        type            calculated;
        value           nonuniform List<scalar> 
320
(
0
0
0
0
0
0
7.78165e-31
1.56044e-27
4.59547e-25
8.06552e-23
4.59431e-25
1.29926e-27
5.38497e-31
0
0
0
0
0
0
0
0
0
0
0
0
1.76226e-31
1.63045e-28
6.07752e-25
8.77407e-23
5.24921e-21
8.7748e-23
6.05487e-25
1.60297e-28
1.70499e-31
0
0
0
0
0
0
0
0
0
0
0
3.19523e-31
2.43708e-28
1.2669e-24
1.35833e-22
7.75879e-21
1.35859e-22
1.26762e-24
2.42589e-28
3.16106e-31
0
0
0
0
0
0
0
0
0
0
0
4.75861e-33
1.19208e-30
2.29613e-27
7.04641e-25
1.20492e-22
7.0453e-25
2.10729e-27
1.07163e-30
4.2859e-33
0
0
0
0
0
0
0
0
0
0
0
-4.75861e-33
-1.19208e-30
-2.29613e-27
-7.04641e-25
-1.20492e-22
-7.0453e-25
-2.10729e-27
-1.07163e-30
0
0
0
0
0
0
0
0
0
0
0
0
-3.22351e-31
-2.58418e-28
-1.32073e-24
-1.39667e-22
-7.90643e-21
-1.39699e-22
-1.31623e-24
-2.57647e-28
-3.22438e-31
0
0
0
0
0
0
0
0
0
0
0
-5.0825e-31
-4.86369e-28
-1.86492e-24
-2.6793e-22
-1.63615e-20
-2.67978e-22
-1.86638e-24
-4.90698e-28
-5.19575e-31
0
0
0
0
0
0
0
0
0
0
0
-8.34737e-33
-2.14236e-30
-4.76619e-27
-1.41064e-24
-2.50621e-22
-1.41061e-24
-4.77975e-27
-2.40037e-30
-1.06499e-32
0
0
0
0
0
0
0
0
0
0
0
0
7.78165e-31
1.56044e-27
4.59547e-25
8.06552e-23
4.59431e-25
1.29926e-27
5.38497e-31
0
0
0
0
0
0
0
0
0
0
0
0
1.76226e-31
1.63045e-28
6.07752e-25
8.77408e-23
5.24921e-21
8.7748e-23
6.05488e-25
1.60297e-28
1.70499e-31
0
0
0
0
0
0
0
0
0
0
0
3.19523e-31
2.43708e-28
1.2669e-24
1.35833e-22
7.75879e-21
1.35859e-22
1.26762e-24
2.42589e-28
3.16107e-31
0
0
0
0
0
0
0
0
0
0
0
4.75861e-33
1.19208e-30
2.29613e-27
7.04641e-25
1.20492e-22
7.0453e-25
2.10729e-27
1.07163e-30
0
0
0
0
0
0
0
0
0
0
0
0
-4.75861e-33
-1.19208e-30
-2.29613e-27
-7.04641e-25
-1.20492e-22
-7.0453e-25
-2.10729e-27
-1.07163e-30
-4.2859e-33
0
0
0
0
0
0
0
0
0
0
0
-3.22351e-31
-2.58418e-28
-1.32073e-24
-1.39667e-22
-7.90643e-21
-1.39699e-22
-1.31623e-24
-2.57647e-28
-3.22438e-31
0
0
0
0
0
0
0
0
0
0
0
-5.0825e-31
-4.86369e-28
-1.86492e-24
-2.6793e-22
-1.63615e-20
-2.67978e-22
-1.86638e-24
-4.90698e-28
-5.19576e-31
0
0
0
0
0
0
0
0
0
0
0
-8.34737e-33
-2.14236e-30
-4.7662e-27
-1.41064e-24
-2.50621e-22
-1.41061e-24
-4.77975e-27
-2.40037e-30
-1.06499e-32
0
0
0
0
0
0
)
;
    }
}


// ************************************************************************* //
