/*--------------------------------*- C++ -*----------------------------------*\
| =========                 |                                                 |
| \\      /  F ield         | OpenFOAM: The Open Source CFD Toolbox           |
|  \\    /   O peration     | Version:  5.x                                   |
|   \\  /    A nd           | Web:      www.OpenFOAM.org                      |
|    \\/     M anipulation  |                                                 |
\*---------------------------------------------------------------------------*/
FoamFile
{
    version     2.0;
    format      ascii;
    class       volVectorField;
    location    "0.03";
    object      U;
}
// * * * * * * * * * * * * * * * * * * * * * * * * * * * * * * * * * * * * * //

dimensions      [0 1 -1 0 0 0 0];

internalField   nonuniform List<vector> 
320
(
(-6.82757e-09 2.92283e-08 -6.82757e-09)
(-6.24234e-09 1.29944e-08 -2.53865e-09)
(6.74666e-09 1.50331e-08 -2.90218e-09)
(6.03759e-09 2.74469e-08 -6.89491e-09)
(-9.17841e-09 5.22432e-09 -9.17841e-09)
(-8.59832e-09 -4.68479e-08 -2.261e-08)
(8.46522e-09 -4.16717e-08 -1.95974e-08)
(6.22264e-09 3.53783e-09 -8.32981e-09)
(-5.81546e-08 1.8722e-07 -5.81546e-08)
(-5.3334e-08 1.41869e-07 -4.47207e-08)
(5.74474e-08 1.48079e-07 -4.49995e-08)
(5.074e-08 1.80605e-07 -5.6986e-08)
(-5.32126e-08 1.06043e-08 -5.32126e-08)
(-5.14126e-08 -3.11991e-07 -1.48771e-07)
(5.10981e-08 -2.77497e-07 -1.21031e-07)
(3.78373e-08 6.15627e-09 -4.7694e-08)
(-3.75544e-07 1.04344e-06 -3.75544e-07)
(-3.42384e-07 8.4426e-07 -3.92555e-07)
(3.77424e-07 8.57107e-07 -3.69717e-07)
(3.30662e-07 1.01311e-06 -3.57899e-07)
(-2.51944e-07 4.67904e-07 -2.51944e-07)
(-2.63671e-07 -1.3356e-06 -8.83552e-07)
(2.46598e-07 -1.10153e-06 -6.66829e-07)
(1.95102e-07 4.5569e-07 -2.32785e-07)
(-2.14237e-06 4.93829e-06 -2.14237e-06)
(-1.92163e-06 4.23357e-06 -3.87933e-06)
(2.18333e-06 4.21123e-06 -3.35213e-06)
(1.86235e-06 4.82999e-06 -1.9622e-06)
(-1.00419e-06 5.31968e-06 -1.00419e-06)
(-1.14117e-06 -2.25728e-06 -4.34288e-06)
(9.94979e-07 -1.42796e-06 -3.13462e-06)
(8.66747e-07 5.31839e-06 -9.89581e-07)
(-9.55536e-06 1.88467e-05 -9.55536e-06)
(-8.77804e-06 2.01322e-05 -4.0056e-05)
(9.88341e-06 2.03037e-05 -3.14739e-05)
(8.49748e-06 1.90027e-05 -8.75223e-06)
(2.01159e-09 3.79163e-05 2.01159e-09)
(9.15753e-10 4.5314e-05 2.11199e-09)
(-1.81453e-09 4.69438e-05 -5.76942e-10)
(-1.82657e-09 3.81332e-05 1.90388e-09)
(9.55604e-06 1.88381e-05 9.55604e-06)
(8.77805e-06 2.01164e-05 4.00548e-05)
(-9.88129e-06 2.02904e-05 3.14696e-05)
(-8.49895e-06 1.89949e-05 8.75373e-06)
(1.00172e-06 5.31456e-06 1.00172e-06)
(1.13933e-06 -2.26457e-06 4.33299e-06)
(-9.92356e-07 -1.43444e-06 3.12975e-06)
(-8.64952e-07 5.31445e-06 9.87722e-07)
(2.1426e-06 4.93792e-06 2.1426e-06)
(1.92176e-06 4.23537e-06 3.87885e-06)
(-2.18372e-06 4.21232e-06 3.35185e-06)
(-1.86269e-06 4.82961e-06 1.96249e-06)
(2.51509e-07 4.66045e-07 2.51509e-07)
(2.63284e-07 -1.33769e-06 8.82479e-07)
(-2.46137e-07 -1.10356e-06 6.66198e-07)
(-1.94706e-07 4.54006e-07 2.32414e-07)
(3.75575e-07 1.04352e-06 3.75575e-07)
(3.42394e-07 8.44932e-07 3.92562e-07)
(-3.77464e-07 8.57716e-07 3.6978e-07)
(-3.30689e-07 1.01321e-06 3.57946e-07)
(5.3352e-08 9.85788e-09 5.3352e-08)
(5.15525e-08 -3.12419e-07 1.48782e-07)
(-5.12039e-08 -2.77935e-07 1.21064e-07)
(-3.79339e-08 5.53054e-09 4.78443e-08)
(5.84955e-08 1.86201e-07 5.84955e-08)
(5.36614e-08 1.42103e-07 4.53016e-08)
(-5.76968e-08 1.48191e-07 4.55882e-08)
(-5.09488e-08 1.79745e-07 5.73202e-08)
(1.05549e-08 1.78493e-09 1.05549e-08)
(9.88114e-09 -4.83132e-08 2.35364e-08)
(-9.68154e-09 -4.33881e-08 2.05454e-08)
(-7.28032e-09 4.59777e-10 9.71118e-09)
(8.93681e-09 2.54663e-08 8.93681e-09)
(8.22409e-09 1.76841e-08 6.40552e-09)
(-8.50058e-09 1.88925e-08 6.59775e-09)
(-7.43187e-09 2.41884e-08 8.90373e-09)
(3.02037e-09 -3.53742e-11 3.02037e-09)
(2.82108e-09 -5.84592e-09 4.24366e-09)
(-2.58881e-09 -5.30876e-09 4.07361e-09)
(-2.18162e-09 -1.67147e-10 2.95482e-09)
(-2.53865e-09 1.29944e-08 -6.24234e-09)
(-2.15282e-09 -1.27429e-08 -2.15282e-09)
(2.26132e-09 -7.93955e-09 -3.11075e-09)
(2.04783e-09 1.20978e-08 -7.23862e-09)
(-2.261e-08 -4.68479e-08 -8.59832e-09)
(-1.88105e-08 -9.01174e-08 -1.88105e-08)
(2.2755e-08 -8.46836e-08 -2.35388e-08)
(1.74917e-08 -4.7075e-08 -1.04575e-08)
(-4.47207e-08 1.41869e-07 -5.3334e-08)
(-3.88053e-08 1.20356e-08 -3.88053e-08)
(4.42938e-08 4.37964e-08 -4.95719e-08)
(3.87358e-08 1.40339e-07 -6.15163e-08)
(-1.48771e-07 -3.11991e-07 -5.14126e-08)
(-1.18147e-07 -6.70408e-07 -1.18147e-07)
(1.52837e-07 -6.11344e-07 -1.57944e-07)
(1.11126e-07 -2.98503e-07 -6.1794e-08)
(-3.92555e-07 8.4426e-07 -3.42384e-07)
(-3.28957e-07 9.16524e-08 -3.28957e-07)
(4.08568e-07 2.99324e-07 -4.30729e-07)
(3.42218e-07 8.29279e-07 -3.95141e-07)
(-8.83552e-07 -1.3356e-06 -2.63671e-07)
(-6.75629e-07 -4.93149e-06 -6.75629e-07)
(9.05999e-07 -4.17075e-06 -9.41972e-07)
(6.288e-07 -1.17417e-06 -3.0143e-07)
(-3.87933e-06 4.23357e-06 -1.92163e-06)
(-3.09973e-06 6.8606e-07 -3.09973e-06)
(4.11541e-06 1.69285e-06 -4.20888e-06)
(3.24979e-06 4.126e-06 -2.26133e-06)
(-4.34288e-06 -2.25728e-06 -1.14117e-06)
(-3.28145e-06 -3.98475e-05 -3.28145e-06)
(4.42301e-06 -3.06606e-05 -4.8702e-06)
(3.00937e-06 -1.58243e-06 -1.2948e-06)
(-4.0056e-05 2.01322e-05 -8.77804e-06)
(-3.08628e-05 1.11017e-05 -3.08628e-05)
(4.18131e-05 1.37233e-05 -4.32501e-05)
(3.12068e-05 2.04275e-05 -1.02995e-05)
(2.11199e-09 4.5314e-05 9.15753e-10)
(1.46686e-08 -0.000303923 1.46686e-08)
(-1.96374e-08 -0.000217825 1.9097e-08)
(5.68123e-10 4.7462e-05 1.8134e-09)
(4.00548e-05 2.01164e-05 8.77805e-06)
(3.08676e-05 1.11875e-05 3.08676e-05)
(-4.18226e-05 1.37524e-05 4.32594e-05)
(-3.12022e-05 2.04141e-05 1.02973e-05)
(4.33299e-06 -2.26457e-06 1.13933e-06)
(3.27493e-06 -3.9857e-05 3.27493e-06)
(-4.41001e-06 -3.06683e-05 4.85765e-06)
(-3.00456e-06 -1.58897e-06 1.29227e-06)
(3.87885e-06 4.23537e-06 1.92176e-06)
(3.09928e-06 6.99049e-07 3.09928e-06)
(-4.11492e-06 1.6996e-06 4.20833e-06)
(-3.24954e-06 4.12718e-06 2.26176e-06)
(8.82479e-07 -1.33769e-06 2.63284e-07)
(6.75026e-07 -4.93312e-06 6.75026e-07)
(-9.04807e-07 -4.17249e-06 9.40863e-07)
(-6.28144e-07 -1.17614e-06 3.0091e-07)
(3.92562e-07 8.44932e-07 3.42394e-07)
(3.28994e-07 9.34562e-08 3.28994e-07)
(-4.08563e-07 3.00633e-07 4.30733e-07)
(-3.42261e-07 8.29917e-07 3.95174e-07)
(1.48782e-07 -3.12419e-07 5.15525e-08)
(1.18178e-07 -6.7025e-07 1.18178e-07)
(-1.52802e-07 -6.11246e-07 1.57975e-07)
(-1.11106e-07 -2.98837e-07 6.19538e-08)
(4.53016e-08 1.42103e-07 5.36614e-08)
(3.93718e-08 1.32021e-08 3.93718e-08)
(-4.47865e-08 4.48373e-08 5.01697e-08)
(-3.92006e-08 1.4072e-07 6.18979e-08)
(2.35364e-08 -4.83132e-08 9.88114e-09)
(1.9634e-08 -8.81062e-08 1.9634e-08)
(-2.34973e-08 -8.31112e-08 2.46089e-08)
(-1.81177e-08 -4.82876e-08 1.19698e-08)
(6.40552e-09 1.76841e-08 8.22409e-09)
(5.67287e-09 -2.0675e-09 5.67287e-09)
(-5.85828e-09 2.03848e-09 7.16189e-09)
(-5.13133e-09 1.72479e-08 9.6105e-09)
(4.24366e-09 -5.84592e-09 2.82108e-09)
(3.84757e-09 -7.83611e-09 3.84757e-09)
(-3.90429e-09 -7.66235e-09 4.52104e-09)
(-3.29863e-09 -5.99906e-09 3.35813e-09)
(-2.90218e-09 1.50331e-08 6.74666e-09)
(-3.11075e-09 -7.93955e-09 2.26132e-09)
(1.68709e-09 -1.14163e-08 1.68709e-09)
(2.04153e-09 1.04832e-08 5.8535e-09)
(-1.95974e-08 -4.16717e-08 8.46522e-09)
(-2.35388e-08 -8.46836e-08 2.2755e-08)
(1.69103e-08 -8.90212e-08 1.69103e-08)
(1.93772e-08 -5.04351e-08 6.58518e-09)
(-4.49995e-08 1.48079e-07 5.74474e-08)
(-4.95719e-08 4.37964e-08 4.42938e-08)
(3.4966e-08 1.55748e-08 3.4966e-08)
(3.97609e-08 1.33123e-07 4.95076e-08)
(-1.21031e-07 -2.77497e-07 5.10981e-08)
(-1.57944e-07 -6.11344e-07 1.52837e-07)
(1.07903e-07 -6.65748e-07 1.07903e-07)
(1.33792e-07 -3.25819e-07 4.13532e-08)
(-3.69717e-07 8.57107e-07 3.77424e-07)
(-4.30729e-07 2.99324e-07 4.08568e-07)
(3.1245e-07 8.90943e-08 3.1245e-07)
(3.70282e-07 7.99961e-07 3.26577e-07)
(-6.66829e-07 -1.10153e-06 2.46598e-07)
(-9.41972e-07 -4.17075e-06 9.05999e-07)
(6.22647e-07 -4.92768e-06 6.22647e-07)
(8.29446e-07 -1.39668e-06 2.18397e-07)
(-3.35213e-06 4.21123e-06 2.18333e-06)
(-4.20888e-06 1.69285e-06 4.11541e-06)
(3.02817e-06 3.62712e-07 3.02817e-06)
(3.80103e-06 3.9882e-06 1.86016e-06)
(-3.13462e-06 -1.42796e-06 9.94979e-07)
(-4.8702e-06 -3.06606e-05 4.42301e-06)
(2.98707e-06 -4.10073e-05 2.98707e-06)
(4.37647e-06 -2.59554e-06 9.64038e-07)
(-3.14739e-05 2.03037e-05 9.88341e-06)
(-4.32501e-05 1.37233e-05 4.18131e-05)
(3.04697e-05 1.12944e-05 3.04697e-05)
(4.08708e-05 2.04531e-05 8.67814e-06)
(-5.76942e-10 4.69438e-05 -1.81454e-09)
(1.9097e-08 -0.000217825 -1.96374e-08)
(-1.45135e-08 -0.000337089 -1.45135e-08)
(-1.93251e-09 4.59956e-05 -9.51812e-10)
(3.14696e-05 2.02904e-05 -9.88129e-06)
(4.32594e-05 1.37524e-05 -4.18226e-05)
(-3.04745e-05 1.13774e-05 -3.04745e-05)
(-4.08694e-05 2.04374e-05 -8.67815e-06)
(3.12975e-06 -1.43444e-06 -9.92356e-07)
(4.85765e-06 -3.06683e-05 -4.41001e-06)
(-2.98053e-06 -4.10168e-05 -2.98053e-06)
(-4.36697e-06 -2.60281e-06 -9.62089e-07)
(3.35185e-06 4.21232e-06 -2.18372e-06)
(4.20833e-06 1.6996e-06 -4.11492e-06)
(-3.0277e-06 3.75161e-07 -3.0277e-06)
(-3.80048e-06 3.98986e-06 -1.86026e-06)
(6.66198e-07 -1.10356e-06 -2.46137e-07)
(9.40863e-07 -4.17249e-06 -9.04807e-07)
(-6.22104e-07 -4.9293e-06 -6.22104e-07)
(-8.28489e-07 -1.39881e-06 -2.18054e-07)
(3.6978e-07 8.57716e-07 -3.77464e-07)
(4.30733e-07 3.00633e-07 -4.08563e-07)
(-3.12497e-07 9.085e-08 -3.12497e-07)
(-3.70287e-07 8.00746e-07 -3.2658e-07)
(1.21064e-07 -2.77935e-07 -5.12039e-08)
(1.57975e-07 -6.11246e-07 -1.52802e-07)
(-1.07883e-07 -6.65598e-07 -1.07883e-07)
(-1.33763e-07 -3.26107e-07 -4.1449e-08)
(4.55882e-08 1.48191e-07 -5.76968e-08)
(5.01697e-08 4.48373e-08 -4.47865e-08)
(-3.54065e-08 1.67329e-08 -3.54065e-08)
(-4.01949e-08 1.33599e-07 -4.96876e-08)
(2.05454e-08 -4.33881e-08 -9.68154e-09)
(2.46089e-08 -8.31112e-08 -2.34973e-08)
(-1.74499e-08 -8.71888e-08 -1.74499e-08)
(-2.00198e-08 -5.14385e-08 -7.59826e-09)
(6.59775e-09 1.88925e-08 -8.50058e-09)
(7.16188e-09 2.03848e-09 -5.85828e-09)
(-4.61353e-09 -9.36012e-10 -4.61353e-09)
(-5.14952e-09 1.61248e-08 -7.16662e-09)
(4.07361e-09 -5.30876e-09 -2.58881e-09)
(4.52104e-09 -7.66235e-09 -3.90429e-09)
(-3.10621e-09 -7.87573e-09 -3.10621e-09)
(-3.34664e-09 -6.23925e-09 -2.04296e-09)
(-6.89491e-09 2.74469e-08 6.03759e-09)
(-7.23862e-09 1.20978e-08 2.04783e-09)
(5.8535e-09 1.04832e-08 2.04153e-09)
(6.08888e-09 2.38169e-08 6.08888e-09)
(-8.32981e-09 3.53783e-09 6.22264e-09)
(-1.04575e-08 -4.7075e-08 1.74917e-08)
(6.58518e-09 -5.04351e-08 1.93772e-08)
(7.09709e-09 -3.67667e-09 7.09709e-09)
(-5.6986e-08 1.80605e-07 5.074e-08)
(-6.15163e-08 1.40339e-07 3.87358e-08)
(4.95076e-08 1.33123e-07 3.97609e-08)
(5.23062e-08 1.71325e-07 5.23062e-08)
(-4.7694e-08 6.15627e-09 3.78373e-08)
(-6.1794e-08 -2.98503e-07 1.11126e-07)
(4.13532e-08 -3.25819e-07 1.33792e-07)
(4.42545e-08 -2.27003e-08 4.42545e-08)
(-3.57899e-07 1.01311e-06 3.30662e-07)
(-3.95141e-07 8.29279e-07 3.42218e-07)
(3.26577e-07 7.99961e-07 3.70282e-07)
(3.51082e-07 9.8018e-07 3.51082e-07)
(-2.32785e-07 4.5569e-07 1.95102e-07)
(-3.0143e-07 -1.17417e-06 6.288e-07)
(2.18397e-07 -1.39668e-06 8.29446e-07)
(2.24879e-07 3.4814e-07 2.24879e-07)
(-1.9622e-06 4.82999e-06 1.86235e-06)
(-2.26133e-06 4.126e-06 3.24979e-06)
(1.86016e-06 3.9882e-06 3.80103e-06)
(2.06358e-06 4.72135e-06 2.06358e-06)
(-9.89581e-07 5.31839e-06 8.66747e-07)
(-1.2948e-06 -1.58243e-06 3.00937e-06)
(9.64038e-07 -2.59554e-06 4.37647e-06)
(1.00714e-06 5.12457e-06 1.00714e-06)
(-8.75223e-06 1.90027e-05 8.49748e-06)
(-1.02995e-05 2.04275e-05 3.12068e-05)
(8.67814e-06 2.04531e-05 4.08708e-05)
(9.63533e-06 1.9149e-05 9.63533e-06)
(1.90388e-09 3.81332e-05 -1.82657e-09)
(1.8134e-09 4.7462e-05 5.68122e-10)
(-9.51811e-10 4.59956e-05 -1.93251e-09)
(-1.96828e-09 3.86505e-05 -1.96828e-09)
(8.75373e-06 1.89949e-05 -8.49895e-06)
(1.02973e-05 2.04141e-05 -3.12022e-05)
(-8.67815e-06 2.04374e-05 -4.08694e-05)
(-9.63599e-06 1.91404e-05 -9.63599e-06)
(9.87722e-07 5.31445e-06 -8.64952e-07)
(1.29227e-06 -1.58897e-06 -3.00456e-06)
(-9.62089e-07 -2.60281e-06 -4.36697e-06)
(-1.0047e-06 5.11943e-06 -1.0047e-06)
(1.96249e-06 4.82961e-06 -1.86269e-06)
(2.26176e-06 4.12718e-06 -3.24954e-06)
(-1.86026e-06 3.98986e-06 -3.80048e-06)
(-2.06385e-06 4.72091e-06 -2.06385e-06)
(2.32414e-07 4.54006e-07 -1.94706e-07)
(3.0091e-07 -1.17614e-06 -6.28144e-07)
(-2.18054e-07 -1.39881e-06 -8.28489e-07)
(-2.24403e-07 3.46311e-07 -2.24403e-07)
(3.57946e-07 1.01321e-06 -3.30689e-07)
(3.95174e-07 8.29917e-07 -3.42261e-07)
(-3.2658e-07 8.00746e-07 -3.70287e-07)
(-3.51078e-07 9.80376e-07 -3.51078e-07)
(4.78443e-08 5.53054e-09 -3.79339e-08)
(6.19538e-08 -2.98837e-07 -1.11106e-07)
(-4.1449e-08 -3.26107e-07 -1.33763e-07)
(-4.43496e-08 -2.31981e-08 -4.43496e-08)
(5.73202e-08 1.79745e-07 -5.09488e-08)
(6.18979e-08 1.4072e-07 -3.92006e-08)
(-4.96876e-08 1.33599e-07 -4.01949e-08)
(-5.25066e-08 1.70806e-07 -5.25066e-08)
(9.71118e-09 4.59776e-10 -7.28032e-09)
(1.19698e-08 -4.82876e-08 -1.81177e-08)
(-7.59826e-09 -5.14385e-08 -2.00198e-08)
(-8.17797e-09 -6.10627e-09 -8.17797e-09)
(8.90373e-09 2.41884e-08 -7.43187e-09)
(9.6105e-09 1.72479e-08 -5.13133e-09)
(-7.16662e-09 1.61248e-08 -5.14952e-09)
(-7.53888e-09 2.22548e-08 -7.53888e-09)
(2.95482e-09 -1.67147e-10 -2.18162e-09)
(3.35813e-09 -5.99906e-09 -3.29863e-09)
(-2.04296e-09 -6.23925e-09 -3.34664e-09)
(-2.24923e-09 -1.05972e-09 -2.24923e-09)
)
;

boundaryField
{
    inlet
    {
        type            fixedValue;
        value           uniform (0 0 0);
    }
    outlet
    {
        type            zeroGradient;
    }
    walls
    {
        type            fixedValue;
        value           uniform (0 0 0);
    }
}


// ************************************************************************* //
