/*--------------------------------*- C++ -*----------------------------------*\
| =========                 |                                                 |
| \\      /  F ield         | OpenFOAM: The Open Source CFD Toolbox           |
|  \\    /   O peration     | Version:  5.x                                   |
|   \\  /    A nd           | Web:      www.OpenFOAM.org                      |
|    \\/     M anipulation  |                                                 |
\*---------------------------------------------------------------------------*/
FoamFile
{
    version     2.0;
    format      ascii;
    class       volVectorField;
    location    "0.03";
    object      Us;
}
// * * * * * * * * * * * * * * * * * * * * * * * * * * * * * * * * * * * * * //

dimensions      [0 1 -1 0 0 0 0];

internalField   nonuniform List<vector> 
320
(
(-2.14723e-28 -4.01665e-20 -2.14723e-28)
(-1.44056e-27 -2.69473e-19 -1.44056e-27)
(-1.4386e-27 -2.69108e-19 -1.4386e-27)
(-2.04538e-28 -3.82611e-20 -2.04538e-28)
(-1.26744e-26 -2.37089e-18 -1.26744e-26)
(-9.35463e-26 -1.74989e-17 -9.35463e-26)
(-9.34553e-26 -1.74819e-17 -9.34553e-26)
(-1.21641e-26 -2.27544e-18 -1.21641e-26)
(-7.43558e-25 -1.39091e-16 -7.43558e-25)
(-6.09115e-24 -1.13942e-15 -6.09116e-24)
(-6.08709e-24 -1.13866e-15 -6.08709e-24)
(-7.18771e-25 -1.34454e-16 -7.18771e-25)
(-4.24152e-23 -7.93426e-15 -4.24152e-23)
(-3.90513e-22 -7.305e-14 -3.90513e-22)
(-3.90345e-22 -7.30185e-14 -3.90345e-22)
(-4.12865e-23 -7.72311e-15 -4.12865e-23)
(-2.3334e-21 -4.36489e-13 -2.3334e-21)
(-2.45312e-20 -4.58885e-12 -2.45312e-20)
(-2.4525e-20 -4.58768e-12 -2.4525e-20)
(-2.28639e-21 -4.27696e-13 -2.28639e-21)
(-1.2227e-19 -2.28721e-11 -1.2227e-19)
(-1.49856e-18 -2.80322e-10 -1.49856e-18)
(-1.49835e-18 -2.80285e-10 -1.49835e-18)
(-1.20557e-19 -2.25515e-11 -1.20557e-19)
(-5.98062e-18 -1.11874e-09 -5.98062e-18)
(-8.79032e-17 -1.64433e-08 -8.79032e-17)
(-8.7898e-17 -1.64423e-08 -8.7898e-17)
(-5.93059e-18 -1.10939e-09 -5.93059e-18)
(-2.63315e-16 -4.92562e-08 -2.63315e-16)
(-4.83521e-15 -9.04481e-07 -4.83521e-15)
(-4.83512e-15 -9.04465e-07 -4.83512e-15)
(-2.62396e-16 -4.90842e-08 -2.62396e-16)
(-9.66265e-15 -1.80751e-06 -9.66265e-15)
(-2.36476e-13 -4.42355e-05 -2.36476e-13)
(-2.36475e-13 -4.42354e-05 -2.36475e-13)
(-9.6621e-15 -1.80741e-06 -9.6621e-15)
(-2.36454e-13 -4.42314e-05 -2.36454e-13)
(-8.67667e-12 -0.00162307 -8.67667e-12)
(-8.67665e-12 -0.00162307 -8.67665e-12)
(-2.36431e-13 -4.42271e-05 -2.36431e-13)
(-9.65864e-15 -1.80676e-06 -9.65864e-15)
(-2.36435e-13 -4.42279e-05 -2.36435e-13)
(-2.36477e-13 -4.42358e-05 -2.36477e-13)
(-9.66042e-15 -1.80709e-06 -9.66042e-15)
(-2.18744e-16 -4.09187e-08 -2.18744e-16)
(-4.81176e-15 -9.00095e-07 -4.81176e-15)
(-4.83202e-15 -9.03885e-07 -4.83202e-15)
(-2.40391e-16 -4.49678e-08 -2.40391e-16)
(-4.12853e-18 -7.72289e-10 -4.12853e-18)
(-8.63727e-17 -1.6157e-08 -8.63727e-17)
(-8.74692e-17 -1.63621e-08 -8.74692e-17)
(-5.33425e-18 -9.97833e-10 -5.33425e-18)
(-7.13754e-20 -1.33516e-11 -7.13754e-20)
(-1.44909e-18 -2.71069e-10 -1.44909e-18)
(-1.48229e-18 -2.77279e-10 -1.48229e-18)
(-1.08427e-19 -2.02824e-11 -1.08427e-19)
(-1.17169e-21 -2.19178e-13 -1.17169e-21)
(-2.3304e-20 -4.35928e-12 -2.3304e-20)
(-2.40958e-20 -4.50739e-12 -2.40958e-20)
(-2.06693e-21 -3.86643e-13 -2.06693e-21)
(-1.85874e-23 -3.47698e-15 -1.85874e-23)
(-3.64051e-22 -6.80999e-14 -3.64051e-22)
(-3.80622e-22 -7.11998e-14 -3.80622e-22)
(-3.7562e-23 -7.0264e-15 -3.7562e-23)
(-2.8779e-25 -5.38344e-17 -2.8779e-25)
(-5.56814e-24 -1.04158e-15 -5.56814e-24)
(-5.88753e-24 -1.10133e-15 -5.88753e-24)
(-6.58056e-25 -1.23097e-16 -6.58056e-25)
(-4.37578e-27 -8.1854e-19 -4.37578e-27)
(-8.38049e-26 -1.56767e-17 -8.38049e-26)
(-8.96206e-26 -1.67646e-17 -8.96206e-26)
(-1.12013e-26 -2.09533e-18 -1.12013e-26)
(-6.56042e-29 -1.2272e-20 -6.56042e-29)
(-1.24547e-27 -2.32979e-19 -1.24547e-27)
(-1.34705e-27 -2.51982e-19 -1.34705e-27)
(-1.86297e-28 -3.48491e-20 -1.86297e-28)
(-9.93456e-31 -1.85837e-22 -9.93456e-31)
(-1.85976e-29 -3.4789e-21 -1.85976e-29)
(-2.03401e-29 -3.80484e-21 -2.03401e-29)
(-3.08978e-30 -5.77979e-22 -3.08978e-30)
(-1.44056e-27 -2.69473e-19 -1.44056e-27)
(-1.06037e-26 -1.98354e-18 -1.06037e-26)
(-1.05839e-26 -1.97984e-18 -1.05839e-26)
(-1.37154e-27 -2.56562e-19 -1.37154e-27)
(-9.35463e-26 -1.74989e-17 -9.35463e-26)
(-7.65388e-25 -1.43175e-16 -7.65388e-25)
(-7.64394e-25 -1.42989e-16 -7.64394e-25)
(-8.98726e-26 -1.68117e-17 -8.98726e-26)
(-6.09115e-24 -1.13942e-15 -6.09116e-24)
(-5.60204e-23 -1.04793e-14 -5.60204e-23)
(-5.59724e-23 -1.04703e-14 -5.59724e-23)
(-5.90168e-24 -1.10398e-15 -5.90168e-24)
(-3.90513e-22 -7.305e-14 -3.90513e-22)
(-4.10167e-21 -7.67264e-13 -4.10167e-21)
(-4.09952e-21 -7.66863e-13 -4.09952e-21)
(-3.81385e-22 -7.13425e-14 -3.81385e-22)
(-2.45312e-20 -4.58885e-12 -2.45312e-20)
(-3.00418e-19 -5.61967e-11 -3.00418e-19)
(-3.00332e-19 -5.61806e-11 -3.00332e-19)
(-2.41345e-20 -4.51465e-12 -2.41345e-20)
(-1.49856e-18 -2.80322e-10 -1.49856e-18)
(-2.20113e-17 -4.11747e-09 -2.20113e-17)
(-2.20084e-17 -4.11693e-09 -2.20084e-17)
(-1.48409e-18 -2.77617e-10 -1.48409e-18)
(-8.79032e-17 -1.64433e-08 -8.79032e-17)
(-1.61333e-15 -3.01792e-07 -1.61333e-15)
(-1.61326e-15 -3.01778e-07 -1.61326e-15)
(-8.75414e-17 -1.63756e-08 -8.75414e-17)
(-4.83521e-15 -9.04481e-07 -4.83521e-15)
(-1.18293e-13 -2.2128e-05 -1.18293e-13)
(-1.18292e-13 -2.21279e-05 -1.18292e-13)
(-4.83408e-15 -9.0427e-07 -4.83408e-15)
(-2.36476e-13 -4.42355e-05 -2.36476e-13)
(-8.67667e-12 -0.00162307 -8.67667e-12)
(-8.67667e-12 -0.00162307 -8.67667e-12)
(-2.36476e-13 -4.42355e-05 -2.36476e-13)
(-8.67667e-12 -0.00162307 -8.67667e-12)
(-6.36602e-10 -0.119084 -6.36602e-10)
(-6.36602e-10 -0.119084 -6.36602e-10)
(-8.67665e-12 -0.00162307 -8.67665e-12)
(-2.36435e-13 -4.42279e-05 -2.36435e-13)
(-8.67663e-12 -0.00162306 -8.67663e-12)
(-8.67667e-12 -0.00162307 -8.67667e-12)
(-2.36499e-13 -4.42399e-05 -2.36499e-13)
(-4.81176e-15 -9.00095e-07 -4.81176e-15)
(-1.18289e-13 -2.21274e-05 -1.18289e-13)
(-1.1827e-13 -2.21239e-05 -1.1827e-13)
(-4.8135e-15 -9.00421e-07 -4.8135e-15)
(-8.63727e-17 -1.6157e-08 -8.63727e-17)
(-1.61262e-15 -3.01659e-07 -1.61262e-15)
(-1.61268e-15 -3.01671e-07 -1.61268e-15)
(-8.73008e-17 -1.63306e-08 -8.73008e-17)
(-1.44909e-18 -2.71069e-10 -1.44909e-18)
(-2.19839e-17 -4.11234e-09 -2.19839e-17)
(-2.19969e-17 -4.11477e-09 -2.19969e-17)
(-1.48605e-18 -2.77983e-10 -1.48605e-18)
(-2.3304e-20 -4.35928e-12 -2.3304e-20)
(-2.99681e-19 -5.60587e-11 -2.99681e-19)
(-3.00126e-19 -5.6142e-11 -3.00126e-19)
(-2.42999e-20 -4.54558e-12 -2.42999e-20)
(-3.64051e-22 -6.80999e-14 -3.64051e-22)
(-4.08497e-21 -7.6414e-13 -4.08497e-21)
(-4.09606e-21 -7.66215e-13 -4.09606e-21)
(-3.8649e-22 -7.22974e-14 -3.8649e-22)
(-5.56814e-24 -1.04158e-15 -5.56814e-24)
(-5.56789e-23 -1.04154e-14 -5.56789e-23)
(-5.59167e-23 -1.04599e-14 -5.59167e-23)
(-6.02373e-24 -1.12681e-15 -6.02373e-24)
(-8.38049e-26 -1.56767e-17 -8.38049e-26)
(-7.58857e-25 -1.41953e-16 -7.58857e-25)
(-7.63518e-25 -1.42825e-16 -7.63518e-25)
(-9.24428e-26 -1.72925e-17 -9.24428e-26)
(-1.24547e-27 -2.32979e-19 -1.24547e-27)
(-1.03418e-26 -1.93455e-18 -1.03418e-26)
(-1.04278e-26 -1.95064e-18 -1.04278e-26)
(-1.40149e-27 -2.62164e-19 -1.40149e-27)
(-1.85976e-29 -3.4789e-21 -1.85976e-29)
(-1.42853e-28 -2.67222e-20 -1.42853e-28)
(-1.44394e-28 -2.70106e-20 -1.44394e-28)
(-2.13528e-29 -3.99428e-21 -2.13528e-29)
(-1.4386e-27 -2.69108e-19 -1.4386e-27)
(-1.05839e-26 -1.97984e-18 -1.05839e-26)
(-1.04874e-26 -1.96178e-18 -1.04874e-26)
(-1.28396e-27 -2.40179e-19 -1.28396e-27)
(-9.34553e-26 -1.74819e-17 -9.34553e-26)
(-7.64394e-25 -1.42989e-16 -7.64394e-25)
(-7.59125e-25 -1.42003e-16 -7.59125e-25)
(-8.50437e-26 -1.59084e-17 -8.50437e-26)
(-6.08709e-24 -1.13866e-15 -6.08709e-24)
(-5.59724e-23 -1.04703e-14 -5.59724e-23)
(-5.56939e-23 -1.04182e-14 -5.56939e-23)
(-5.64398e-24 -1.05577e-15 -5.64398e-24)
(-3.90345e-22 -7.30185e-14 -3.90345e-22)
(-4.09952e-21 -7.66863e-13 -4.09952e-21)
(-4.08579e-21 -7.64294e-13 -4.08579e-21)
(-3.68561e-22 -6.89435e-14 -3.68561e-22)
(-2.4525e-20 -4.58768e-12 -2.4525e-20)
(-3.00332e-19 -5.61806e-11 -3.00332e-19)
(-2.99723e-19 -5.60667e-11 -2.99723e-19)
(-2.35612e-20 -4.40739e-12 -2.35612e-20)
(-1.49835e-18 -2.80285e-10 -1.49835e-18)
(-2.20084e-17 -4.11693e-09 -2.20084e-17)
(-2.1986e-17 -4.11273e-09 -2.1986e-17)
(-1.46283e-18 -2.73639e-10 -1.46283e-18)
(-8.7898e-17 -1.64423e-08 -8.7898e-17)
(-1.61326e-15 -3.01778e-07 -1.61326e-15)
(-1.61271e-15 -3.01676e-07 -1.61271e-15)
(-8.70251e-17 -1.62791e-08 -8.70252e-17)
(-4.83512e-15 -9.04465e-07 -4.83512e-15)
(-1.18292e-13 -2.21279e-05 -1.18292e-13)
(-1.18292e-13 -2.21279e-05 -1.18292e-13)
(-4.83515e-15 -9.04471e-07 -4.83515e-15)
(-2.36475e-13 -4.42354e-05 -2.36475e-13)
(-8.67667e-12 -0.00162307 -8.67667e-12)
(-8.67667e-12 -0.00162307 -8.67667e-12)
(-2.36476e-13 -4.42355e-05 -2.36476e-13)
(-8.67665e-12 -0.00162307 -8.67665e-12)
(-6.36602e-10 -0.119084 -6.36602e-10)
(-6.36602e-10 -0.119084 -6.36602e-10)
(-8.67667e-12 -0.00162307 -8.67667e-12)
(-2.36477e-13 -4.42358e-05 -2.36477e-13)
(-8.67667e-12 -0.00162307 -8.67667e-12)
(-8.67663e-12 -0.00162306 -8.67663e-12)
(-2.36479e-13 -4.42361e-05 -2.36479e-13)
(-4.83202e-15 -9.03885e-07 -4.83202e-15)
(-1.1827e-13 -2.21239e-05 -1.1827e-13)
(-1.18249e-13 -2.21199e-05 -1.18249e-13)
(-4.83292e-15 -9.04054e-07 -4.83292e-15)
(-8.74692e-17 -1.63621e-08 -8.74692e-17)
(-1.61268e-15 -3.01671e-07 -1.61268e-15)
(-1.61217e-15 -3.01574e-07 -1.61217e-15)
(-8.78211e-17 -1.6428e-08 -8.78211e-17)
(-1.48229e-18 -2.77279e-10 -1.48229e-18)
(-2.19969e-17 -4.11477e-09 -2.19969e-17)
(-2.19878e-17 -4.11307e-09 -2.19878e-17)
(-1.49649e-18 -2.79935e-10 -1.49649e-18)
(-2.40958e-20 -4.50739e-12 -2.40958e-20)
(-3.00126e-19 -5.6142e-11 -3.00126e-19)
(-2.99994e-19 -5.61173e-11 -2.99994e-19)
(-2.44866e-20 -4.58051e-12 -2.44867e-20)
(-3.80622e-22 -7.11998e-14 -3.80622e-22)
(-4.09606e-21 -7.66215e-13 -4.09606e-21)
(-4.0945e-21 -7.65924e-13 -4.0945e-21)
(-3.89636e-22 -7.28859e-14 -3.89636e-22)
(-5.88753e-24 -1.10133e-15 -5.88753e-24)
(-5.59167e-23 -1.04599e-14 -5.59167e-23)
(-5.59042e-23 -1.04575e-14 -5.59042e-23)
(-6.07491e-24 -1.13638e-15 -6.07492e-24)
(-8.96206e-26 -1.67646e-17 -8.96206e-26)
(-7.63518e-25 -1.42825e-16 -7.63518e-25)
(-7.63554e-25 -1.42832e-16 -7.63554e-25)
(-9.32581e-26 -1.7445e-17 -9.32581e-26)
(-1.34705e-27 -2.51982e-19 -1.34705e-27)
(-1.04278e-26 -1.95064e-18 -1.04278e-26)
(-1.04324e-26 -1.9515e-18 -1.04324e-26)
(-1.4143e-27 -2.64561e-19 -1.4143e-27)
(-2.03401e-29 -3.80484e-21 -2.03401e-29)
(-1.44394e-28 -2.70106e-20 -1.44394e-28)
(-1.44535e-28 -2.70369e-20 -1.44535e-28)
(-2.15554e-29 -4.03218e-21 -2.15554e-29)
(-2.04538e-28 -3.82611e-20 -2.04538e-28)
(-1.37154e-27 -2.56562e-19 -1.37154e-27)
(-1.28396e-27 -2.40179e-19 -1.28396e-27)
(-9.905e-29 -1.85285e-20 -9.905e-29)
(-1.21641e-26 -2.27544e-18 -1.21641e-26)
(-8.98726e-26 -1.68117e-17 -8.98726e-26)
(-8.50437e-26 -1.59084e-17 -8.50437e-26)
(-6.41625e-27 -1.20023e-18 -6.41625e-27)
(-7.18771e-25 -1.34454e-16 -7.18771e-25)
(-5.90168e-24 -1.10398e-15 -5.90168e-24)
(-5.64398e-24 -1.05577e-15 -5.64398e-24)
(-4.15469e-25 -7.77183e-17 -4.15469e-25)
(-4.12865e-23 -7.72311e-15 -4.12865e-23)
(-3.81385e-22 -7.13425e-14 -3.81385e-22)
(-3.68561e-22 -6.89435e-14 -3.68561e-22)
(-2.63528e-23 -4.9296e-15 -2.63528e-23)
(-2.28639e-21 -4.27696e-13 -2.28639e-21)
(-2.41345e-20 -4.51465e-12 -2.41345e-20)
(-2.35612e-20 -4.40739e-12 -2.35612e-20)
(-1.62496e-21 -3.03968e-13 -1.62496e-21)
(-1.20557e-19 -2.25515e-11 -1.20557e-19)
(-1.48409e-18 -2.77617e-10 -1.48409e-18)
(-1.46283e-18 -2.73639e-10 -1.46283e-18)
(-9.61737e-20 -1.79904e-11 -9.61737e-20)
(-5.93059e-18 -1.10939e-09 -5.93059e-18)
(-8.75414e-17 -1.63756e-08 -8.75414e-17)
(-8.70251e-17 -1.62791e-08 -8.70252e-17)
(-5.33424e-18 -9.9783e-10 -5.33424e-18)
(-2.62396e-16 -4.90842e-08 -2.62396e-16)
(-4.83408e-15 -9.0427e-07 -4.83408e-15)
(-4.83515e-15 -9.04471e-07 -4.83515e-15)
(-2.62718e-16 -4.91444e-08 -2.62718e-16)
(-9.6621e-15 -1.80741e-06 -9.6621e-15)
(-2.36476e-13 -4.42355e-05 -2.36476e-13)
(-2.36476e-13 -4.42355e-05 -2.36476e-13)
(-9.66332e-15 -1.80764e-06 -9.66332e-15)
(-2.36431e-13 -4.42271e-05 -2.36431e-13)
(-8.67665e-12 -0.00162307 -8.67665e-12)
(-8.67667e-12 -0.00162307 -8.67667e-12)
(-2.36454e-13 -4.42314e-05 -2.36454e-13)
(-9.66042e-15 -1.80709e-06 -9.66042e-15)
(-2.36499e-13 -4.42399e-05 -2.36499e-13)
(-2.36479e-13 -4.42361e-05 -2.36479e-13)
(-9.66163e-15 -1.80732e-06 -9.66163e-15)
(-2.40391e-16 -4.49678e-08 -2.40391e-16)
(-4.8135e-15 -9.00421e-07 -4.8135e-15)
(-4.83292e-15 -9.04054e-07 -4.83292e-15)
(-2.63231e-16 -4.92404e-08 -2.63231e-16)
(-5.33425e-18 -9.97833e-10 -5.33425e-18)
(-8.73008e-17 -1.63306e-08 -8.73008e-17)
(-8.78211e-17 -1.6428e-08 -8.78211e-17)
(-5.97713e-18 -1.11809e-09 -5.97713e-18)
(-1.08427e-19 -2.02824e-11 -1.08427e-19)
(-1.48605e-18 -2.77983e-10 -1.48605e-18)
(-1.49649e-18 -2.79935e-10 -1.49649e-18)
(-1.22165e-19 -2.28523e-11 -1.22165e-19)
(-2.06693e-21 -3.86643e-13 -2.06693e-21)
(-2.42999e-20 -4.54558e-12 -2.42999e-20)
(-2.44866e-20 -4.58051e-12 -2.44867e-20)
(-2.33073e-21 -4.35989e-13 -2.33073e-21)
(-3.7562e-23 -7.0264e-15 -3.7562e-23)
(-3.8649e-22 -7.22974e-14 -3.8649e-22)
(-3.89636e-22 -7.28859e-14 -3.89636e-22)
(-4.23547e-23 -7.92294e-15 -4.23547e-23)
(-6.58056e-25 -1.23097e-16 -6.58056e-25)
(-6.02373e-24 -1.12681e-15 -6.02373e-24)
(-6.07491e-24 -1.13638e-15 -6.07492e-24)
(-7.42287e-25 -1.38853e-16 -7.42287e-25)
(-1.12013e-26 -2.09533e-18 -1.12013e-26)
(-9.24428e-26 -1.72925e-17 -9.24428e-26)
(-9.32581e-26 -1.7445e-17 -9.32581e-26)
(-1.26492e-26 -2.36617e-18 -1.26492e-26)
(-1.86297e-28 -3.48491e-20 -1.86297e-28)
(-1.40149e-27 -2.62164e-19 -1.40149e-27)
(-1.4143e-27 -2.64561e-19 -1.4143e-27)
(-2.10788e-28 -3.94303e-20 -2.10788e-28)
(-3.08978e-30 -5.77979e-22 -3.08978e-30)
(-2.13528e-29 -3.99428e-21 -2.13528e-29)
(-2.15554e-29 -4.03218e-21 -2.15554e-29)
(-3.50473e-30 -6.55601e-22 -3.50473e-30)
)
;

boundaryField
{
    inlet
    {
        type            zeroGradient;
    }
    outlet
    {
        type            zeroGradient;
    }
    walls
    {
        type            zeroGradient;
    }
}


// ************************************************************************* //
