/*--------------------------------*- C++ -*----------------------------------*\
| =========                 |                                                 |
| \\      /  F ield         | OpenFOAM: The Open Source CFD Toolbox           |
|  \\    /   O peration     | Version:  5.x                                   |
|   \\  /    A nd           | Web:      www.OpenFOAM.org                      |
|    \\/     M anipulation  |                                                 |
\*---------------------------------------------------------------------------*/
FoamFile
{
    version     2.0;
    format      ascii;
    class       volScalarField;
    location    "0.048";
    object      phiIB;
}
// * * * * * * * * * * * * * * * * * * * * * * * * * * * * * * * * * * * * * //

dimensions      [0 2 -1 0 0 0 0];

internalField   nonuniform List<scalar> 
1609
(
-3.73218e-05
-3.73196e-05
-3.73292e-05
-3.73256e-05
-3.73461e-05
-3.73196e-05
-3.73173e-05
-3.73269e-05
-3.73233e-05
-3.73439e-05
-3.73291e-05
-3.73268e-05
-3.73363e-05
-3.73327e-05
-3.73531e-05
-3.73256e-05
-3.73233e-05
-3.73327e-05
-3.73292e-05
-3.73496e-05
-3.7346e-05
-3.73438e-05
-3.73531e-05
-3.73496e-05
-3.73697e-05
-7.79766e-05
-7.79766e-05
-7.79795e-05
-7.79809e-05
-7.79872e-05
-7.79765e-05
-7.79765e-05
-7.79794e-05
-7.79809e-05
-7.79872e-05
-7.79794e-05
-7.79794e-05
-7.79821e-05
-7.79836e-05
-7.79898e-05
-7.79809e-05
-7.79808e-05
-7.79836e-05
-7.79851e-05
-7.79913e-05
-7.79871e-05
-7.79871e-05
-7.79898e-05
-7.79913e-05
-7.79974e-05
-0.000173438
-0.000173437
-0.000173448
-0.00017345
-0.000173475
-0.000173437
-0.000173436
-0.000173447
-0.000173449
-0.000173474
-0.000173448
-0.000173447
-0.000173459
-0.00017346
-0.000173485
-0.00017345
-0.000173449
-0.00017346
-0.000173461
-0.000173486
-0.000173475
-0.000173473
-0.000173485
-0.000173486
-0.000173511
-0.000231481
-0.000231481
-0.000231493
-0.000231497
-0.000231521
-0.000231481
-0.000231481
-0.000231493
-0.000231497
-0.000231521
-0.000231493
-0.000231493
-0.000231505
-0.000231508
-0.000231532
-0.000231497
-0.000231497
-0.000231508
-0.000231512
-0.000231536
-0.000231521
-0.000231521
-0.000231532
-0.000231536
-0.00023156
-0.000317494
-0.000317494
-0.000317513
-0.000317518
-0.000317558
-0.000317494
-0.000317494
-0.000317513
-0.000317518
-0.000317558
-0.000317513
-0.000317513
-0.000317533
-0.000317538
-0.000317577
-0.000317518
-0.000317518
-0.000317538
-0.000317542
-0.000317582
-0.000317558
-0.000317558
-0.000317577
-0.000317582
-0.00031762
-0.000383911
-0.000383913
-0.00038394
-0.000383948
-0.000384002
-0.000383913
-0.000383914
-0.000383941
-0.00038395
-0.000384004
-0.00038394
-0.000383941
-0.000383968
-0.000383977
-0.00038403
-0.000383948
-0.00038395
-0.000383977
-0.000383985
-0.000384038
-0.000384002
-0.000384003
-0.00038403
-0.000384038
-0.000384089
-0.00046336
-0.000463363
-0.000463401
-0.000463413
-0.000463489
-0.000463362
-0.000463365
-0.000463404
-0.000463415
-0.000463491
-0.000463401
-0.000463403
-0.000463441
-0.000463453
-0.000463527
-0.000463413
-0.000463415
-0.000463453
-0.000463464
-0.000463538
-0.000463489
-0.000463491
-0.000463527
-0.000463538
-0.00046361
-0.000534097
-0.000534101
-0.000534158
-0.000534176
-0.000534286
-0.000534101
-0.000534105
-0.000534162
-0.000534179
-0.00053429
-0.000534158
-0.000534162
-0.000534218
-0.000534234
-0.000534343
-0.000534176
-0.000534179
-0.000534234
-0.000534251
-0.000534359
-0.000534286
-0.000534289
-0.000534343
-0.000534358
-0.000534463
-0.000609772
-0.000609778
-0.000609856
-0.000609882
-0.000610029
-0.000609778
-0.000609785
-0.000609861
-0.000609885
-0.000610032
-0.000609856
-0.000609861
-0.000609933
-0.000609956
-0.0006101
-0.000609881
-0.000609885
-0.000609956
-0.000609978
-0.00061012
-0.000610029
-0.000610032
-0.0006101
-0.00061012
-0.000610257
-0.000682268
-0.000682272
-0.000682381
-0.000682406
-0.000682624
-0.000682272
-0.000682276
-0.000682383
-0.000682407
-0.000682623
-0.000682381
-0.000682383
-0.000682484
-0.000682507
-0.000682718
-0.000682406
-0.000682407
-0.000682507
-0.00068253
-0.00068274
-0.000682623
-0.000682623
-0.000682718
-0.00068274
-0.000682943
-0.000755453
-0.000755447
-0.000755563
-0.000755584
-0.00075586
-0.000755447
-0.00075544
-0.000755556
-0.000755576
-0.00075585
-0.000755563
-0.000755556
-0.000755668
-0.000755687
-0.000755954
-0.000755584
-0.000755576
-0.000755687
-0.000755706
-0.000755971
-0.000755859
-0.00075585
-0.000755954
-0.000755971
-0.000756224
-0.000827962
-0.000827925
-0.000828092
-0.00082805
-0.000828437
-0.000827925
-0.00082789
-0.000828052
-0.000828016
-0.000828405
-0.000828092
-0.000828052
-0.000828184
-0.000828156
-0.000828538
-0.00082805
-0.000828016
-0.000828156
-0.000828142
-0.000828531
-0.000828436
-0.000828405
-0.000828538
-0.000828531
-0.000828909
-0.000899331
-0.000899116
-0.000898959
-0.000898677
-0.000899078
-0.000899116
-0.000898931
-0.000898833
-0.000898593
-0.000899011
-0.000898959
-0.000898832
-0.000898882
-0.000898714
-0.000899145
-0.000898677
-0.000898593
-0.000898714
-0.000898607
-0.000899049
-0.000899077
-0.000899011
-0.000899145
-0.000899049
-0.000899473
-0.000971084
-0.000970299
-0.000969282
-0.000968651
-0.000969037
-0.000970299
-0.000969662
-0.000968967
-0.000968434
-0.000968868
-0.000969281
-0.000968966
-0.000968805
-0.000968431
-0.000968942
-0.000968651
-0.000968434
-0.000968431
-0.000968102
-0.000968664
-0.000969036
-0.000968868
-0.000968941
-0.000968664
-0.000969201
-0.00103568
-0.00103529
-0.00103484
-0.00103377
-0.00103378
-0.00103529
-0.00103481
-0.00103416
-0.00103319
-0.00103338
-0.00103484
-0.00103416
-0.00103328
-0.00103267
-0.00103319
-0.00103377
-0.00103319
-0.00103267
-0.0010321
-0.00103268
-0.00103378
-0.00103338
-0.00103319
-0.00103268
-0.00103315
-0.00108996
-0.00108995
-0.00109057
-0.00109036
-0.0010911
-0.00108995
-0.00108991
-0.00109047
-0.00109017
-0.0010908
-0.00109057
-0.00109047
-0.00109081
-0.00109026
-0.00109092
-0.00109035
-0.00109017
-0.00109026
-0.00108958
-0.00109033
-0.0010911
-0.0010908
-0.00109092
-0.00109033
-0.00109138
-0.00113149
-0.00113194
-0.00113337
-0.00113418
-0.00113649
-0.00113194
-0.00113232
-0.00113366
-0.00113428
-0.00113625
-0.00113337
-0.00113366
-0.00113498
-0.0011354
-0.00113688
-0.00113418
-0.00113428
-0.0011354
-0.00113562
-0.001137
-0.00113648
-0.00113625
-0.00113688
-0.001137
-0.00113917
-0.00115799
-0.00115942
-0.00116265
-0.00116522
-0.00116978
-0.00115942
-0.00116063
-0.00116354
-0.00116576
-0.00117001
-0.00116265
-0.00116354
-0.00116604
-0.00116775
-0.00117114
-0.00116521
-0.00116576
-0.00116774
-0.00116905
-0.00117217
-0.00116978
-0.00117
-0.00117114
-0.00117217
-0.0011758
-0.00117433
-0.00117725
-0.00118267
-0.00118728
-0.0011937
-0.00117725
-0.00117975
-0.00118452
-0.00118851
-0.00119442
-0.00118267
-0.00118452
-0.00118852
-0.00119164
-0.0011968
-0.00118728
-0.00118851
-0.00119164
-0.00119418
-0.00119904
-0.00119369
-0.00119442
-0.0011968
-0.00119904
-0.00120356
-0.00117696
-0.00118123
-0.00118905
-0.00119666
-0.00120675
-0.00118122
-0.00118512
-0.00119225
-0.00119885
-0.0012082
-0.00118904
-0.00119225
-0.0011985
-0.00120391
-0.00121247
-0.00119665
-0.00119884
-0.0012039
-0.00120819
-0.00121594
-0.00120674
-0.00120819
-0.00121247
-0.00121594
-0.00122263
-0.00118484
-0.0011908
-0.00119953
-0.00120955
-0.00122282
-0.00119079
-0.00119598
-0.00120392
-0.00121263
-0.00122449
-0.00119953
-0.00120392
-0.00121134
-0.00121842
-0.00122928
-0.00120955
-0.00121263
-0.00121842
-0.0012238
-0.00123331
-0.00122281
-0.00122448
-0.00122928
-0.00123331
-0.00124184
-0.00118233
-0.00118877
-0.00119783
-0.00120756
-0.00122619
-0.00118876
-0.00119361
-0.00120177
-0.00121092
-0.00122824
-0.00119783
-0.00120177
-0.00120968
-0.00121819
-0.00123457
-0.00120755
-0.00121092
-0.00121818
-0.00122506
-0.00123857
-0.00122618
-0.00122823
-0.00123456
-0.00123856
-0.00124982
-0.0011659
-0.00118442
-0.00119768
-0.00121634
-0.00123909
-0.00118442
-0.00119751
-0.00120741
-0.00122276
-0.00124211
-0.00119767
-0.00120741
-0.00121765
-0.00123006
-0.00124872
-0.00121634
-0.00122275
-0.00123006
-0.00123862
-0.00125345
-0.00123908
-0.00124211
-0.00124871
-0.00125345
-0.00126705
-0.00115824
-0.00118291
-0.00119791
-0.00121331
-0.0012417
-0.00118291
-0.00119615
-0.00120691
-0.00121807
-0.00124274
-0.0011979
-0.00120691
-0.00121706
-0.00122569
-0.00124708
-0.0012133
-0.00121806
-0.00122569
-0.00123138
-0.0012482
-0.00124168
-0.00124273
-0.00124708
-0.00124819
-0.00126371
-0.00105755
-0.00113175
-0.00115512
-0.0012002
-0.00123794
-0.00113175
-0.00117431
-0.00118434
-0.00121586
-0.00124269
-0.0011551
-0.00118433
-0.00119886
-0.00122278
-0.00124995
-0.00120019
-0.00121585
-0.00122278
-0.00123589
-0.00125601
-0.00123793
-0.00124268
-0.00124994
-0.00125601
-0.00127657
-0.00101801
-0.00115143
-0.00116799
-0.0012005
-0.00124426
-0.00115143
-0.00119622
-0.00119826
-0.00121194
-0.00124434
-0.00116798
-0.00119825
-0.00120758
-0.00121561
-0.00124779
-0.00120049
-0.00121193
-0.00121561
-0.00122007
-0.00124536
-0.00124424
-0.00124433
-0.00124778
-0.00124535
-0.00126591
-0.000721788
-0.00100865
-0.0010526
-0.00114641
-0.00120341
-0.00100863
-0.00113513
-0.00112671
-0.00117672
-0.00121533
-0.00105257
-0.00112669
-0.00114319
-0.00118096
-0.00122353
-0.00114639
-0.0011767
-0.00118095
-0.00120899
-0.00123549
-0.00120337
-0.00121531
-0.00122352
-0.00123548
-0.00126188
-0.000413906
-0.0011011
-0.00105903
-0.00114875
-0.00121851
-0.00110112
-0.00121109
-0.00115671
-0.00117724
-0.00121826
-0.00105902
-0.00115669
-0.00115761
-0.00117798
-0.0012229
-0.00114873
-0.00117723
-0.00117798
-0.00118656
-0.00121483
-0.00121848
-0.00121824
-0.00122289
-0.00121482
-0.00124131
0.00166343
-0.000426086
-0.000933787
-0.00107738
-0.00118122
-0.000425607
-0.00090334
-0.00104306
-0.00113115
-0.00118826
-0.00093382
-0.00104306
-0.00109067
-0.00114572
-0.00118666
-0.00107734
-0.00113114
-0.00114571
-0.00117281
-0.00119434
-0.00118116
-0.00118823
-0.00118663
-0.00119433
-0.00121148
0.00282585
-0.000782191
-0.00142732
-0.00122035
-0.00119102
-0.00078214
-0.000968296
-0.00123384
-0.0011766
-0.00116228
-0.00142742
-0.00123384
-0.00118811
-0.00115091
-0.00116494
-0.00122031
-0.00117659
-0.00115091
-0.0011398
-0.00114452
-0.00119099
-0.00116225
-0.00116492
-0.00114451
-0.00116821
-0.00267278
-0.00196957
-0.00143336
-0.00108391
-0.00113393
-0.00196945
-0.00105638
-0.00113052
-0.00111963
-0.00110654
-0.00143333
-0.00113051
-0.00110976
-0.00109953
-0.00110683
-0.00108389
-0.00111962
-0.00109952
-0.00111935
-0.00111054
-0.00113387
-0.00110651
-0.00110681
-0.00111053
-0.00110827
-0.000123293
-0.00309015
-0.00145333
-0.00106358
-0.00105541
-0.00309013
-0.000957902
-0.00100527
-0.00107223
-0.00102679
-0.00145329
-0.00100525
-0.00100553
-0.00103017
-0.00104001
-0.00106355
-0.00107221
-0.00103017
-0.00104588
-0.00103059
-0.00105536
-0.00102675
-0.00103998
-0.00103058
-0.00104834
0.00661594
0.00262496
-0.000849514
-0.00103071
-0.000948158
0.00262523
-6.69698e-05
-0.000831856
-0.00101488
-0.000935543
-0.000849483
-0.000831812
-0.000895931
-0.000965599
-0.000948679
-0.00103068
-0.00101486
-0.000965588
-0.00100672
-0.00096791
-0.000948094
-0.000935493
-0.000948652
-0.000967897
-0.000963658
-0.000812008
-0.00122155
-0.0011773
-0.00104222
-0.00100168
-0.0012215
-0.00106499
-0.00104534
-0.00100776
-0.000959697
-0.00117727
-0.00104532
-0.00102707
-0.00098748
-0.000965147
-0.00104218
-0.00100774
-0.000987471
-0.000980647
-0.00095006
-0.00100163
-0.000959656
-0.000965129
-0.000950049
-0.000949797
-0.00106123
-0.000970646
-0.000800245
-0.000863356
-0.00080432
-0.000970635
-0.000930176
-0.000794507
-0.000880103
-0.000813932
-0.000800228
-0.000794494
-0.000807395
-0.000850338
-0.00082988
-0.000863324
-0.000880084
-0.000850329
-0.000877979
-0.000851349
-0.000804278
-0.000813902
-0.000829863
-0.000851343
-0.000850101
-0.000678216
-0.00101397
-0.000871121
-0.000939133
-0.000902981
-0.00101396
-0.00102916
-0.000936666
-0.000952023
-0.000899802
-0.000871105
-0.000936652
-0.000921801
-0.000927809
-0.00091037
-0.000939109
-0.000952005
-0.000927804
-0.000928225
-0.000901293
-0.000902951
-0.000899776
-0.000910358
-0.000901287
-0.000902393
-0.000851118
-0.000842475
-0.00075868
-0.000781653
-0.000749964
-0.000842467
-0.000838571
-0.00077139
-0.000791592
-0.000749674
-0.000758667
-0.000771384
-0.00075747
-0.000771649
-0.000750037
-0.000781634
-0.000791582
-0.000771643
-0.00076965
-0.000750215
-0.000749942
-0.000749662
-0.00075003
-0.000750214
-0.000748678
-0.000737776
-0.000809404
-0.000762845
-0.000760102
-0.000741123
-0.000809403
-0.000817543
-0.000771442
-0.000763948
-0.000743751
-0.000762838
-0.000771436
-0.000759583
-0.00075653
-0.000753605
-0.000760097
-0.000763942
-0.00075653
-0.000760631
-0.00075179
-0.000741117
-0.000743742
-0.000753601
-0.000751786
-0.000754374
-0.000329231
-0.000351047
-0.000343591
-0.000361552
-0.000357068
-0.000351045
-0.000362872
-0.000356189
-0.000367508
-0.000362317
-0.000343589
-0.00035619
-0.000357508
-0.000365724
-0.000369383
-0.000361549
-0.000367508
-0.000365723
-0.000371706
-0.000375544
-0.000357065
-0.000362318
-0.000369383
-0.000375546
-0.000385003
-0.000389131
-0.000360342
-0.000305393
-0.000259469
-0.000233617
-0.000360345
-0.000330777
-0.000281432
-0.000248451
-0.000226547
-0.000305392
-0.000281428
-0.000253757
-0.000233147
-0.000221999
-0.00025947
-0.000248449
-0.000233149
-0.000225588
-0.000214506
-0.000233614
-0.00022654
-0.000221997
-0.000214501
-0.000208917
-0.00284424
-0.00284411
-0.00160224
-0.00174107
-0.00115906
-0.00115899
-0.000802691
-0.00118321
-0.00177533
-0.000986052
-0.00169443
-3.69435e-05
-0.00063552
-5.44778e-05
-0.00177531
-0.00118303
-0.00098603
-0.00169436
-0.000635423
-3.68798e-05
-5.44612e-05
-0.00250801
-0.00250803
-0.00312219
0.00624033
0.00203453
0.00203457
0.000635606
0.00316478
0.00316487
-5.42684e-05
0.000425002
-0.000267675
-0.000267553
-0.00033539
-0.00305846
-0.00305837
-0.00112218
-0.00174281
-0.00148357
-0.00148356
-0.00065194
-0.00110224
-0.00104925
-0.00108739
-0.00154486
-0.00106545
-0.00119206
-0.000867141
-0.00104924
-0.00110226
-0.00108737
-0.00154484
-0.00119205
-0.00106543
-0.00086712
-0.00112153
-0.00112152
-0.000817802
-0.000810888
-0.000800263
-0.000800258
-0.000945855
-0.000877925
-0.000892367
-0.000857109
-0.00106792
-0.000850954
-0.00104853
-0.000802855
-0.000892357
-0.000877921
-0.000857092
-0.00106791
-0.00104852
-0.000850939
-0.000802846
-0.000856978
-0.00115251
-0.00115251
-0.00114695
-0.00113739
-0.00103592
-0.00103591
-0.00191454
-0.00194184
-0.00135733
-0.00135728
-0.000929475
-0.0019339
-0.00193383
-0.00235932
-0.00178355
-0.00184864
-0.000713196
-0.00176618
-0.001833
-0.00194907
-0.00235925
-0.00178347
-0.00184855
-0.000713189
-0.00176614
-0.00183297
-0.00194897
-0.00182571
-0.00173179
-0.00150468
-0.00150467
-0.00134271
-0.00183895
-0.00183892
-0.00179952
-0.00192103
-0.00174288
-0.00129505
-0.00169513
-0.00161664
-0.00180481
-0.00179959
-0.001921
-0.00174287
-0.00129504
-0.00169513
-0.00161665
-0.0018048
-0.0010668
-0.00107066
-0.0010432
-0.000790969
-0.0012054
-0.000656175
-0.00109418
-0.0010668
-0.00107065
-0.0010432
-0.000790959
-0.0012054
-0.000656173
-0.00109418
0.000635197
0.000635322
-0.000677577
-0.00237195
-0.00366911
-0.00366883
-0.00176967
-0.0022254
-0.00276567
-0.00276554
-0.00270757
-0.00289432
-0.00247566
-0.00247551
-0.00263865
-0.00274862
-0.00274084
-0.00218845
-0.00279249
-0.00203434
-0.00259983
-0.00263854
-0.00274838
-0.00274081
-0.00218836
-0.00279235
-0.00203438
-0.00259969
-0.00228847
-0.00108384
-0.00136562
-0.00136561
-0.0014755
-0.00147549
-0.00209152
-0.00406537
-0.00223344
-0.0022334
-0.000563023
-0.00345786
-0.0020075
-0.0020076
-0.00184737
-0.00110585
-0.00110583
-0.00145035
-0.00141979
-0.00162479
-0.00162478
-0.00185377
-0.00170023
-0.00250024
-0.00268279
-0.00190112
-0.00241139
-0.00175319
-0.0018538
-0.00170019
-0.00250015
-0.00268273
-0.00190106
-0.00241134
-0.00175316
-0.00106294
-0.00130662
-0.00110533
-0.00149051
-0.00131796
-0.000919801
-0.00117039
-0.00106291
-0.0013066
-0.00149051
-0.00110531
-0.00131794
-0.000919786
-0.00117035
-0.00259444
-0.00259433
-0.00283038
-0.00247297
-0.00163219
-0.00204635
-0.00204624
-0.000999402
-0.000693039
-0.000613462
-0.00206361
-0.00130352
-0.00158388
-0.00124376
-0.000691822
-0.000998769
-0.000613324
-0.00206349
-0.00158383
-0.00130339
-0.00124357
-0.00145293
-0.00173972
-0.00202331
-0.00228271
-0.00167948
-0.00223154
-0.00163457
-0.0014529
-0.00202313
-0.00173965
-0.00228262
-0.00167944
-0.00223153
-0.00163449
-0.0029082
-0.0036146
-0.00301439
-0.00322612
-0.00339655
-0.00275997
-0.00280027
-0.00290797
-0.00361469
-0.00301427
-0.003226
-0.00339619
-0.00275943
-0.00280006
-0.00271569
-0.0015509
-0.00155087
-0.00120471
-0.00277209
-0.00152514
-0.0015251
-0.00240882
-0.00240882
-0.00370552
-0.00409691
-0.00156198
-0.00246542
-0.00246553
-0.00101691
-0.00101692
-0.000941345
-0.000924559
-0.00105806
-0.00105807
-0.000854642
0.0015965
0.00247395
3.41197e-05
3.41216e-05
-0.000462219
0.00205151
0.00205154
-0.000396238
-4.40263e-05
-0.00106363
-0.00113612
-0.000952013
-0.000804568
-0.000786728
-4.39444e-05
-0.000396305
-0.00106357
-0.00113611
-0.000804597
-0.000951978
-0.000786665
-0.00119443
-0.00136634
-0.00114002
-0.0014027
-0.00114023
-0.00126158
-0.00129709
-0.00119438
-0.00114004
-0.00136629
-0.00140266
-0.00114018
-0.00126154
-0.00129705
0.000894931
0.00222855
-0.000731144
-0.000237332
0.00114014
-0.00148287
0.000711416
0.000894984
0.00222864
-0.00073118
-0.000237263
0.00114031
-0.00148314
0.00071139
0.000280274
0.000280784
-0.000218338
0.00751815
0.000304513
0.000305956
-0.00044559
-0.00132088
0.00186482
0.00186538
-6.76446e-05
0.00143303
-0.000733686
-0.000733513
-0.00269724
0.000322085
-0.000554051
9.40622e-06
0.000212659
-0.00053991
-0.00209533
-0.00269675
0.000324072
-0.000553365
9.70561e-06
0.000220034
-0.000541732
-0.00209506
-0.00172418
-0.00187504
-0.00165416
-0.00197071
-0.00201076
-0.00126124
-0.00147068
-0.00187491
-0.00172411
-0.0016542
-0.00197048
-0.00201018
-0.001261
-0.00147062
0.00174325
-6.12124e-05
-0.000970636
-0.000970449
-7.93012e-05
-7.92756e-05
-0.00124746
-0.00177461
-0.000735515
-0.000737142
-0.00104768
0.000114934
-0.00187107
-0.00187134
-0.00116003
-0.00109315
-0.000951573
-0.00106826
-0.0011572
-0.00127468
-0.000993882
-0.00116002
-0.00109313
-0.00095156
-0.00106823
-0.00115717
-0.00127465
-0.000993867
0.00389244
0.00476108
0.00476132
0.00545591
0.00433735
0.00536143
0.00536158
-0.00108336
-0.00108332
-0.000999586
-0.00156227
-0.00134347
-0.00134345
-0.00123817
-0.00185668
-0.00144088
-0.00163678
-0.00171588
-0.00183731
-0.00164293
-0.00128061
-0.00185656
-0.00144087
-0.00163677
-0.00171556
-0.00183722
-0.00164298
-0.00128063
-0.000805924
-0.000749779
-0.0011733
-0.000604804
-0.000658487
-0.00131225
-0.00132267
-0.000805908
-0.00117346
-0.000749757
-0.000604765
-0.000658488
-0.00131224
-0.0013227
0.00354388
0.0070104
0.00234509
0.00367834
0.00566427
0.00253368
0.00424678
0.00354444
0.00701065
0.00234494
0.00367856
0.00566428
0.00253381
0.0042471
0.00477967
0.00478044
0.00228264
0.00353054
0.0040442
0.00379034
0.00379258
-0.000601792
-0.000502526
-0.000662334
-0.000242735
-0.000635332
-0.000868238
-0.000773583
-0.000502274
-0.000601422
-0.00066234
-0.000243001
-0.000868045
-0.000634928
-0.000773252
-0.000735456
-0.00221554
-0.00204544
-0.00104278
-0.000713074
-0.000916605
-0.000903732
-0.000733775
-0.00221538
-0.00204557
-0.00104321
-0.000713157
-0.000916262
-0.00090375
0.00279772
0.00129589
0.00129587
0.000450355
0.00323874
0.00126465
0.00126464
0.00202304
7.9493e-05
0.00191239
0.00177406
0.000505501
0.000131783
0.00288278
0.00202678
8.09689e-05
0.00191613
0.00177411
0.000506401
0.000130023
0.00288357
-0.000130052
-0.000131104
0.00107812
0.000769394
-0.000475679
-8.45206e-05
-8.4707e-05
-0.000725258
-0.000725282
-0.00090669
-0.000718911
-0.00102439
-0.00102439
-0.000831876
-0.000528418
-0.00073402
-0.000648473
-0.000183287
-0.000815355
-0.000850354
-0.000705866
-0.000528327
-0.000734006
-0.000648461
-0.000183267
-0.000815329
-0.000850354
-0.000705817
-0.000635505
0.000486372
0.00561742
0.00561761
0.00494096
-0.000186625
-0.000186435
7.15179e-05
-0.00149194
-0.00132642
-0.00173217
-0.000925775
-0.00128198
-0.00109065
7.13233e-05
-0.00149147
-0.00132657
-0.00173252
-0.000925615
-0.00128225
-0.00109076
0.000822306
-0.00197765
2.35903e-05
0.00219943
-0.00152767
-8.50206e-05
-0.00251925
-0.00197753
0.000822396
2.36426e-05
0.00219929
-8.48061e-05
-0.00152766
-0.00251922
-0.000202412
0.00253318
0.00193851
0.000558658
0.00172553
-0.00173308
-0.00243756
0.00253302
-0.000202389
0.00193888
0.000558507
0.00172563
-0.00173326
-0.00243766
-0.00109595
-0.000570946
0.00675063
0.00113077
-0.000492812
0.00519576
-0.00113365
-0.00109581
-0.000570993
0.00675093
0.00113041
-0.000493049
0.00519557
-0.00113332
)
;

boundaryField
{
    inlet
    {
        type            fixedValue;
        value           uniform 0;
    }
    wall
    {
        type            zeroGradient;
    }
    outlet
    {
        type            fixedValue;
        value           uniform 0;
    }
    procBoundary3to1
    {
        type            processor;
        value           nonuniform List<scalar> 
329
(
-3.73231e-05
-3.73208e-05
-3.73303e-05
-3.73266e-05
-3.73472e-05
-7.79773e-05
-7.79773e-05
-7.798e-05
-7.79815e-05
-7.79877e-05
-0.000173439
-0.000173438
-0.00017345
-0.000173451
-0.000173476
-0.000231482
-0.000231482
-0.000231494
-0.000231498
-0.000231522
-0.000317495
-0.000317495
-0.000317515
-0.00031752
-0.00031756
-0.000383912
-0.000383915
-0.000383942
-0.00038395
-0.000384004
-0.000463362
-0.000463365
-0.000463404
-0.000463416
-0.000463492
-0.000534098
-0.000534104
-0.000534161
-0.000534179
-0.000534289
-0.000609773
-0.000609781
-0.000609859
-0.000609885
-0.000610033
-0.000682269
-0.000682276
-0.000682385
-0.00068241
-0.000682628
-0.000755455
-0.00075545
-0.000755568
-0.000755589
-0.000755865
-0.000827965
-0.000827929
-0.000828097
-0.000828055
-0.000828442
-0.000899335
-0.000899122
-0.000898966
-0.000898684
-0.000899086
-0.000971075
-0.000970293
-0.000969284
-0.000968656
-0.000969042
-0.00103568
-0.00103529
-0.00103484
-0.00103377
-0.00103378
-0.00108997
-0.00108997
-0.00109058
-0.00109037
-0.00109111
-0.00113153
-0.00113198
-0.00113342
-0.00113422
-0.00113652
-0.00115804
-0.00115948
-0.00116271
-0.00116528
-0.00116986
-0.00117441
-0.00117733
-0.00118276
-0.00118737
-0.00119379
-0.00117704
-0.00118132
-0.00118915
-0.00119676
-0.00120686
-0.00118493
-0.00119089
-0.00119964
-0.00120968
-0.00122294
-0.00118244
-0.00118888
-0.00119795
-0.00120769
-0.00122633
-0.00116597
-0.00118453
-0.00119781
-0.0012165
-0.00123927
-0.00115843
-0.00118312
-0.00119811
-0.0012135
-0.00124191
-0.00105748
-0.00113178
-0.00115526
-0.00120041
-0.00123822
-0.00101818
-0.00115189
-0.00116838
-0.00120088
-0.00124463
-0.000721514
-0.00100841
-0.00105279
-0.00114667
-0.00120389
-0.000412748
-0.00110167
-0.00105938
-0.00114934
-0.00121911
0.00166262
-0.000428353
-0.000933942
-0.00107778
-0.00118171
0.00282798
-0.000782772
-0.00142652
-0.00122055
-0.00119134
-0.00266572
-0.00197293
-0.00143215
-0.00108348
-0.0011334
-0.00031288
-0.00296617
-0.00145845
-0.00106676
-0.00105599
0.00651249
0.00262502
-0.000849924
-0.00103189
-0.00094848
-0.000817512
-0.0012227
-0.00117725
-0.00104306
-0.00100191
-0.00106644
-0.000975713
-0.000798008
-0.000864043
-0.000804293
-0.000681595
-0.00101476
-0.000872149
-0.000939354
-0.000903578
-0.000850484
-0.00084192
-0.000758817
-0.000781935
-0.000750178
-0.000738983
-0.000809269
-0.000763544
-0.00076023
-0.000741759
-0.000329285
-0.000351243
-0.000343715
-0.000361671
-0.000357028
-0.000390073
-0.000360519
-0.00030613
-0.000259876
-0.000234323
-0.00171093
-0.00114532
-0.00285466
-0.00170825
-3.83892e-05
-0.00119074
0.00608074
0.00195724
-0.00248938
0.000409912
-0.000265239
0.00311215
-0.00174964
-0.00148595
-0.00306107
-0.0015446
-0.00106482
-0.00110382
-0.000813368
-0.000819815
-0.00112115
-0.00106507
-0.000856525
-0.000878211
-0.00114748
-0.001037
-0.00115898
-0.00136884
-0.00190297
-0.00193981
-0.00181328
-0.00195707
-0.00187532
-0.00151007
-0.00184184
-0.00173487
-0.00192004
-0.00180626
-0.00175039
-0.00107594
-0.00109567
-0.000782002
-0.00236901
-0.00367187
0.000634167
-0.00269774
-0.00249832
-0.00276702
-0.00275125
-0.00262845
-0.00222446
-0.00145282
-0.00162652
-0.00110919
-0.00170211
-0.00175501
-0.0026852
-0.00110599
-0.00117168
-0.00130717
-0.00259143
-0.00204453
-0.00163053
-0.00206299
-0.00130573
-0.00100322
-0.00230088
-0.00165299
-0.00174229
-0.00339378
-0.00279736
-0.00290317
2.74147e-05
0.0020361
0.00242985
-0.00113446
-0.000956543
-0.000388885
-0.00140288
-0.00129722
-0.00136837
0.00223084
0.000722795
-0.000730251
0.00752106
0.000308868
0.000281337
-6.61783e-05
-0.000733156
0.00186465
0.000319461
-0.00209521
1.03168e-05
-0.0017227
-0.00146867
-0.00197188
0.00533901
0.00532062
0.00469977
-0.000750019
-0.00133003
-0.000805365
0.00697458
0.00425773
0.00366736
0.00478402
0.00378959
0.00404157
-0.000241841
-0.000636897
-0.000599875
-0.00221567
-0.000901663
-0.000710285
0.000505574
0.0028836
0.00202555
0.00556683
-0.000258673
0.000393821
0.00202817
-0.00152501
0.000842079
0.00192183
-0.00245437
-0.000222226
-0.000678238
-0.00114104
0.00676941
)
;
    }
    procBoundary3to2
    {
        type            processor;
        value           nonuniform List<scalar> 
329
(
-3.7323e-05
-3.73207e-05
-3.73302e-05
-3.73266e-05
-3.7347e-05
-7.79773e-05
-7.79772e-05
-7.798e-05
-7.79814e-05
-7.79876e-05
-0.000173439
-0.000173438
-0.00017345
-0.000173451
-0.000173476
-0.000231482
-0.000231482
-0.000231494
-0.000231498
-0.000231522
-0.000317495
-0.000317495
-0.000317515
-0.00031752
-0.00031756
-0.000383912
-0.000383914
-0.000383942
-0.00038395
-0.000384004
-0.000463361
-0.000463365
-0.000463404
-0.000463416
-0.000463491
-0.000534098
-0.000534104
-0.000534161
-0.000534178
-0.000534289
-0.000609773
-0.000609781
-0.000609859
-0.000609885
-0.000610033
-0.000682269
-0.000682275
-0.000682384
-0.00068241
-0.000682627
-0.000755455
-0.00075545
-0.000755567
-0.000755589
-0.000755865
-0.000827965
-0.000827929
-0.000828097
-0.000828055
-0.000828442
-0.000899335
-0.000899122
-0.000898966
-0.000898684
-0.000899085
-0.000971075
-0.000970293
-0.000969284
-0.000968656
-0.000969042
-0.00103568
-0.00103529
-0.00103484
-0.00103377
-0.00103378
-0.00108997
-0.00108997
-0.00109058
-0.00109037
-0.00109111
-0.00113153
-0.00113198
-0.00113341
-0.00113422
-0.00113651
-0.00115804
-0.00115948
-0.00116271
-0.00116528
-0.00116986
-0.0011744
-0.00117733
-0.00118275
-0.00118736
-0.00119379
-0.00117704
-0.00118131
-0.00118914
-0.00119675
-0.00120685
-0.00118492
-0.00119089
-0.00119963
-0.00120967
-0.00122293
-0.00118244
-0.00118887
-0.00119794
-0.00120768
-0.00122632
-0.00116596
-0.00118452
-0.0011978
-0.00121649
-0.00123926
-0.00115843
-0.00118311
-0.0011981
-0.00121349
-0.00124189
-0.00105747
-0.00113176
-0.00115524
-0.00120039
-0.0012382
-0.00101819
-0.00115187
-0.00116836
-0.00120086
-0.0012446
-0.000721457
-0.00100836
-0.00105274
-0.00114663
-0.00120385
-0.000412813
-0.00110165
-0.00105937
-0.0011493
-0.00121907
0.0016628
-0.000428084
-0.0009339
-0.00107772
-0.00118165
0.00282792
-0.000782044
-0.00142653
-0.00122048
-0.00119129
-0.00266567
-0.00197272
-0.00143207
-0.00108341
-0.00113332
-0.00031282
-0.0029661
-0.00145838
-0.00106669
-0.00105593
0.00651253
0.00262521
-0.000849862
-0.00103184
-0.000948411
-0.0008175
-0.00122266
-0.00117719
-0.001043
-0.00100184
-0.00106644
-0.000975684
-0.000797965
-0.000863997
-0.000804242
-0.000681579
-0.00101473
-0.000872111
-0.000939313
-0.00090353
-0.000850476
-0.000841905
-0.000758798
-0.000781908
-0.000750147
-0.000738974
-0.00080926
-0.000763528
-0.000760215
-0.000741744
-0.000329284
-0.000351241
-0.000343714
-0.000361668
-0.000357025
-0.000390067
-0.000360515
-0.000306124
-0.000259872
-0.000234316
-0.00285454
-0.00114522
-0.00171085
-0.00119056
-3.83106e-05
-0.00170814
-0.00248928
0.00195731
0.00608075
0.00311216
-0.000265176
0.000409918
-0.00306099
-0.00148593
-0.00174963
-0.00110379
-0.00106479
-0.00154458
-0.00112113
-0.000819797
-0.000813357
-0.000878179
-0.000856494
-0.00106505
-0.00115897
-0.00103698
-0.00114747
-0.00187521
-0.00195694
-0.00181316
-0.0019398
-0.00190287
-0.00136875
-0.00175036
-0.00180622
-0.00192
-0.00173485
-0.00184179
-0.00151003
-0.000781982
-0.00109565
-0.00107591
0.000634772
-0.0036717
-0.00236893
-0.00276682
-0.00249815
-0.00269777
-0.00222434
-0.00262827
-0.00275097
-0.00110917
-0.00162648
-0.00145281
-0.00268515
-0.00175496
-0.00170207
-0.00130715
-0.00117164
-0.00110596
-0.00163046
-0.00204438
-0.00259126
-0.0010029
-0.00130554
-0.00206278
-0.00174217
-0.00165289
-0.00230077
-0.00290288
-0.00279712
-0.00339326
0.00242986
0.00203612
2.74245e-05
-0.000388843
-0.000956497
-0.00113444
-0.00136832
-0.00129718
-0.00140285
-0.000730256
0.000722753
0.00223086
0.000281727
0.000308372
0.00752051
0.00186471
-0.000733049
-6.6141e-05
1.03311e-05
-0.00209522
0.000319051
-0.00197133
-0.00146847
-0.0017226
0.00469986
0.0053207
0.00533904
-0.000805354
-0.00133002
-0.000749985
0.00366737
0.00425785
0.00697463
0.00404033
0.00378981
0.00478374
-0.000599625
-0.000636539
-0.00024189
-0.000710065
-0.000901742
-0.0022154
0.00202538
0.00288212
0.000505386
0.000393834
-0.000258598
0.00556688
0.000842135
-0.00152501
0.00202826
-0.000222045
-0.00245434
0.00192196
0.00676944
-0.00114084
-0.000678074
)
;
    }
}


// ************************************************************************* //
