/*--------------------------------*- C++ -*----------------------------------*\
| =========                 |                                                 |
| \\      /  F ield         | OpenFOAM: The Open Source CFD Toolbox           |
|  \\    /   O peration     | Version:  5.x                                   |
|   \\  /    A nd           | Web:      www.OpenFOAM.org                      |
|    \\/     M anipulation  |                                                 |
\*---------------------------------------------------------------------------*/
FoamFile
{
    version     2.0;
    format      ascii;
    class       volVectorField;
    location    "0.048";
    object      U;
}
// * * * * * * * * * * * * * * * * * * * * * * * * * * * * * * * * * * * * * //

dimensions      [0 1 -1 0 0 0 0];

internalField   nonuniform List<vector> 
1609
(
(-6.69977e-07 -6.98618e-07 0.00269749)
(5.0264e-06 -7.19346e-07 0.00269655)
(5.13495e-06 -7.15198e-07 0.00269915)
(8.8791e-06 -7.22994e-07 0.0026972)
(9.28021e-06 -7.15738e-07 0.00270257)
(-6.9085e-07 4.99791e-06 0.00269656)
(5.01016e-06 4.98167e-06 0.00269562)
(5.12376e-06 4.95703e-06 0.00269821)
(8.86771e-06 4.94562e-06 0.00269627)
(9.27349e-06 4.90143e-06 0.00270164)
(-6.86781e-07 5.10882e-06 0.00269915)
(4.98552e-06 5.09767e-06 0.00269821)
(5.09891e-06 5.0728e-06 0.0027008)
(8.82347e-06 5.06474e-06 0.00269885)
(9.23531e-06 5.01704e-06 0.0027042)
(-6.94669e-07 8.85213e-06 0.0026972)
(4.97414e-06 8.84076e-06 0.00269626)
(5.09084e-06 8.79647e-06 0.00269886)
(8.81193e-06 8.78492e-06 0.00269693)
(9.22491e-06 8.70492e-06 0.00270227)
(-6.87537e-07 9.2575e-06 0.00270256)
(4.92989e-06 9.25074e-06 0.00270162)
(5.04309e-06 9.21253e-06 0.00270419)
(8.73192e-06 9.20212e-06 0.00270226)
(9.15366e-06 9.13087e-06 0.00270754)
(7.93597e-08 5.65942e-08 -0.000771762)
(2.61867e-06 8.49591e-08 -0.00077141)
(3.3808e-06 1.09094e-07 -0.000770927)
(4.64699e-06 1.18926e-07 -0.000770222)
(3.56089e-06 1.26343e-07 -0.000769685)
(1.0797e-07 2.59649e-06 -0.000771412)
(2.63741e-06 2.61514e-06 -0.000771057)
(3.38976e-06 2.61009e-06 -0.00077058)
(4.65029e-06 2.61204e-06 -0.000769875)
(3.5598e-06 2.58548e-06 -0.000769343)
(1.32068e-07 3.36218e-06 -0.000770929)
(2.63227e-06 3.37103e-06 -0.000770579)
(3.37769e-06 3.359e-06 -0.000770123)
(4.62235e-06 3.356e-06 -0.000769424)
(3.53371e-06 3.32415e-06 -0.00076892)
(1.42036e-07 4.63046e-06 -0.000770225)
(2.63423e-06 4.63368e-06 -0.000769876)
(3.37474e-06 4.60581e-06 -0.000769426)
(4.61541e-06 4.59884e-06 -0.000768728)
(3.52712e-06 4.54816e-06 -0.000768231)
(1.49462e-07 3.55182e-06 -0.000769686)
(2.60765e-06 3.55069e-06 -0.000769342)
(3.34288e-06 3.5246e-06 -0.00076892)
(4.5647e-06 3.51799e-06 -0.000768229)
(3.48168e-06 3.47255e-06 -0.000767768)
(-3.05035e-07 -3.35778e-07 0.00178423)
(5.97131e-06 -3.55367e-07 0.00178413)
(6.45652e-06 -3.67038e-07 0.0017878)
(1.03086e-05 -3.76997e-07 0.0017877)
(1.00022e-05 -3.84599e-07 0.00179388)
(-3.24635e-07 5.94087e-06 0.00178413)
(5.95264e-06 5.92218e-06 0.00178403)
(6.44039e-06 5.8704e-06 0.00178769)
(1.02917e-05 5.85316e-06 0.00178759)
(9.98993e-06 5.77575e-06 0.00179376)
(-3.36374e-07 6.42909e-06 0.00178779)
(5.90084e-06 6.41295e-06 0.00178768)
(6.3875e-06 6.36006e-06 0.00179131)
(1.02139e-05 6.3443e-06 0.0017912)
(9.92313e-06 6.26173e-06 0.00179731)
(-3.46345e-07 1.02815e-05 0.00178769)
(5.88361e-06 1.02646e-05 0.00178758)
(6.37174e-06 1.01868e-05 0.0017912)
(1.01933e-05 1.01662e-05 0.00179109)
(9.90551e-06 1.00418e-05 0.00179719)
(-3.54052e-07 9.98112e-06 0.00179387)
(5.80614e-06 9.96885e-06 0.00179375)
(6.28913e-06 9.90202e-06 0.00179731)
(1.00689e-05 9.88438e-06 0.00179718)
(9.7958e-06 9.77467e-06 0.00180319)
(-1.44035e-07 -1.72675e-07 2.34416e-06)
(6.18726e-06 -1.53635e-07 2.67881e-06)
(6.94845e-06 -1.27028e-07 6.3028e-06)
(1.07336e-05 -1.19619e-07 7.04779e-06)
(9.92558e-06 -1.11543e-07 1.28715e-05)
(-1.24903e-07 6.1592e-06 2.67634e-06)
(6.19441e-06 6.16629e-06 3.01159e-06)
(6.95008e-06 6.12223e-06 6.62727e-06)
(1.0728e-05 6.11408e-06 7.3713e-06)
(9.91794e-06 6.02091e-06 1.31823e-05)
(-9.83582e-08 6.924e-06 6.29735e-06)
(6.15028e-06 6.92556e-06 6.62427e-06)
(6.89624e-06 6.87176e-06 1.01763e-05)
(1.06323e-05 6.86057e-06 1.09065e-05)
(9.83002e-06 6.75632e-06 1.6619e-05)
(-9.09155e-08 1.07103e-05 7.0407e-06)
(6.14217e-06 1.07046e-05 7.36665e-06)
(6.88509e-06 1.06089e-05 1.09049e-05)
(1.06125e-05 1.05891e-05 1.16332e-05)
(9.81086e-06 1.04238e-05 1.73242e-05)
(-8.28845e-08 9.90926e-06 1.28619e-05)
(6.04894e-06 9.90157e-06 1.31751e-05)
(6.78081e-06 9.81364e-06 1.66148e-05)
(1.04472e-05 9.79446e-06 1.73217e-05)
(9.66034e-06 9.64394e-06 2.28604e-05)
(-6.50619e-08 -1.01505e-07 0.00120408)
(9.93004e-06 -1.23267e-07 0.00120447)
(1.08256e-05 -1.47815e-07 0.00121105)
(1.68798e-05 -1.60253e-07 0.00121197)
(1.60197e-05 -1.86282e-07 0.00122263)
(-8.68052e-08 9.89414e-06 0.00120447)
(9.90366e-06 9.86773e-06 0.00120486)
(1.08002e-05 9.74394e-06 0.00121142)
(1.68491e-05 9.712e-06 0.00121233)
(1.59943e-05 9.5233e-06 0.00122297)
(-1.11456e-07 1.07936e-05 0.00121104)
(9.77983e-06 1.07681e-05 0.00121141)
(1.06699e-05 1.06378e-05 0.00121787)
(1.6659e-05 1.06063e-05 0.00121875)
(1.58265e-05 1.04038e-05 0.00122923)
(-1.23893e-07 1.68485e-05 0.00121196)
(9.74791e-06 1.68178e-05 0.00121232)
(1.06384e-05 1.66277e-05 0.00121875)
(1.66151e-05 1.65837e-05 0.00121963)
(1.57867e-05 1.62853e-05 0.00123007)
(-1.50071e-07 1.59961e-05 0.00122261)
(9.55911e-06 1.59706e-05 0.00122295)
(1.04359e-05 1.58028e-05 0.00122922)
(1.63166e-05 1.5763e-05 0.00123006)
(1.55208e-05 1.5497e-05 0.00124025)
(1.08723e-07 7.04879e-08 0.000380339)
(1.31585e-05 7.28408e-08 0.000380981)
(1.44413e-05 7.67549e-08 0.000389408)
(2.23142e-05 7.45385e-08 0.000390848)
(2.0915e-05 5.86442e-08 0.000404462)
(1.11154e-07 1.3121e-05 0.000380977)
(1.31411e-05 1.31035e-05 0.000381617)
(1.44186e-05 1.29417e-05 0.000390024)
(2.22792e-05 1.29007e-05 0.000391459)
(2.08839e-05 1.26268e-05 0.000405041)
(1.14946e-07 1.44082e-05 0.000389398)
(1.29791e-05 1.43854e-05 0.000390018)
(1.42385e-05 1.42053e-05 0.00039826)
(2.19992e-05 1.41594e-05 0.000399659)
(2.06338e-05 1.38595e-05 0.000412982)
(1.12766e-07 2.22822e-05 0.000390835)
(1.29382e-05 2.22472e-05 0.00039145)
(1.41926e-05 2.19671e-05 0.000399657)
(2.19333e-05 2.19011e-05 0.000401049)
(2.05756e-05 2.14453e-05 0.000414316)
(9.67341e-08 2.08914e-05 0.000404443)
(1.26642e-05 2.08602e-05 0.000405026)
(1.38926e-05 2.06101e-05 0.000412974)
(2.14774e-05 2.05518e-05 0.00041431)
(2.01651e-05 2.01413e-05 0.000427172)
(3.90911e-07 3.43906e-07 0.000901611)
(1.89996e-05 3.13255e-07 0.000902696)
(2.06924e-05 2.63722e-07 0.000915532)
(3.19385e-05 2.44179e-07 0.000917835)
(3.00788e-05 1.80558e-07 0.000938518)
(3.60317e-07 1.89535e-05 0.000902691)
(1.89508e-05 1.89046e-05 0.000903764)
(2.06426e-05 1.85963e-05 0.00091655)
(3.18711e-05 1.85236e-05 0.000918839)
(3.002e-05 1.80439e-05 0.000939453)
(3.10582e-07 2.06515e-05 0.000915518)
(1.86423e-05 2.06016e-05 0.000916541)
(2.03114e-05 2.02704e-05 0.00092907)
(3.1386e-05 2.0196e-05 0.000931285)
(2.95866e-05 1.96786e-05 0.000951496)
(2.91025e-07 3.18988e-05 0.000917819)
(1.85697e-05 3.18313e-05 0.000918826)
(2.0237e-05 3.13461e-05 0.000931282)
(3.12791e-05 3.12392e-05 0.000933474)
(2.94887e-05 3.04805e-05 0.000953574)
(2.27117e-07 3.0049e-05 0.000938492)
(1.80898e-05 2.99901e-05 0.000939432)
(1.97195e-05 2.95567e-05 0.000951484)
(3.05204e-05 2.94587e-05 0.000953565)
(2.88085e-05 2.87785e-05 0.000973021)
(9.79768e-07 9.27255e-07 0.000514165)
(2.70798e-05 9.05121e-07 0.000515621)
(2.95808e-05 8.48004e-07 0.00053292)
(4.53075e-05 8.26056e-07 0.000536053)
(4.22552e-05 7.36976e-07 0.000563926)
(9.57738e-07 2.70285e-05 0.000515615)
(2.69995e-05 2.69481e-05 0.000517058)
(2.94937e-05 2.64796e-05 0.000534304)
(4.51907e-05 2.63498e-05 0.000537418)
(4.21546e-05 2.56053e-05 0.000565201)
(9.00384e-07 2.95354e-05 0.000532904)
(2.65309e-05 2.94482e-05 0.000534294)
(2.89825e-05 2.8937e-05 0.000551118)
(4.4433e-05 2.87951e-05 0.000554121)
(4.14897e-05 2.79801e-05 0.000581248)
(8.78461e-07 4.52637e-05 0.000536033)
(2.64012e-05 4.51466e-05 0.000537404)
(2.88407e-05 4.43889e-05 0.000554117)
(4.42335e-05 4.41894e-05 0.000557087)
(4.1316e-05 4.29777e-05 0.000584056)
(7.89075e-07 4.22225e-05 0.000563897)
(2.56564e-05 4.21218e-05 0.000565178)
(2.80255e-05 4.14568e-05 0.000581234)
(4.30217e-05 4.1283e-05 0.000584046)
(4.02439e-05 4.0211e-05 0.000609999)
(1.54133e-06 1.47756e-06 0.000731333)
(3.77545e-05 1.42817e-06 0.000733903)
(4.11244e-05 1.31447e-06 0.000759549)
(6.29559e-05 1.27054e-06 0.000764658)
(5.88733e-05 1.10801e-06 0.000805916)
(1.49209e-06 3.76924e-05 0.000733896)
(3.76402e-05 3.75779e-05 0.000736429)
(4.1002e-05 3.6794e-05 0.000761923)
(6.27793e-05 3.65918e-05 0.000767006)
(5.87215e-05 3.53652e-05 0.000808066)
(1.37794e-06 4.10694e-05 0.000759529)
(3.68561e-05 4.09469e-05 0.00076191)
(4.01383e-05 4.00832e-05 0.000786754)
(6.15268e-05 3.9865e-05 0.000791645)
(5.7614e-05 3.85332e-05 0.000831687)
(1.33402e-06 6.29029e-05 0.000764633)
(3.6654e-05 6.27261e-05 0.000766988)
(3.99202e-05 6.14734e-05 0.000791641)
(6.12288e-05 6.11754e-05 0.000796506)
(5.73526e-05 5.92423e-05 0.000836214)
(1.17085e-06 5.88339e-05 0.00080588)
(3.5427e-05 5.86818e-05 0.000808037)
(3.85881e-05 5.75741e-05 0.00083167)
(5.92957e-05 5.73127e-05 0.000836202)
(5.56278e-05 5.55878e-05 0.000874274)
(3.20686e-06 3.13354e-06 0.000489337)
(5.52951e-05 3.06817e-06 0.000492754)
(6.03358e-05 2.84498e-06 0.00052743)
(9.16915e-05 2.7902e-06 0.000534601)
(8.48429e-05 2.49477e-06 0.000590295)
(3.14171e-06 5.52241e-05 0.000492745)
(5.50265e-05 5.49552e-05 0.000496145)
(6.00704e-05 5.36845e-05 0.000530703)
(9.13501e-05 5.33374e-05 0.000537804)
(8.4538e-05 5.13758e-05 0.000593213)
(2.91793e-06 6.02733e-05 0.000527406)
(5.37555e-05 6.00074e-05 0.000530688)
(5.87181e-05 5.86553e-05 0.000564177)
(8.93821e-05 5.82953e-05 0.000570882)
(8.28247e-05 5.61285e-05 0.000624626)
(2.86319e-06 9.16312e-05 0.000534571)
(5.34086e-05 9.12895e-05 0.000537783)
(5.83583e-05 8.93214e-05 0.000570877)
(8.88225e-05 8.87617e-05 0.000577442)
(8.23073e-05 8.55797e-05 0.000630699)
(2.56708e-06 8.47982e-05 0.000590252)
(5.14465e-05 8.4493e-05 0.000593178)
(5.61911e-05 8.27795e-05 0.000624606)
(8.56404e-05 8.22619e-05 0.000630685)
(7.95506e-05 7.95052e-05 0.000681395)
(4.48093e-06 4.39199e-06 0.00058097)
(7.5848e-05 4.31864e-06 0.00058733)
(8.29714e-05 4.06647e-06 0.000639413)
(0.000125845 3.94281e-06 0.000650711)
(0.000116434 3.47728e-06 0.000733752)
(4.40792e-06 7.57619e-05 0.000587319)
(7.55985e-05 7.55121e-05 0.000593537)
(8.26615e-05 7.35416e-05 0.000644957)
(0.000125312 7.28734e-05 0.000656224)
(0.000115988 6.96963e-05 0.000738684)
(4.15486e-06 8.28958e-05 0.000639385)
(7.36277e-05 8.25855e-05 0.00064494)
(8.03327e-05 8.02569e-05 0.000694422)
(0.000121998 7.95028e-05 0.000705277)
(0.00011317 7.60198e-05 0.000785145)
(4.0313e-06 0.000125773 0.000650677)
(7.29596e-05 0.000125239 0.0006562)
(7.95788e-05 0.000121925 0.00070527)
(0.000121074 0.000121001 0.000716195)
(0.000112406 0.000116034 0.000795088)
(3.56428e-06 0.000116381 0.000733701)
(6.97814e-05 0.000115935 0.000738643)
(7.60952e-05 0.000113116 0.000785122)
(0.000116107 0.000112352 0.000795072)
(0.000108064 0.00010801 0.000869859)
(9.0306e-06 8.92676e-06 0.000324494)
(0.000113738 8.706e-06 0.000331981)
(0.000123716 7.8157e-06 0.000399349)
(0.000186063 7.71991e-06 0.000416236)
(0.000170587 6.83527e-06 0.000527018)
(8.81037e-06 0.00011364 0.000331968)
(0.000112664 0.000112564 0.000339621)
(0.000122757 0.000108693 0.000407394)
(0.000185109 0.000107902 0.000424115)
(0.000169682 0.000102768 0.000533949)
(7.9182e-06 0.00012363 0.000399314)
(0.000108792 0.00012267 0.000407373)
(0.000119054 0.000118967 0.000473799)
(0.000180137 0.000118265 0.000489055)
(0.000165301 0.000112533 0.000594747)
(7.82251e-06 0.00018598 0.000416191)
(0.000108001 0.000185025 0.000424085)
(0.000118352 0.000180053 0.000489046)
(0.000178673 0.000178588 0.000503948)
(0.000163777 0.000170324 0.000608087)
(6.93633e-06 0.000170526 0.000526957)
(0.000102867 0.000169621 0.000533901)
(0.000112619 0.000165239 0.000594719)
(0.000170408 0.000163715 0.000608068)
(0.000156787 0.000156725 0.000705764)
(1.12563e-05 1.11309e-05 0.000335993)
(0.000150705 1.12026e-05 0.000352415)
(0.000167227 1.13016e-05 0.000461243)
(0.000253565 1.09899e-05 0.000487161)
(0.000230996 9.54263e-06 0.000654735)
(1.13288e-05 0.000150584 0.000352397)
(0.000151027 0.000150905 0.000368406)
(0.000167157 0.000147993 0.000474319)
(0.000251918 0.000145694 0.000500228)
(0.000229575 0.000137426 0.000666275)
(1.14269e-05 0.000167121 0.000461205)
(0.000148114 0.00016705 0.000474297)
(0.000162016 0.00016191 0.000571668)
(0.000242996 0.000159336 0.00059733)
(0.000222496 0.000150159 0.000756814)
(1.11158e-05 0.000253466 0.000487113)
(0.000145816 0.000251818 0.000500196)
(0.000159443 0.000242895 0.000597319)
(0.000240164 0.000240062 0.000622986)
(0.000220135 0.000227095 0.000779764)
(9.66514e-06 0.000230926 0.000654665)
(0.000137545 0.000229502 0.00066622)
(0.000150263 0.000222423 0.000756782)
(0.000227196 0.000220061 0.000779743)
(0.000209166 0.000209091 0.000926321)
(2.46575e-05 2.45094e-05 -5.6676e-05)
(0.000238986 2.3825e-05 -3.21214e-05)
(0.000258458 2.00534e-05 0.000108824)
(0.000379621 1.99256e-05 0.000152513)
(0.000343709 1.75032e-05 0.00037583)
(2.39747e-05 0.000238849 -3.21436e-05)
(0.000234583 0.000234444 -8.88675e-06)
(0.000254575 0.000219115 0.000130744)
(0.000377131 0.000218068 0.000173052)
(0.000341215 0.000204845 0.000392824)
(2.01971e-05 0.000258342 0.000108771)
(0.000219252 0.000254456 0.000130713)
(0.000242082 0.000241963 0.000267552)
(0.000365346 0.000241019 0.000302481)
(0.000330054 0.000226019 0.00051142)
(2.00698e-05 0.000379506 0.000152446)
(0.000218205 0.000377014 0.000173007)
(0.000241138 0.00036523 0.000302468)
(0.00036118 0.000361064 0.000337254)
(0.000325729 0.000339893 0.000540906)
(1.76443e-05 0.000343626 0.000375741)
(0.000204981 0.000341131 0.000392754)
(0.000226138 0.000329971 0.000511381)
(0.000340009 0.000325645 0.00054088)
(0.000308218 0.000308134 0.000728613)
(3.45893e-05 3.44051e-05 -0.000180601)
(0.000316209 3.31409e-05 -0.000135145)
(0.000351863 3.18696e-05 7.03893e-05)
(0.000520683 3.01551e-05 0.000149127)
(0.000461939 2.50883e-05 0.000483398)
(3.33266e-05 0.000316035 -0.000135174)
(0.000313919 0.000313744 -9.24294e-05)
(0.000349098 0.000306726 0.000110394)
(0.000514109 0.000295668 0.000184877)
(0.000456878 0.000273021 0.000514226)
(3.20521e-05 0.000351712 7.03308e-05)
(0.000306901 0.000348946 0.000110363)
(0.000333787 0.000333636 0.000309918)
(0.00048697 0.000323542 0.000379989)
(0.000438683 0.000298243 0.000696811)
(3.03381e-05 0.000520549 0.000149052)
(0.000295843 0.00051397 0.00018483)
(0.000323693 0.00048683 0.00037997)
(0.000478705 0.000478564 0.000444554)
(0.000430895 0.000444375 0.000753095)
(2.5264e-05 0.000461846 0.000483301)
(0.000273189 0.000456781 0.000514154)
(0.000298391 0.000438583 0.000696767)
(0.000444515 0.000430794 0.000753069)
(0.000403524 0.000403424 0.00103905)
(6.8982e-05 6.877e-05 -0.000773243)
(0.000489977 6.53053e-05 -0.000702289)
(0.000542723 5.8696e-05 -0.000422622)
(0.000792769 5.43172e-05 -0.000309437)
(0.000689391 4.69873e-05 0.000120232)
(6.552e-05 0.000489782 -0.000702328)
(0.00048015 0.000479952 -0.000635506)
(0.000531873 0.000458638 -0.000364975)
(0.000781099 0.000448922 -0.000257562)
(0.00068178 0.00041825 0.000164201)
(5.89057e-05 0.00054256 -0.000422692)
(0.000458833 0.000531707 -0.00036501)
(0.000511694 0.000511527 -0.00011308)
(0.000752365 0.000500681 -1.46088e-05)
(0.000657531 0.000464876 0.000389406)
(5.45263e-05 0.000792615 -0.000309529)
(0.000449116 0.000780941 -0.000257619)
(0.000500847 0.000752206 -1.46286e-05)
(0.000734429 0.000734268 7.45303e-05)
(0.000644588 0.000682259 0.000464636)
(4.71873e-05 0.000689285 0.000120107)
(0.00041844 0.000681671 0.000164107)
(0.000465041 0.000657422 0.000389356)
(0.000682418 0.000644476 0.000464605)
(0.000603648 0.000603537 0.000810947)
(0.000103857 0.000103591 -0.00131623)
(0.000666837 9.81184e-05 -0.00117181)
(0.000744709 8.76002e-05 -0.000732173)
(0.00106378 8.01e-05 -0.000508965)
(0.00090699 6.68973e-05 0.000149021)
(9.83883e-05 0.000666593 -0.00117187)
(0.00065128 0.000651031 -0.00104012)
(0.000727035 0.000616279 -0.000616524)
(0.00104352 0.000590508 -0.000409001)
(0.00089375 0.00054221 0.000226066)
(8.78601e-05 0.000744505 -0.000732263)
(0.000616523 0.000726827 -0.000616565)
(0.000684189 0.000683984 -0.000209004)
(0.000989688 0.000655636 -2.7933e-05)
(0.000857176 0.000598678 0.000587892)
(8.03611e-05 0.00106359 -0.000509085)
(0.000590755 0.00104332 -0.000409071)
(0.000655844 0.000989498 -2.79603e-05)
(0.000958188 0.000957996 0.000131654)
(0.000834987 0.000866088 0.000718258)
(6.71456e-05 0.000906863 0.000148875)
(0.000542454 0.000893615 0.00022597)
(0.000598888 0.000857046 0.000587834)
(0.000866277 0.000834854 0.000718225)
(0.000762769 0.000762636 0.00126393)
(0.000211585 0.000211272 -0.00230635)
(0.00107404 0.000195059 -0.00208431)
(0.00120555 0.000172388 -0.00149523)
(0.00167427 0.000152259 -0.0011672)
(0.00137052 0.000122044 -0.000290643)
(0.000195377 0.00107376 -0.00208437)
(0.0010355 0.00103521 -0.0018835)
(0.00116297 0.000981804 -0.00132472)
(0.00162399 0.000929944 -0.00102232)
(0.00133935 0.000857102 -0.000183344)
(0.000172695 0.00120532 -0.00149532)
(0.00098209 0.00116273 -0.00132476)
(0.0011003 0.00110006 -0.000799383)
(0.00154953 0.0010413 -0.000533868)
(0.00129481 0.000957035 0.000259808)
(0.000152565 0.00167406 -0.00116732)
(0.000930231 0.00162377 -0.0010224)
(0.00104154 0.00154931 -0.0005339)
(0.00148091 0.00148068 -0.00030249)
(0.00125161 0.00135857 0.000435376)
(0.000122334 0.00137039 -0.000290787)
(0.00085738 0.00133922 -0.000183434)
(0.000957262 0.00129467 0.000259751)
(0.00135878 0.00125146 0.000435346)
(0.00116778 0.00116763 0.00111852)
(0.000323049 0.000322662 -0.00396259)
(0.00147798 0.000295866 -0.00347213)
(0.0016618 0.000254887 -0.00252132)
(0.00226888 0.000221685 -0.00185657)
(0.00181563 0.000170964 -0.000487056)
(0.000296262 0.00147764 -0.00347222)
(0.00141095 0.0014106 -0.00305076)
(0.00158819 0.00131215 -0.00216638)
(0.00218541 0.00122386 -0.00157183)
(0.00176375 0.0010927 -0.000276987)
(0.000255261 0.00166152 -0.00252145)
(0.00131249 0.00158791 -0.00216643)
(0.00147506 0.00147478 -0.00133715)
(0.00204937 0.00137545 -0.000825788)
(0.00167985 0.00121739 0.000396977)
(0.000222062 0.00226864 -0.00185676)
(0.0012242 0.00218516 -0.00157194)
(0.00137573 0.00204912 -0.000825842)
(0.00192792 0.00192766 -0.000398458)
(0.00160031 0.00172514 0.000723646)
(0.000171315 0.00181548 -0.000487275)
(0.00109303 0.00176359 -0.000277129)
(0.00121766 0.00167969 0.000396885)
(0.00172539 0.00160014 0.000723606)
(0.00147087 0.00147071 0.00177016)
(0.000699104 0.000698624 -0.00584811)
(0.00251535 0.000613388 -0.00505234)
(0.00282103 0.000524005 -0.00373911)
(0.00370926 0.000433528 -0.00274633)
(0.0027889 0.000328401 -0.00094453)
(0.000613876 0.00251493 -0.00505245)
(0.00234137 0.00234094 -0.0043764)
(0.00264182 0.00216599 -0.00319869)
(0.00351405 0.00196072 -0.00232193)
(0.00268063 0.0017411 -0.000650467)
(0.00052447 0.0028207 -0.00373924)
(0.00216641 0.00264147 -0.00319873)
(0.00244084 0.0024405 -0.00211762)
(0.00328424 0.00221457 -0.00138084)
(0.0025609 0.00195757 0.000167921)
(0.000433993 0.00370896 -0.00274653)
(0.00196115 0.00351375 -0.00232204)
(0.00221491 0.00328393 -0.0013809)
(0.00303093 0.00303061 -0.000775076)
(0.00241365 0.0027323 0.00060887)
(0.000328835 0.00278874 -0.000944743)
(0.00174151 0.00268046 -0.000650591)
(0.0019579 0.00256071 0.00016784)
(0.00273261 0.00241346 0.000608841)
(0.00224985 0.00224967 0.00182906)
(0.00111393 0.00111335 -0.0106256)
(0.00358711 0.000966318 -0.00877882)
(0.00396771 0.00078987 -0.00657481)
(0.00506463 0.000640575 -0.0044965)
(0.00368558 0.000459664 -0.00164656)
(0.000966915 0.00358664 -0.00877897)
(0.00326479 0.00326429 -0.00732631)
(0.00364254 0.0029337 -0.00541296)
(0.00473472 0.00258939 -0.00366379)
(0.00349947 0.00220524 -0.00108447)
(0.00079042 0.00396735 -0.00657503)
(0.00293418 0.00364216 -0.00541302)
(0.00329285 0.00329247 -0.00365783)
(0.00433595 0.0029222 -0.0022092)
(0.00328734 0.00247666 0.000192897)
(0.000641128 0.00506432 -0.0044968)
(0.00258988 0.00473439 -0.00366395)
(0.00292259 0.00433562 -0.00220929)
(0.0039186 0.00391826 -0.00109435)
(0.00303795 0.00338694 0.000997418)
(0.000460163 0.00368542 -0.00164689)
(0.00220571 0.00349929 -0.00108467)
(0.00247702 0.00328716 0.000192761)
(0.00338727 0.00303775 0.000997376)
(0.0027373 0.00273711 0.00286776)
(0.00254049 0.00253974 -0.0152905)
(0.00656626 0.00206067 -0.0120455)
(0.00710326 0.00167987 -0.0088207)
(0.00863916 0.00126039 -0.00561015)
(0.00574489 0.00088442 -0.00186362)
(0.00206145 0.00656562 -0.0120457)
(0.00570745 0.00570681 -0.00953152)
(0.00630416 0.00508304 -0.00696231)
(0.007844 0.00424796 -0.00432065)
(0.00535669 0.00358055 -0.0010763)
(0.0016806 0.00710278 -0.00882091)
(0.00508367 0.00630366 -0.00696234)
(0.00564445 0.00564395 -0.00463867)
(0.00713627 0.00478371 -0.0025404)
(0.00505137 0.00403922 0.0004278)
(0.00126111 0.00863875 -0.00561047)
(0.00424859 0.00784357 -0.00432079)
(0.00478421 0.00713582 -0.00254051)
(0.0062387 0.00623825 -0.000974593)
(0.00458273 0.00540835 0.00147256)
(0.000885082 0.00574469 -0.00186393)
(0.00358115 0.00535648 -0.00107646)
(0.00403971 0.00505115 0.00042768)
(0.00540879 0.0045825 0.00147254)
(0.00418681 0.00418658 0.00358901)
(0.00435332 0.00435241 -0.0288256)
(0.0100574 0.00347081 -0.0211707)
(0.0104032 0.00263888 -0.01548)
(0.0120244 0.0019201 -0.00911121)
(0.00757799 0.00123784 -0.00314294)
(0.00347173 0.0100568 -0.0211709)
(0.00834831 0.00834759 -0.015974)
(0.00885321 0.00711587 -0.0116605)
(0.0106231 0.0056592 -0.0067219)
(0.00687538 0.00449673 -0.00172508)
(0.00263971 0.0104027 -0.0154803)
(0.00711655 0.00885267 -0.0116606)
(0.00771444 0.00771393 -0.00786796)
(0.00940455 0.0062679 -0.00398369)
(0.00637274 0.00502513 0.00059083)
(0.00192093 0.012024 -0.00911167)
(0.00565989 0.0106226 -0.00672214)
(0.00626844 0.0094041 -0.00398385)
(0.00793337 0.0079329 -0.00126227)
(0.0055862 0.00654923 0.00234375)
(0.00123856 0.00757783 -0.0031435)
(0.00449738 0.0068752 -0.00172537)
(0.00502563 0.00637254 0.000590603)
(0.00654967 0.00558598 0.0023437)
(0.00493596 0.00493574 0.0054702)
(0.0101863 0.0101852 -0.045067)
(0.019913 0.00724752 -0.0301643)
(0.0191648 0.00548805 -0.0209198)
(0.02098 0.0036391 -0.0104599)
(0.011945 0.00229126 -0.00273676)
(0.00724874 0.0199121 -0.0301648)
(0.015218 0.015217 -0.020063)
(0.0155571 0.0126953 -0.0143173)
(0.0177822 0.0093753 -0.00652451)
(0.0105512 0.00731448 -0.000654963)
(0.00548918 0.0191641 -0.0209202)
(0.0126963 0.0155564 -0.0143173)
(0.0133216 0.0133208 -0.00914475)
(0.0155977 0.0102428 -0.00336398)
(0.0098037 0.00810784 0.00202392)
(0.00364022 0.0209793 -0.0104604)
(0.00937623 0.0177816 -0.00652472)
(0.0102435 0.0155971 -0.00336416)
(0.0125681 0.0125674 0.000456908)
(0.0083307 0.0102903 0.00431179)
(0.00229228 0.0119447 -0.00273732)
(0.00731541 0.010551 -0.000655218)
(0.00810856 0.0098034 0.00202371)
(0.0102909 0.00833041 0.00431175)
(0.00743239 0.0074321 0.00764552)
(0.0192941 0.0192924 -0.0882114)
(0.0341955 0.0135681 -0.0516709)
(0.0301121 0.00922752 -0.0341179)
(0.0302094 0.00583773 -0.0151483)
(0.0156142 0.00330255 -0.00322578)
(0.0135697 0.0341944 -0.051671)
(0.0241912 0.02419 -0.0320058)
(0.0223927 0.0188889 -0.0216067)
(0.024288 0.0127541 -0.00870583)
(0.0130056 0.00925705 3.30947e-05)
(0.0092289 0.0301116 -0.0341184)
(0.0188899 0.022392 -0.0216068)
(0.0186672 0.0186665 -0.0132342)
(0.0205763 0.0132487 -0.00392784)
(0.0119856 0.00999048 0.00376539)
(0.00583899 0.0302089 -0.0151489)
(0.0127551 0.0242873 -0.00870615)
(0.0132494 0.0205757 -0.00392809)
(0.015612 0.0156113 0.00182937)
(0.00961559 0.0121718 0.00700344)
(0.00330365 0.015614 -0.00322675)
(0.00925805 0.0130054 3.27212e-05)
(0.0099912 0.0119854 0.003765)
(0.0121725 0.00961533 0.00700339)
(0.00840569 0.00840543 0.0114141)
(0.0468524 0.0468522 -0.15576)
(0.0740077 0.0269269 -0.0799684)
(0.0557175 0.017984 -0.0472782)
(0.0518825 0.0100637 -0.0152287)
(0.0243734 0.00552905 -0.000655487)
(0.0269287 0.0740062 -0.0799699)
(0.0452716 0.0452705 -0.0373739)
(0.038871 0.0335784 -0.0248157)
(0.039427 0.0205966 -0.00445774)
(0.0196737 0.0143058 0.00413896)
(0.0179856 0.0557163 -0.0472794)
(0.0335799 0.03887 -0.0248155)
(0.0310077 0.0310067 -0.0135434)
(0.0326032 0.0207806 0.000180919)
(0.0178273 0.0150784 0.0081829)
(0.0100654 0.0518814 -0.0152292)
(0.0205979 0.0394261 -0.004458)
(0.0207817 0.0326021 0.000180679)
(0.023502 0.0235011 0.00773095)
(0.0137322 0.0179437 0.0122301)
(0.00553066 0.0243727 -0.000656712)
(0.0143074 0.0196734 0.00413843)
(0.0150795 0.0178268 0.00818245)
(0.0179448 0.0137319 0.01223)
(0.0120312 0.0120308 0.01629)
(0.0964038 0.096398 -0.329828)
(0.142167 0.0564507 -0.128212)
(0.0948559 0.0316996 -0.0624477)
(0.0767915 0.0165835 -0.0140289)
(0.0308372 0.0080611 0.0058576)
(0.0564541 0.142165 -0.128209)
(0.0792335 0.0792308 -0.0527335)
(0.0553136 0.0525749 -0.0271202)
(0.0532298 0.0281491 0.00010801)
(0.0220706 0.018093 0.0112305)
(0.0317024 0.0948565 -0.0624486)
(0.0525772 0.0553126 -0.0271201)
(0.043663 0.0436622 -0.00996364)
(0.0423 0.0254389 0.00640833)
(0.0203669 0.0180773 0.0160117)
(0.0165854 0.0767909 -0.0140294)
(0.0281504 0.0532285 0.000107668)
(0.0254399 0.0422989 0.00640797)
(0.0276603 0.0276592 0.0150601)
(0.0143659 0.0202762 0.0197884)
(0.00806295 0.0308362 0.00585607)
(0.0180948 0.0220701 0.0112301)
(0.0180784 0.0203665 0.0160111)
(0.0202773 0.0143655 0.0197883)
(0.0126562 0.0126558 0.0238201)
(0.268315 0.268328 -0.643916)
(0.343241 0.104944 -0.218701)
(0.169859 0.053589 -0.0713864)
(0.120205 0.0242298 0.00277617)
(0.0452979 0.0108667 0.018519)
(0.104945 0.343237 -0.218713)
(0.146231 0.146233 -0.0342543)
(0.0917902 0.0860031 -0.0131974)
(0.077797 0.0410308 0.0199283)
(0.0314131 0.0244592 0.025285)
(0.0535904 0.169854 -0.071391)
(0.0860056 0.0917888 -0.0131966)
(0.0645863 0.064585 0.00449537)
(0.0585925 0.0357565 0.0228357)
(0.0279265 0.0236423 0.0280866)
(0.024232 0.120203 0.00277823)
(0.0410322 0.0777956 0.0199283)
(0.0357579 0.0585908 0.0228356)
(0.0368943 0.0368929 0.0300628)
(0.0187385 0.025759 0.0311909)
(0.0108692 0.0452961 0.0185159)
(0.0244617 0.0314128 0.0252841)
(0.0236437 0.0279258 0.0280856)
(0.0257606 0.0187382 0.0311906)
(0.0162767 0.0162764 0.0326201)
(0.789223 0.789257 -2.26387)
(0.882993 0.22233 -0.462982)
(0.258145 0.0908721 0.019749)
(0.165976 0.0338221 0.0474354)
(0.0476015 0.0147614 0.0472505)
(0.222334 0.882956 -0.462976)
(0.262177 0.262166 -0.0143518)
(0.108164 0.127936 0.0338716)
(0.0916031 0.0480592 0.0504877)
(0.0279841 0.0276419 0.0459549)
(0.0908782 0.258129 0.0197449)
(0.127943 0.108162 0.0338735)
(0.07966 0.0796599 0.0457796)
(0.0658459 0.0355569 0.0473531)
(0.0260411 0.0239841 0.0470456)
(0.0338234 0.165976 0.0474344)
(0.0480584 0.0916001 0.0504873)
(0.0355579 0.0658438 0.0473525)
(0.0359929 0.0359915 0.0482602)
(0.0157109 0.0248079 0.0450885)
(0.0147648 0.0475954 0.0472481)
(0.0276457 0.0279828 0.0459547)
(0.0239858 0.0260398 0.0470449)
(0.02481 0.0157101 0.0450885)
(0.0142445 0.0142438 0.0438695)
(0.0181896 0.0181211 -6.83311)
(2.2514 0.253563 0.184361)
(0.205591 0.0687468 0.260205)
(0.140899 0.0274776 0.125717)
(0.0460086 0.00952291 0.0944508)
(0.252749 2.25143 0.184467)
(0.333373 0.333336 0.33286)
(0.0991757 0.107502 0.164271)
(0.0889493 0.04068 0.0972045)
(0.0272549 0.0242527 0.0802)
(0.0687523 0.205592 0.260202)
(0.10751 0.0991738 0.16427)
(0.0772352 0.0772352 0.124849)
(0.0597527 0.0334938 0.0873426)
(0.027882 0.0227747 0.0706748)
(0.0274809 0.1409 0.125713)
(0.0406818 0.0889458 0.0972042)
(0.0334955 0.0597503 0.087342)
(0.0345907 0.0345888 0.0700766)
(0.0156276 0.0225855 0.0617477)
(0.00952711 0.0460055 0.0944487)
(0.0242568 0.0272546 0.0801992)
(0.0227763 0.0278812 0.0706739)
(0.0225878 0.0156273 0.0617475)
(0.015054 0.0150536 0.0543636)
(0.000927712 0.000865319 -6.97812)
(-0.632514 -0.0653131 -0.959841)
(0.0136078 -0.00578608 0.281414)
(-0.00300577 0.00560556 0.138286)
(0.0161165 0.000526492 0.109605)
(-0.0653832 -0.632491 -0.959802)
(-0.0630165 -0.0630265 0.281721)
(0.00664366 -0.00979906 0.191595)
(0.00845297 0.0103201 0.116502)
(0.0109547 0.00393424 0.0940234)
(-0.00577807 0.0136064 0.281416)
(-0.00978944 0.00664069 0.191594)
(0.00339273 0.00339167 0.145558)
(0.0120254 0.00872957 0.102945)
(0.00920198 0.00557583 0.0820511)
(0.00560879 -0.00300412 0.138286)
(0.0103221 0.00844946 0.116501)
(0.00873094 0.0120224 0.102945)
(0.0105649 0.0105627 0.0832899)
(0.00722457 0.00853458 0.0707127)
(0.000530636 0.0161119 0.109604)
(0.00393919 0.0109528 0.0940222)
(0.0055781 0.00920019 0.0820507)
(0.0085376 0.00722356 0.0707121)
(0.00670558 0.00670457 0.0601867)
(-0.0403116 -0.0402797 -5.09985)
(-0.299738 -0.104261 -0.431914)
(0.0245529 -0.0284934 0.0514848)
(-0.0267306 0.00509909 0.0924292)
(0.0150801 -0.00620691 0.0733006)
(-0.10426 -0.299743 -0.431903)
(-0.052134 -0.0521456 0.00826437)
(-0.0131903 -0.0277083 0.0777622)
(-0.00586285 0.00549722 0.0897086)
(0.00355929 -0.00339198 0.0720761)
(-0.0284865 0.0245448 0.0514797)
(-0.0277029 -0.0131927 0.0777625)
(-0.00848547 -0.00848653 0.0833513)
(-0.00372095 0.000363794 0.0802306)
(0.00589784 -0.000574765 0.0689525)
(0.00510292 -0.0267322 0.0924322)
(0.00549882 -0.00586623 0.0897092)
(0.000365741 -0.00372375 0.0802309)
(0.00239226 0.00239003 0.0749137)
(0.00244165 0.000710649 0.0643969)
(-0.00620264 0.015076 0.0732981)
(-0.00338789 0.00355801 0.0720753)
(-0.00057257 0.00589623 0.0689516)
(0.00071345 0.00244064 0.0643966)
(0.00404613 0.00404511 0.0576912)
(0.147504 0.147471 -6.69021)
(0.883712 0.265985 -0.373846)
(0.0324594 0.0169336 0.119188)
(0.0193955 0.00231686 0.127275)
(-0.00504169 -0.000652319 0.0803665)
(0.265955 0.883577 -0.373906)
(0.143509 0.143513 0.0907476)
(-0.00228486 0.021603 0.121737)
(0.00249056 -0.00228809 0.10719)
(-0.00826768 -0.00031199 0.0776257)
(0.0169448 0.032436 0.119187)
(0.0216183 -0.00229258 0.121734)
(0.00575115 0.00575072 0.102568)