/*--------------------------------*- C++ -*----------------------------------*\
| =========                 |                                                 |
| \\      /  F ield         | OpenFOAM: The Open Source CFD Toolbox           |
|  \\    /   O peration     | Version:  5.x                                   |
|   \\  /    A nd           | Web:      www.OpenFOAM.org                      |
|    \\/     M anipulation  |                                                 |
\*---------------------------------------------------------------------------*/
FoamFile
{
    version     2.0;
    format      ascii;
    class       volScalarField;
    location    "0.066";
    object      interFace;
}
// * * * * * * * * * * * * * * * * * * * * * * * * * * * * * * * * * * * * * //

dimensions      [0 0 0 0 0 0 0];

internalField   nonuniform List<scalar> 
1560
(
0
0
0
0
0
0
0
0
0
0
0
0
0
0
0
0
0
0
0
0
0
0
0
0
0
0
0
0
0
0
0
0
0
0
0
0
0
0
0
0
0
0
0
0
0
0
0
0
0
0
0
0
0
0
0
0
0
0
0
0
0
0
0
0
0
0
0
0
0
0
0
0
0
0
0
0
0
0
0
0
0
0
0
0
0
0
0
0
0
0
0
0
0
0
0
0
0
0
0
0
0
0
0
0
0
0
0
0
0
0
0
0
0
0
0
0
0
0
0
0
0
0
0
0
0
0
0
0
0
0
0
0
0
0
0
0
0
0
0
0
0
0
0
0
0
0
0
0
0
0
0
0
0
0
0
0
0
0
0
0
0
0
0
0
0
0
0
0
0
0
0
0
0
0
0
0
0
0
0
0
0
0
0
0
0
0
0
0
0
0
0
0
0
0
0
0
0
0
0
0
0
0
0
0
0
0
0
0
0
0
0
0
0
0
0
0
0
0
0
0
0
0
0
0
0
0
0
0
0
0
0
0
0
0
0
0
0
0
0
0
0
0
0
0
0
0
0
0
0
0
0
0
0
0
0
0
0
0
0
0
0
0
0
0
0
0
0
0
0
0
0
0
0
0
0
0
0
0
0
0
0
0
0
0
0
0
0
0
0
0
0
0
0
0
0
0
0
0
0
0
0
0
0
0
0
0
0
0
0
0
0
0
0
0
0
0
0
0
0
0
0
0
0
0
0
0
0
0
0
0
0
0
0
0
0
0
0
0
0
0
0
0
0
0
0
0
0
0
0
0
0
0
0
0
0
0
0
0
0
0
0
0
0
0
0
0
0
0
0
0
0
0
0
0
0
0
0
0
0
0
0
0
0
0
0
0
0
0
0
0
0
0
0
0
0
0
0
0
0
0
0
0
0
0
0
0
0
0
0
0
0
0
0
0
0
0
0
0
0
0
0
0
0
0
0
0
0
0
0
0
0
0
0
0
0
0
0
0
0
0
0
0
0
0
0
0
0
0
0
0
0
0
0
0
0
0
0
0
0
0
0
0
0
0
0
0
0
0
0
0
0
0
0
0
0
0
0
0
0
0
0
0
0
0
0
0
0
0
0
0
0
0
0
0
0
0
0
0
0
0
0
0
0
0
0
0
0
0
0
0
0
0
0
0
0
0
0
0
0
0
0
0
0
0
0
0
0
0
0
0
0
0
0
0
0
0
0
0
0
0
0
0
0
0
0
0
0
0
0
0
0
0
0
0
0
0
0
0
0
0
0
0
0
0
0
0
0
0
0
0
0
0
0
0
0
0
0
0
0
0
0
0
0
0
0
0
0
0
0
0
0
0
0
0
0
0
0
0
0
0
0
0
0
0
0
0
0
0
0
0
0
0
0
0
0
0
0
0
0
0
0
0
0
0
0
0
0
0
0
0
0
0
0
0
0
0
0
0
0
0
0
0
0
0
0
0
0
0
0
0
0
0
0
0
0
0
0
0
0
0
0
0
0
0
0
0
0
0
0
0
0
0
0
0
0
0
0
0
0
0
0
0
0
0
0
0
0
0
0
0
0
0
0
0
0
0.717284
0
0
0
0
0
0
0
0
0
0
0
0
0
0
0
0
0
0
0
0
0
0
0
0
0.283858
0.732283
0
0
0
0
0
0
0
0
0
0
0
0
0
0
0
0
0
0
0
0
0
0
0
0.567562
0
0
0
0
0
0
0
0
0
0
0
0
0
0
0
0
0
0
0
0
0
0
0
0
0.90574
0
0
0
0
0
0
0
0
0
0
0
0
0
0
0
0
0
0
0
0
0
0
0
0
0.371018
0.819413
0
0
0
0
0
0
0
0
0
0
0
0
0
0
0
0
0
0
0
0
0
0
0
0.368241
0.900375
0
0
0
0
0
0
0
0
0
0
0
0
0
0
0
0
0
0
0
0
0
0
0
0
0
0
0
0
0
0
0
0
0
0
0
0
0
0
0
0
0
0
0
0
0
0
0
0
0
0
0
0
0
0
0
0
0
0
0
0
0
0
0
0
0
0
0
0
0
0
0
0
0
0
0
0
0
0
0
0
0
0
0
0
0
0
0
0
0
0
0
0
0
0
0
0
0
0
0
0
0
0
0
0
0
0
0
0
0
0
0
0
0
0
0
0
0
0
0
0
0
0
0
0
0
0
0
0
0
0
0
0
0
0
0
0
0
0
0
0
0
0
0
0
0
0
0
0
0
0
0
0
0
0
0
0
0
0
0
0
0
0
0
0
0
0
0
0
0
0
0
0
0
0
0
0
0
0
0
0.726555
0.905932
0.483764
0.752829
0.214986
0.484051
0.640084
0.10224
0.371305
0.301704
0.57077
0.032926
0.301992
0.637306
0.0994625
0.368528
0.836773
0
0.567995
0.837061
0
0.987146
0
0
0
0
0
0.836649
0.298814
0.567902
0
0
0.873909
0
0
0.955926
0
0
0
0
0
0
0.956379
0
0
0
0
0
0.456637
0.366997
0.612767
0.612863
0.657635
0.411769
0.411865
0
0.547475
0.900184
0
0
0
0
0
0.547858
0
0
0
0
0
0.54623
0.635775
0.881641
0.70236
0.680643
0.747228
0.501362
0.546326
0.636063
0.881833
0.702552
0.680835
0.747324
0.501554
0.552946
0.0151107
0.284198
0.429405
0.698493
0.160657
0.429745
0.571429
0.343576
0.343689
0.481791
0.388451
0.526553
0.526667
0.661011
0.612437
0.433158
0.750539
0.478034
0.795414
0.616136
0.661124
0.612664
0.433385
0.750879
0.478147
0.795641
0.616362
0.635919
0.904841
0.97133
0.971426
0.770332
0.770428
0.836917
0.750707
0.702133
0.702246
0
0.56773
0.88511
0.885223
0.30046
0.144235
0.14433
0.21082
0.189103
0.255592
0.255687
0.390052
0.413109
0.233827
0.479598
0.278695
0.524466
0.345184
0.390148
0.4133
0.234019
0.479885
0.278791
0.524657
0.345376
0.205419
0.205533
0.250295
0.156959
0.0673213
0.112083
0.112197
0
0.463082
0.73217
0
0
0.608628
0.859004
0
0.463535
0
0.859231
0
0.609082
0
0.479741
0.502797
0.502893
0.748663
0.368384
0.614154
0.61425
0.47428
0.295002
0.339877
0.246541
0.336069
0.380944
0.201666
0.474507
0.295229
0.339991
0.246655
0.336409
0.381171
0.201893
0.563976
0.56409
0.429573
0.336237
0.605157
0.47064
0.470753
0.10085
0.0112101
0.0776983
0.077794
0.122566
0.0559823
0.0560781
0
0.550252
0.819318
0
0
0.480938
0.750004
0
0.550635
0
0.750099
0
0.481321
0
0.190443
0.279988
0.346572
0.167291
0.324856
0.212159
0.145575
0.190539
0.280276
0.346764
0.167483
0.325048
0.212255
0.145767
0.771529
0.592343
0.658832
0.816397
0.7037
0.927754
0.882886
0.59263
0.772008
0.659215
0.81678
0.703987
0.928137
0.883365
0.986371
0.448536
0.717624
0.324984
0.594071
0.0562362
0.325324
0.108443
0.0598727
0.0599861
0.0188057
0.104748
0.0635677
0.0636811
0.198026
0.328734
0.149455
0.287553
0.194331
0.332429
0.15315
0.198139
0.32896
0.149682
0.287893
0.194444
0.332655
0.153377
0.653504
0.832673
0.877548
0.515292
0.560168
0.784212
0.739336
0.653844
0.83324
0.878002
0.515746
0.560508
0.784665
0.739904
0.280132
0.549054
0.436261
0.436357
0.414545
0.414641
0.301848
0.287721
0.418429
0.418543
0.556641
0.284026
0.422125
0.422238
0.123955
0.147012
0.147108
0.0343147
0.19188
0.079087
0.0791827
0
0
0
0
0
0
0
0.213548
0.415886
0.236605
0.303093
0.281473
0.347961
0.16868
0.213643
0.416078
0.236796
0.30338
0.281569
0.348153
0.168871
0.459222
0.704993
0.525806
0.50409
0.749861
0.728145
0.683277
0.459605
0.526093
0.705471
0.504378
0.750244
0.728528
0.683755
0.100998
0.101112
0.145874
0.23182
0.142182
0.186944
0.187058
0
0.926366
0
0
0
0.504207
0.844224
0
0.926819
0
0.844451
0
0.504661
0
0.507957
0.466777
0.511652
0.735696
0.687126
0.732001
0.690821
0.508297
0.46723
0.511992
0.73615
0.687693
0.732455
0.691388
0.369859
0.190581
0.235456
0.321402
0.41093
0.455805
0.276527
0.370086
0.190807
0.235569
0.321516
0.41127
0.456032
0.276754
0.303236
0.505575
0.50567
0.572159
0.371161
0.43765
0.437745
0.459555
0.459668
0.325152
0.411098
0.680018
0.545501
0.545614
0
0
0
0
0
0
0
0.728288
0.974058
0.615495
0.593779
0.839549
0.817833
0.952342
0.728384
0.97425
0.615686
0.59397
0.839836
0.81812
0.952534
0.59788
0.735978
0.601575
0.825732
0.95644
0.822037
0.960135
0.462192
0.372552
0.259758
0.259854
0.304626
0.417324
0.41742
0.597653
0.735865
0.601348
0.825392
0.956214
0.821697
0.959909
0
0
0
0
0
0.859434
0
0
0
0
0
0
0.859817
0
0.551785
0.64133
0.528632
0.349351
0.686198
0.394219
0.506917
0.551881
0.641617
0.528823
0.349542
0.68639
0.394314
0.507108
0.774306
0.59512
0.482327
0.819174
0.527195
0.751249
0.706381
0.595407
0.774785
0.48271
0.819557
0.527482
0.751632
0.70686
0
0
0
0
0
0.829569
0
0.362586
0.493298
0.493411
0.272949
0.538173
0.317711
0.317824
0.452169
0.762159
0.58288
0.541696
0.627756
0.586572
0.407293
0.452282
0.762386
0.583107
0.542037
0.627869
0.586799
0.40752
0.549083
0.728251
0.773127
0.590153
0.635029
0.859073
0.814197
0.549423
0.728818
0.77358
0.590607
0.635369
0.859526
0.814765
0.641473
0.910396
0.61832
0.618416
0.775887
0.775982
0.483907
0.541865
0.851855
0.851968
0.810784
0.717452
0.676268
0.676381
0
0.685
0.751488
0.90915
0.617075
0.841225
0.975638
0
0.684809
0.751392
0.908863
0.616883
0.840938
0.975447
)
;

boundaryField
{
    inlet
    {
        type            calculated;
        value           uniform 0;
    }
    wall
    {
        type            calculated;
        value           uniform 0;
    }
    outlet
    {
        type            calculated;
        value           uniform 0;
    }
    procBoundary1to0
    {
        type            processor;
        value           uniform 0;
    }
    procBoundary1to3
    {
        type            processor;
        value           uniform 0;
    }
}


// ************************************************************************* //
