/*--------------------------------*- C++ -*----------------------------------*\
| =========                 |                                                 |
| \\      /  F ield         | OpenFOAM: The Open Source CFD Toolbox           |
|  \\    /   O peration     | Version:  5.x                                   |
|   \\  /    A nd           | Web:      www.OpenFOAM.org                      |
|    \\/     M anipulation  |                                                 |
\*---------------------------------------------------------------------------*/
FoamFile
{
    version     2.0;
    format      ascii;
    class       surfaceScalarField;
    location    "0.066";
    object      phi;
}
// * * * * * * * * * * * * * * * * * * * * * * * * * * * * * * * * * * * * * //

dimensions      [0 3 -1 0 0 0 0];

internalField   nonuniform List<scalar> 
4318
(
4.09525e-08
-2.04825e-07
-1.7387e-08
9.74389e-08
-2.05979e-07
-2.30546e-08
1.31926e-07
-2.06185e-07
-8.0229e-10
1.68322e-07
-2.06533e-07
-2.5069e-09
-2.05446e-07
5.7738e-08
3.8727e-08
-1.69838e-07
-8.77718e-08
9.69903e-08
-1.7122e-07
-9.30337e-08
1.32355e-07
-1.71679e-07
-6.9892e-08
1.6937e-07
-1.72156e-07
-7.14121e-08
-1.71403e-07
-1.01358e-08
3.72271e-08
-1.36922e-07
-8.65882e-08
9.61136e-08
-1.38307e-07
-9.17957e-08
1.31837e-07
-1.38939e-07
-6.84827e-08
1.69094e-07
-1.39513e-07
-6.99195e-08
-1.39182e-07
-8.50363e-09
3.56433e-08
-7.70568e-08
-1.14624e-07
9.54833e-08
-7.84232e-08
-1.19685e-07
1.31789e-07
-7.93242e-08
-9.59266e-08
1.69492e-07
-7.99644e-08
-9.72662e-08
-8.01998e-08
-3.53565e-08
3.41858e-08
-1.09223e-07
9.44081e-08
-1.14262e-07
1.31025e-07
-9.04544e-08
1.68966e-07
-9.17478e-08
-2.98697e-08
1.87262e-09
-4.39728e-08
-3.76194e-08
2.28722e-08
-4.32994e-08
-3.54208e-08
2.81201e-08
-4.21405e-08
2.43401e-09
2.69248e-08
-4.20761e-08
7.22037e-09
-4.14947e-08
6.85978e-08
4.57135e-09
-5.40951e-08
-1.04673e-07
2.4307e-08
-5.34996e-08
-1.02596e-07
2.90818e-08
-5.25665e-08
-6.42699e-08
2.75781e-08
-5.25753e-08
-5.94376e-08
-5.21342e-08
2.86998e-09
5.27481e-09
-5.58327e-08
-1.10984e-07
2.44973e-08
-5.55377e-08
-1.08998e-07
2.90663e-08
-5.49695e-08
-7.06779e-08
2.74973e-08
-5.50766e-08
-6.58767e-08
-5.48181e-08
-3.51431e-09
6.39336e-09
-4.19085e-08
-1.5392e-07
2.51378e-08
-4.18818e-08
-1.52061e-07
2.94973e-08
-4.17396e-08
-1.13531e-07
2.78342e-08
-4.1959e-08
-1.08744e-07
-4.19897e-08
-4.58817e-08
6.47228e-09
-1.58073e-07
2.49854e-08
-1.56348e-07
2.92679e-08
-1.17919e-07
2.76317e-08
-1.13199e-07
-5.04155e-08
4.54682e-08
-1.91501e-07
-6.83347e-08
1.02661e-07
-1.92513e-07
-6.59504e-08
1.32581e-07
-1.92575e-07
-5.88192e-10
1.59834e-07
-1.92941e-07
7.08059e-09
-1.91797e-07
1.14675e-07
4.37937e-08
-1.67739e-07
-1.87023e-07
1.02342e-07
-1.6898e-07
-1.84709e-07
1.3308e-07
-1.69381e-07
-1.18234e-07
1.60944e-07
-1.69897e-07
-1.10379e-07
-1.69131e-07
-8.60664e-10
4.26656e-08
-1.40368e-07
-1.97349e-07
1.0156e-07
-1.41724e-07
-1.95174e-07
1.32559e-07
-1.42435e-07
-1.28656e-07
1.60648e-07
-1.43064e-07
-1.20831e-07
-1.42777e-07
-1.1136e-08
4.10025e-08
-8.2172e-08
-2.7211e-07
1.00819e-07
-8.35517e-08
-2.70041e-07
1.32431e-07
-8.46861e-08
-2.02913e-07
1.61035e-07
-8.5414e-08
-1.95026e-07
-8.58283e-08
-8.42257e-08
3.95958e-08
-2.77572e-07
9.96895e-08
-2.75697e-07
1.31585e-07
-2.08691e-07
1.60447e-07
-2.00894e-07
-9.0167e-08
3.31045e-08
-1.71901e-07
-1.04134e-07
8.87852e-08
-1.71651e-07
-9.81012e-08
1.17636e-07
-1.6975e-07
-6.11525e-09
1.40862e-07
-1.69635e-07
7.27951e-09
-1.674e-07
1.53008e-07
3.52014e-08
-1.55871e-07
-2.62274e-07
9.09039e-08
-1.55782e-07
-2.56321e-07
1.19889e-07
-1.54282e-07
-1.6273e-07
1.4316e-07
-1.54293e-07
-1.49034e-07
-1.52463e-07
-4.43097e-10
3.52601e-08
-1.32374e-07
-2.79853e-07
9.08617e-08
-1.32541e-07
-2.74052e-07
1.19839e-07
-1.31588e-07
-1.80369e-07
1.43145e-07
-1.31751e-07
-1.66719e-07
-1.30537e-07
-1.7824e-08
3.61993e-08
-8.06707e-08
-3.82821e-07
9.18995e-08
-8.10598e-08
-3.77228e-07
1.20998e-07
-8.08984e-08
-2.82735e-07
1.44422e-07
-8.12412e-08
-2.68998e-07
-8.09519e-08
-1.18464e-07
3.57996e-08
-3.93951e-07
9.14346e-08
-3.88673e-07
1.20584e-07
-2.94386e-07
1.441e-07
-2.80807e-07
-1.30347e-07
7.41528e-08
-2.84403e-07
-1.57082e-07
1.62022e-07
-2.85283e-07
-1.47855e-07
2.06871e-07
-2.84052e-07
-1.28017e-08
2.4493e-07
-2.84239e-07
7.63998e-09
-2.81138e-07
2.1957e-07
7.3403e-08
-2.51363e-07
-3.88041e-07
1.63116e-07
-2.52537e-07
-3.78829e-07
2.09149e-07
-2.51907e-07
-2.4096e-07
2.48015e-07
-2.52312e-07
-2.19876e-07
-2.49889e-07
-3.07679e-09
7.2375e-08
-2.0976e-07
-4.145e-07
1.62426e-07
-2.1119e-07
-4.05495e-07
2.08743e-07
-2.11284e-07
-2.6736e-07
2.4786e-07
-2.11911e-07
-2.46287e-07
-2.105e-07
-2.88453e-08
7.09641e-08
-1.21227e-07
-5.65763e-07
1.62316e-07
-1.22809e-07
-5.56982e-07
2.09516e-07
-1.23948e-07
-4.17316e-07
2.49341e-07
-1.24817e-07
-3.95965e-07
-1.24943e-07
-1.75646e-07
6.93631e-08
-5.81825e-07
1.60981e-07
-5.73495e-07
2.08506e-07
-4.34058e-07
2.48642e-07
-4.12895e-07
-1.92553e-07
9.33438e-08
-3.67553e-07
-2.28634e-07
2.09098e-07
-3.6769e-07
-2.14242e-07
2.69264e-07
-3.64065e-07
-2.40244e-08
3.19453e-07
-3.63712e-07
6.58042e-09
-3.58071e-07
3.05275e-07
9.5364e-08
-3.2489e-07
-5.53537e-07
2.12953e-07
-3.25337e-07
-5.38831e-07
2.74319e-07
-3.22466e-07
-3.43984e-07
3.25138e-07
-3.22358e-07
-3.12107e-07
-3.17575e-07
-5.64613e-09
9.49198e-08
-2.69406e-07
-5.9307e-07
2.12793e-07
-2.70206e-07
-5.78554e-07
2.74386e-07
-2.68403e-07
-3.83074e-07
3.25398e-07
-2.68598e-07
-3.51115e-07
-2.65297e-07
-4.33938e-08
9.5515e-08
-1.54651e-07
-8.05004e-07
2.14665e-07
-1.55783e-07
-7.90588e-07
2.77074e-07
-1.55669e-07
-5.92513e-07
3.28652e-07
-1.56282e-07
-5.59915e-07
-1.55291e-07
-2.47549e-07
9.43544e-08
-8.29396e-07
2.13687e-07
-8.15526e-07
2.76352e-07
-6.17577e-07
3.28189e-07
-5.85177e-07
-2.72533e-07
1.47106e-07
-5.20394e-07
-3.28881e-07
3.09443e-07
-5.21125e-07
-3.06342e-07
3.92154e-07
-5.16314e-07
-3.70067e-08
4.59309e-07
-5.15794e-07
9.4615e-09
-5.06866e-07
4.29542e-07
1.48169e-07
-4.60168e-07
-7.8827e-07
3.14455e-07
-4.61374e-07
-7.64933e-07
3.99686e-07
-4.57725e-07
-4.87867e-07
4.68237e-07
-4.57577e-07
-4.38937e-07
-4.49995e-07
-6.088e-09
1.47106e-07
-3.80494e-07
-8.47968e-07
3.14073e-07
-3.82221e-07
-8.24734e-07
3.99823e-07
-3.80287e-07
-5.46327e-07
4.68754e-07
-3.80643e-07
-4.97039e-07
-3.7552e-07
-6.17451e-08
1.46332e-07
-2.15153e-07
-1.14854e-06
3.16022e-07
-2.17303e-07
-1.12524e-06
4.03548e-07
-2.17984e-07
-8.424e-07
4.73684e-07
-2.18999e-07
-7.91755e-07
-2.17708e-07
-3.48703e-07
1.44163e-07
-1.18481e-06
3.14303e-07
-1.16209e-06
4.02363e-07
-8.79207e-07
4.72974e-07
-8.28661e-07
-3.84845e-07
2.10251e-07
-7.34625e-07
-4.70903e-07
4.40434e-07
-7.34483e-07
-4.36674e-07
5.58562e-07
-7.25419e-07
-5.66692e-08
6.542e-07
-7.23626e-07
1.24407e-08
-7.08828e-07
6.06124e-07
2.14507e-07
-6.4809e-07
-1.12307e-06
4.50275e-07
-6.48548e-07
-1.0867e-06
5.71863e-07
-6.40926e-07
-6.94009e-07
6.69036e-07
-6.39633e-07
-6.20163e-07
-6.26525e-07
-6.04378e-09
2.13923e-07
-5.33076e-07
-1.21249e-06
4.5082e-07
-5.34227e-07
-1.17601e-06
5.73108e-07
-5.29031e-07
-7.80572e-07
6.7074e-07
-5.2849e-07
-7.05873e-07
-5.1902e-07
-8.70687e-08
2.15341e-07
-2.97888e-07
-1.6378e-06
4.5609e-07
-2.9992e-07
-1.60034e-06
5.80645e-07
-2.9882e-07
-1.19723e-06
6.79591e-07
-2.99498e-07
-1.11975e-06
-2.95885e-07
-4.88298e-07
2.13281e-07
-1.69235e-06
4.54789e-07
-1.65539e-06
5.79972e-07
-1.25139e-06
6.79473e-07
-1.17382e-06
-5.40385e-07
3.05325e-07
-1.01571e-06
-6.66023e-07
6.2167e-07
-1.01548e-06
-6.11657e-07
7.82495e-07
-1.00105e-06
-7.83481e-08
9.06503e-07
-9.97766e-07
2.7723e-08
-9.73275e-07
8.57231e-07
3.11422e-07
-9.01375e-07
-1.58479e-06
6.37457e-07
-9.01946e-07
-1.52632e-06
8.04493e-07
-8.89678e-07
-9.72475e-07
9.31007e-07
-8.86999e-07
-8.57495e-07
-8.65032e-07
4.91856e-09
3.10851e-07
-7.39976e-07
-1.72364e-06
6.3881e-07
-7.41755e-07
-1.66421e-06
8.07147e-07
-7.33767e-07
-1.10487e-06
9.34258e-07
-7.32405e-07
-9.87629e-07
-7.16678e-07
-1.16364e-07
3.12275e-07
-4.11674e-07
-2.32326e-06
6.46847e-07
-4.14713e-07
-2.26199e-06
8.19447e-07
-4.13336e-07
-1.69031e-06
9.487e-07
-4.13931e-07
-1.56753e-06
-4.07891e-07
-6.75806e-07
3.09228e-07
-2.40684e-06
6.44995e-07
-2.34577e-06
8.18788e-07
-1.7724e-06
9.48826e-07
-1.64867e-06
-7.53041e-07
4.44665e-07
-1.46316e-06
-9.43643e-07
8.98835e-07
-1.46002e-06
-8.6085e-07
1.1308e-06
-1.43493e-06
-1.10122e-07
1.30905e-06
-1.42719e-06
4.90956e-08
-1.38716e-06
1.21766e-06
4.58099e-07
-1.29693e-06
-2.25266e-06
9.2725e-07
-1.29498e-06
-2.16054e-06
1.16812e-06
-1.27251e-06
-1.37581e-06
1.34914e-06
-1.2659e-06
-1.19983e-06
-1.22882e-06
2.17286e-08
4.58814e-07
-1.06192e-06
-2.46462e-06
9.31646e-07
-1.06155e-06
-2.37051e-06
1.17464e-06
-1.04482e-06
-1.5756e-06
1.35673e-06
-1.04041e-06
-1.39524e-06
-1.01244e-06
-1.57045e-07
4.65391e-07
-5.85724e-07
-3.31855e-06
9.48519e-07
-5.88162e-07
-3.21852e-06
1.19709e-06
-5.8192e-07
-2.40182e-06
1.38166e-06
-5.81289e-07
-2.21125e-06
-5.68548e-07
-9.3922e-07
4.62897e-07
-3.44817e-06
9.48632e-07
-3.34749e-06
1.19867e-06
-2.52515e-06
1.38434e-06
-2.33261e-06
-1.0518e-06
6.37896e-07
-2.02976e-06
-1.32287e-06
1.26385e-06
-2.02445e-06
-1.18891e-06
1.58152e-06
-1.98425e-06
-1.37774e-07
1.80867e-06
-1.97009e-06
1.10271e-07
-1.90518e-06
1.74067e-06
6.58981e-07
-1.81954e-06
-3.17064e-06
1.30935e-06
-1.81514e-06
-3.02024e-06
1.6431e-06
-1.77776e-06
-1.91608e-06
1.87361e-06
-1.764e-06
-1.63645e-06
-1.70256e-06
7.68858e-08
6.62912e-07
-1.48736e-06
-3.51366e-06
1.31963e-06
-1.48608e-06
-3.3563e-06
1.65682e-06
-1.45954e-06
-2.23103e-06
1.8877e-06
-1.44921e-06
-1.94093e-06
-1.40402e-06
-1.9613e-07
6.72352e-07
-8.21195e-07
-4.72119e-06
1.34629e-06
-8.24119e-07
-4.55441e-06
1.69421e-06
-8.14929e-07
-3.39437e-06
1.92776e-06
-8.11043e-07
-3.08299e-06
-7.90367e-07
-1.28555e-06
6.69395e-07
-4.9276e-06
1.34737e-06
-4.75842e-06
1.69843e-06
-3.58945e-06
1.93284e-06
-3.27104e-06
-1.45769e-06
9.21497e-07
-2.9383e-06
-1.85678e-06
1.81609e-06
-2.92185e-06
-1.65131e-06
2.27464e-06
-2.8516e-06
-1.7939e-07
2.5997e-06
-2.82263e-06
1.98308e-07
-2.71329e-06
2.48347e-06
9.65519e-07
-2.62987e-06
-4.50201e-06
1.89973e-06
-2.61625e-06
-4.26005e-06
2.3808e-06
-2.55045e-06
-2.69831e-06
2.70918e-06
-2.52478e-06
-2.26268e-06
-2.41909e-06
1.58049e-07
9.72235e-07
-2.14654e-06
-5.03334e-06
1.91784e-06
-2.13686e-06
-4.7813e-06
2.40628e-06
-2.08522e-06
-3.1847e-06
2.73782e-06
-2.06714e-06
-2.73011e-06
-1.98451e-06
-2.51558e-07
9.98291e-07
-1.18216e-06
-6.76012e-06
1.96982e-06
-1.18067e-06
-6.48209e-06
2.472e-06
-1.15524e-06
-4.82651e-06
2.80782e-06
-1.14871e-06
-4.33725e-06
-1.10617e-06
-1.76945e-06
9.99588e-07
-7.0958e-06
1.97884e-06
-6.80782e-06
2.48458e-06
-5.127e-06
2.82293e-06
-4.62767e-06
-2.02509e-06
1.33863e-06
-4.12139e-06
-2.58246e-06
2.58534e-06
-4.0938e-06
-2.24294e-06
3.21735e-06
-3.98448e-06
-1.83648e-07
3.61913e-06
-3.92905e-06
4.137e-07
-3.76064e-06
3.59855e-06
1.403e-06
-3.76454e-06
-6.32729e-06
2.71211e-06
-3.73541e-06
-5.92754e-06
3.38672e-06
-3.62417e-06
-3.73323e-06
3.78754e-06
-3.56648e-06
-3.02605e-06
-3.39757e-06
3.64746e-07
1.43073e-06
-3.07788e-06
-7.22537e-06
2.76067e-06
-3.05703e-06
-6.78959e-06
3.44425e-06
-2.97028e-06
-4.52216e-06
3.84286e-06
-2.9212e-06
-3.77398e-06
-2.7954e-06
-2.73444e-07
1.46881e-06
-1.70145e-06
-9.69777e-06
2.84786e-06
-1.6972e-06
-9.22091e-06
3.55558e-06
-1.6599e-06
-6.84459e-06
3.95148e-06
-1.6319e-06
-6.02243e-06
-1.56873e-06
-2.38857e-06
1.47276e-06
-1.02502e-05
2.86822e-06
-9.75969e-06
3.58466e-06
-7.34367e-06
3.97886e-06
-6.48463e-06
-2.79186e-06
1.90971e-06
-5.98433e-06
-3.58471e-06
3.68074e-06
-5.91935e-06
-3.05857e-06
4.59911e-06
-5.72948e-06
-1.8757e-07
5.16189e-06
-5.62825e-06
7.48937e-07
-5.32965e-06
5.19392e-06
2.04907e-06
-5.43732e-06
-8.99882e-06
3.92238e-06
-5.3854e-06
-8.33478e-06
4.90175e-06
-5.20521e-06
-5.23685e-06
5.46068e-06
-5.11727e-06
-4.09595e-06
-4.81539e-06
6.89207e-07
2.06568e-06
-4.38229e-06
-1.04334e-05
3.97692e-06
-4.35095e-06
-9.73525e-06
4.98975e-06
-4.22822e-06
-6.51197e-06
5.56152e-06
-4.17467e-06
-5.28833e-06
-3.93554e-06
-2.98166e-07
2.13632e-06
-2.42298e-06
-1.39024e-05
4.10003e-06
-2.41003e-06
-1.31255e-05
5.16881e-06
-2.3412e-06
-9.80035e-06
5.75076e-06
-2.32617e-06
-8.45285e-06
-2.1908e-06
-3.23733e-06
2.14865e-06
-1.47975e-05
4.12886e-06
-1.39798e-05
5.21654e-06
-1.05785e-05
5.81132e-06
-9.19826e-06
-3.84945e-06
2.86254e-06
-8.61068e-06
-4.85246e-06
5.38612e-06
-8.48856e-06
-3.97756e-06
6.66364e-06
-8.17923e-06
3.59178e-08
7.29512e-06
-7.95779e-06
1.55718e-06
-7.50409e-06
7.7351e-06
3.06425e-06
-8.11992e-06
-1.26389e-05
5.76298e-06
-7.98879e-06
-1.15333e-05
7.15278e-06
-7.6586e-06
-7.14725e-06
7.7488e-06
-7.42124e-06
-5.2285e-06
-6.93429e-06
1.48495e-06
3.21223e-06
-6.75164e-06
-1.5115e-05
5.96733e-06
-6.60302e-06
-1.38761e-05
7.38949e-06
-6.28237e-06
-9.31033e-06
7.9701e-06
-6.0776e-06
-7.21256e-06
-5.70508e-06
-1.00518e-07
3.40461e-06
-3.82831e-06
-2.03627e-05
6.29845e-06
-3.73863e-06
-1.88837e-05
7.7211e-06
-3.55314e-06
-1.39522e-05
8.27662e-06
-3.40905e-06
-1.16769e-05
-3.21292e-06
-4.19844e-06
3.48611e-06
-2.20772e-05
6.44296e-06
-2.04589e-05
7.85481e-06
-1.52931e-05
8.39979e-06
-1.28853e-05
-5.18288e-06
4.2602e-06
-1.29108e-05
-6.40454e-06
7.88394e-06
-1.25947e-05
-4.9385e-06
9.71288e-06
-1.20392e-05
6.91445e-07
1.04745e-05
-1.1582e-05
3.10822e-06
-1.07241e-05
1.17135e-05
4.95392e-06
-1.29792e-05
-1.76166e-05
8.9033e-06
-1.23999e-05
-1.56774e-05
1.07242e-05
-1.15041e-05
-9.50328e-06
1.13324e-05
-1.10416e-05
-6.37709e-06
-1.00324e-05
3.01376e-06
5.14752e-06
-1.12075e-05
-2.21512e-05
9.36132e-06
-1.06646e-05
-1.98252e-05
1.12066e-05
-9.71405e-06
-1.29456e-05
1.17947e-05
-9.24923e-06
-9.59296e-06
-8.25023e-06
5.13733e-07
5.77561e-06
-6.5645e-06
-3.09479e-05
1.02599e-05
-6.22938e-06
-2.78032e-05
1.20827e-05
-5.56208e-06
-1.99269e-05
1.2348e-05
-5.33659e-06
-1.58548e-05
-4.6472e-06
-5.22944e-06
6.09289e-06
-3.46838e-05
1.07781e-05
-3.10916e-05
1.26215e-05
-2.23986e-05
1.26372e-05
-1.79172e-05
-6.8188e-06
7.18042e-06
-2.02605e-05
-7.53972e-06
1.24527e-05
-1.90376e-05
-5.06271e-06
1.46074e-05
-1.76771e-05
2.8976e-06
1.49433e-05
-1.67427e-05
6.75435e-06
-1.52538e-05
1.82191e-05
7.9185e-06
-2.23183e-05
-2.35807e-05
1.41128e-05
-2.0818e-05
-2.00913e-05
1.65189e-05
-1.83434e-05
-1.12431e-05
1.6435e-05
-1.68866e-05
-6.14933e-06
-1.50164e-05
6.64323e-06
9.13665e-06
-2.12564e-05
-3.24898e-05
1.56203e-05
-1.94732e-05
-2.76536e-05
1.79431e-05
-1.61602e-05
-1.74516e-05
1.73841e-05
-1.45756e-05
-1.13449e-05
-1.2934e-05
2.69122e-06
1.10913e-05
-1.25815e-05
-5.09293e-05
1.89115e-05
-1.17429e-05
-4.33537e-05
2.03868e-05
-9.79328e-06
-2.77691e-05
1.87199e-05
-8.45522e-06
-2.03083e-05
-7.72034e-06
-5.405e-06
1.1927e-05
-5.91114e-05
2.06806e-05
-5.11954e-05
2.19365e-05
-3.30093e-05
1.99565e-05
-2.39722e-05
-8.04893e-06
1.04745e-05
-3.09327e-05
-7.57809e-06
1.78859e-05
-2.8259e-05
-3.94771e-06
2.05165e-05
-2.56207e-05
6.90497e-06
2.08591e-05
-2.37443e-05
1.21405e-05
-2.12429e-05
2.70233e-05
1.26231e-05
-3.32745e-05
-3.39608e-05
2.09008e-05
-3.16737e-05
-2.49543e-05
2.39971e-05
-2.74084e-05
-1.25518e-05
2.33653e-05
-2.4444e-05
-4.8179e-06
-2.1013e-05
1.20022e-05
1.42134e-05
-2.63198e-05
-5.37952e-05
2.44077e-05
-2.59923e-05
-4.35293e-05
2.69775e-05
-2.50399e-05
-2.23898e-05
2.52923e-05
-2.14827e-05
-1.26211e-05
-1.84593e-05
6.67977e-06
1.45915e-05
-1.55654e-05
-7.64762e-05
2.5458e-05
-1.51192e-05
-6.50933e-05
3.12184e-05
-1.48077e-05
-4.37618e-05
2.79302e-05
-1.33032e-05
-2.51996e-05
-1.10978e-05
-4.31919e-06
1.5107e-05
-8.97126e-05
2.58561e-05
-7.6683e-05
3.27649e-05
-5.42501e-05
3.06471e-05
-3.46367e-05
-8.12411e-06
1.37118e-05
-4.24765e-05
-7.71967e-06
2.37173e-05
-3.99183e-05
-1.75781e-06
2.77321e-05
-3.59683e-05
1.26537e-05
2.66752e-05
-3.19902e-05
2.06528e-05
-2.71107e-05
3.63408e-05
1.63906e-05
-4.21836e-05
-5.07382e-05
2.93822e-05
-4.00251e-05
-3.7839e-05
3.30135e-05
-3.83698e-05
-1.37816e-05
3.15626e-05
-3.35228e-05
-1.83446e-06
-2.82889e-05
2.04854e-05
1.7841e-05
-3.44283e-05
-7.95273e-05
3.06955e-05
-3.2527e-05
-6.38819e-05
3.79168e-05
-3.12646e-05
-3.67164e-05
3.55575e-05
-2.9906e-05
-1.38785e-05
-2.43597e-05
1.23785e-05
1.90863e-05
-2.11008e-05
-0.000109112
3.19161e-05
-1.97171e-05
-9.07331e-05
3.94488e-05
-1.84447e-05
-6.41143e-05
3.95218e-05
-1.6942e-05
-3.82365e-05
-1.43634e-05
-2.23196e-06
2.04634e-05
-0.000131184
3.38157e-05
-0.0001093
4.16321e-05
-7.99545e-05
4.20033e-05
-5.13536e-05
-8.38053e-06
1.8338e-05
-5.80464e-05
-9.62302e-06
3.0939e-05
-5.39703e-05
4.04435e-07
3.71513e-05
-4.94557e-05
1.85962e-05
3.83587e-05
-4.30773e-05
2.8665e-05
-3.88996e-05
5.05808e-05
2.22114e-05
-6.0502e-05
-7.05849e-05
3.72939e-05
-5.59031e-05
-5.09886e-05
4.4729e-05
-5.16482e-05
-1.90242e-05
4.25446e-05
-4.53594e-05
2.63196e-06
-3.78379e-05
2.84843e-05
2.56061e-05
-5.09318e-05
-0.000114834
4.1858e-05
-4.6444e-05
-8.95929e-05
5.09979e-05
-4.25863e-05
-5.49182e-05
4.8922e-05
-3.79982e-05
-1.91638e-05
-3.17632e-05
1.83116e-05
2.8625e-05
-3.26759e-05
-0.000156228
4.57252e-05
-2.93117e-05
-0.000124966
5.52484e-05
-2.63327e-05
-8.98912e-05
5.33804e-05
-2.29402e-05
-5.14266e-05
-1.91728e-05
-2.41502e-07
3.19643e-05
-0.000195704
5.01672e-05
-0.000156343
5.97712e-05
-0.000115245
5.73456e-05
-7.11711e-05
-1.05045e-05
2.76938e-05
-8.16888e-05
-1.36308e-05
4.44636e-05
-7.50064e-05
4.54521e-06
5.43799e-05
-6.9196e-05
2.65912e-05
5.42496e-05
-6.04586e-05
4.32555e-05
-5.48688e-05
7.42312e-05
3.2873e-05
-9.12017e-05
-9.40445e-05
5.28494e-05
-8.20682e-05
-6.39032e-05
6.36632e-05
-7.43614e-05
-2.46725e-05
5.98253e-05
-6.44298e-05
1.0441e-05
-5.51662e-05
4.30257e-05
3.99834e-05
-8.04907e-05
-0.000165688
6.28589e-05
-7.10436e-05
-0.000123493
7.36014e-05
-6.37621e-05
-7.626e-05
6.8572e-05
-5.37789e-05
-2.47853e-05
-4.5455e-05
2.6294e-05
4.54752e-05
-5.37923e-05
-0.000228704
7.01067e-05
-4.64704e-05
-0.00017417
8.12502e-05
-4.09579e-05
-0.000123839
7.42943e-05
-3.38849e-05
-6.43646e-05
-2.88534e-05
3.80495e-06
5.28359e-05
-0.000302199
7.96042e-05
-0.0002289
9.03801e-05
-0.000166142
8.08541e-05
-9.46147e-05
-1.49687e-05
4.04266e-05
-0.000123666
-1.54169e-05
6.57058e-05
-0.000109099
1.17079e-05
7.75566e-05
-0.00010037
4.26484e-05
7.49242e-05
-8.59197e-05
6.86281e-05
-7.57346e-05
0.000109458
5.15657e-05
-0.000147499
-0.000121843
7.88722e-05
-0.000127189
-7.31195e-05
9.16917e-05
-0.000112672
-2.51904e-05
8.51343e-05
-9.25582e-05
2.36369e-05
-7.84869e-05
6.83411e-05
6.62675e-05
-0.000139964
-0.00023959
9.92219e-05
-0.000115704
-0.000167932
0.000111752
-0.000100263
-0.000101199
9.95115e-05
-7.98746e-05
-2.52286e-05
-6.67823e-05
4.22988e-05
7.97484e-05
-0.000103018
-0.000345673
0.000114722
-8.06781e-05
-0.00024417
0.000126282
-6.73077e-05
-0.000168354
0.000108234
-5.25484e-05
-7.36425e-05
-4.15732e-05
1.08649e-05
0.000102076
-0.000507059
0.000138906
-0.000345897
0.000146472
-0.000240097
0.000122673
-0.000122411
-1.68618e-05
5.98177e-05
-0.000189619
-6.27501e-06
9.72676e-05
-0.000161265
2.93709e-05
0.000112049
-0.00014564
7.42358e-05
0.000102532
-0.000119823
0.000114054
-0.000103326
0.000163378
8.02513e-05
-0.000241925
-0.000149887
0.000119209
-0.000199005
-7.4337e-05
0.000135015
-0.000172339
-1.42972e-05
0.000118993
-0.000136093
5.59295e-05
-0.000113063
0.000113781
0.000113781
-0.000240852
-0.000354656
0.000159393
-0.00019091
-0.000221639
0.000171298
-0.000160708
-0.000124735
0.000144853
-0.000120583
-1.42939e-05
-9.85412e-05
7.39279e-05
0.000141436
-0.000187413
-0.000541014
0.000189508
-0.000142909
-0.000340243
0.000197867
-0.000115183
-0.000222238
0.000160263
-8.17165e-05
-7.49053e-05
-6.12258e-05
2.83506e-05
0.000186392
-0.000880735
0.00023979
-0.000540897
0.000241051
-0.000355177
0.000188808
-0.00015042
-7.93323e-06
9.58297e-05
-0.000307002
2.58674e-05
0.000140465
-0.000244916
8.21785e-05
0.000155195
-0.000216977
0.000138185
0.000137302
-0.000164901
0.000187458
-0.000138458
0.00024037
0.000133819
-0.000429297
-0.000161357
0.000181548
-0.000323756
-4.32262e-05
0.000197491
-0.000271612
2.43951e-05
0.000163816
-0.000198571
0.000123274
-0.000156478
0.000187211
0.000209526
-0.000482114
-0.000511293
0.000267465
-0.00033496
-0.000268375
0.000270321
-0.00026896
-0.000130243
0.000215738
-0.000182835
2.45528e-05
-0.000142018
0.000138031
0.000281828
-0.000430894
-0.000874337
0.000333728
-0.000282633
-0.000444471
0.000322587
-0.000210891
-0.000269165
0.000243602
-0.000134958
-4.37971e-05
-9.72928e-05
8.10288e-05
0.000430131
-0.00174108
0.000480471
-0.000874051
0.000427771
-0.000511837
0.000305246
-0.000161746
2.44168e-05
0.00013612
-0.000461315
0.000101974
0.000193274
-0.0003532
0.000178918
0.000206162
-0.000299728
0.000243515
0.00017707
-0.000218024
0.000295744
-0.00017821
0.000348509
0.000201073
-0.000679691
-0.000144139
0.000267456
-0.000492254
2.94447e-05
0.000272682
-0.000398004
0.000117447
0.000216777
-0.00027408
0.000235234
-0.000207331
0.000295239
0.000338462
-0.000825365
-0.000704419
0.000414964
-0.000551237
-0.000285894
0.000396767
-0.000416716
-9.33344e-05
0.000298736
-0.000269262
0.000117766
-0.000194485
0.000243212
0.000486262
-0.000752627
-0.00143421
0.000549328
-0.000487662
-0.000571112
0.000490833
-0.00034024
-0.000287147
0.000351981
-0.000203121
2.89145e-05
-0.000137033
0.000177298
0.000749653
-0.00324398
0.000824718
-0.00143308
0.000678907
-0.000704055
0.000460626
-0.000144043
0.000101182
0.000194478
-0.000760473
0.000301828
0.000256855
-0.000511795
0.000369603
0.000265319
-0.000421972
0.000418598
0.000219327
-0.000276507
0.000452602
-0.00022101
0.000488501
0.000338936
-0.00125079
7.61113e-06
0.000383516
-0.000780749
0.000253818
0.00036617
-0.000606417
0.000319238
0.000274993
-0.000367439
0.000417343
-0.000267142
0.000452252
0.00063924
-0.00191715
-0.000676562
0.000699953
-0.000998897
-0.000128459
0.000604798
-0.000701748
9.71518e-05
0.000420092
-0.000384551
0.000319583
-0.000259082
0.000418709
0.0010358
-0.00213623
-0.00225096
0.000997947
-0.00103504
-0.000497114
0.000779622
-0.000640671
-0.000129899
0.000509652
-0.000338986
0.00025332
-0.000196782
0.000368285
0.0021386
-0.00182189
-0.00155319
-0.00231912
-0.00182152
0.00191477
-0.00225204
0.00124833
-0.000675661
0.000756763
8.4668e-06
0.000301879
0.000233095
-0.00101126
0.000610792
0.000302209
-0.000641931
0.000627629
0.000298481
-0.000506071
0.00064583
0.000243646
-0.000317106
0.000637516
-0.000245122
0.000640362
0.000417557
-0.00192307
0.000501757
0.000478454
-0.00107559
0.000626585
0.000432762
-0.000758229
0.000617088
0.000315416
-0.000434664
0.000652246
-0.000300201
0.000637097
0.000946971
-0.00363134
8.42325e-05
0.000979612
-0.00165106
0.000414361
0.000756371
-0.000981802
0.000543967
0.000504914
-0.000481394
0.000617771
-0.000304107
0.000645984
0.00195047
-0.000815478
-0.000464525
-0.000374119
-0.00121429
-0.000810959
-0.000867111
-0.00187632
-0.00141187
0.0016486
-0.00195226
0.000105958
0.00107455
-0.000949817
0.000412162
0.000640202
-0.000420525
0.000626802
-0.000234393
0.000625968
0.000595237
-0.000624706
-0.00261238
0.00362899
-0.000806076
-0.000374069
-0.00121386
-0.000459847
-0.000865237
-0.000813224
-0.00141039
-0.0018745
0.00192203
8.59181e-05
0.00101095
0.000503718
0.000611245
0.000279527
-0.0013692
0.00111667
0.000333765
-0.000777367
0.00100439
0.000316944
-0.000590135
0.000942131
0.000251121
-0.000335728
0.000851752
-0.0002531
0.000802706
0.000557082
-0.00275091
0.00132695
0.000568568
-0.00133616
0.0011739
0.00047458
-0.000932498
0.00105344
0.000334017
-0.000475929
0.000933011
-0.000319165
0.000851849
0.00139069
-0.00160913
0.00216659
-0.00140226
-0.0017756
-0.00143704
0.00131947
-0.00245962
0.00160905
0.000930532
-0.00132044
0.00132084
0.000587856
-0.000568899
0.00105342
-0.000336276
0.000942881
0.000599537
-0.00268592
1.14094e-05
0.00245862
-0.00109532
0.00077081
0.000548707
0.000966702
0.000771879
-0.000772403
-0.00109303
-0.00065882
-0.00140919
-0.000772732
-0.00141408
-0.00065482
0.00133463
-0.00139341
0.00160912
0.00077464
-0.000555435
0.00117333
-0.000282033
0.00100348
0.000995535
0.000838019
0.000351693
-0.00113488
-0.00105169
-0.000658984
0.00197252
-0.00101767
-0.000113572
-0.000669549
-0.000668229
-0.000745902
0.00274776
0.00217002
-0.00140217
-0.00161158
-0.00143286
-0.00177216
0.00136293
0.001325
0.00112054
0.000199066
-0.000975026
0.00145222
0.000265478
-0.000575285
0.00126084
0.0002495
-0.000452968
0.00114341
0.00020969
-0.000260052
0.00100148
-0.00021102
0.000902137
0.000403461
-0.00182318
0.0017721
0.000406894
-0.000900231
0.00149541
0.000356523
-0.000701458
0.0013523
0.000258418
-0.000357881
0.00112894
-0.000251373
0.00100215
0.0009211
-0.00157698
0.0032404
-0.00117553
-0.000622514
-0.00044417
0.000961468
-0.000677208
0.00229653
-0.000498341
-0.000219231
-0.000233305
0.000699857
-0.000960695
0.00184169
0.000452012
-0.000409042
0.00135242
-0.000267494
0.00114452
0.000555065
0.00151816
-0.000849436
-0.000588574
-0.000827033
-0.000785972
-0.000599057
-0.000659624
0.000593419
-0.000796458
0.000956265
0.000899226
-0.000925329
0.00229724
-0.000496793
-0.000676015
-0.000233473
-0.00021643
0.00057264
-0.000403728
0.0014946
-0.000202711
0.00126302
0.000855387
0.00316955
0.000294104
-0.000143487
-0.00417589
-0.000724271
0.000363874
-0.000370783
-0.000385877
0.000522777
0.00059428
0.00182335
0.00324825
-0.00117363
-0.00157765
-0.000441435
-0.000623703
0.000975613
0.00177198
0.00145554
3.12094e-05
-0.000256984
0.00135978
7.68796e-05
-0.000175294
0.00123456
9.72433e-05
-0.000178791
0.00114615
0.000108761
-0.000130673
0.00102512
-0.000110267
0.000922008
0.000202562
-0.000376141
0.00168944
0.000179821
-0.000130402
0.00147326
0.000146469
-0.00014705
0.00135391
0.000129073
-0.000148465
0.00116413
-9.86644e-05
0.00102579
3.33803e-05
-0.000190322
0.00232416
8.38418e-05
0.000348532
0.00026589
7.15743e-05
0.000203916
0.00192402
0.000145778
-6.9545e-05
0.00168998
0.000177051
-0.000181861
0.00135455
-7.88434e-05
0.00114774
-2.20288e-05
0.00066013
0.000418234
-0.00124818
-0.0002047
0.000416113
0.00183888
2.77908e-06
0.000423046
-3.94811e-05
0.000664053
2.7585e-06
0.000659341
-3.98558e-05
-0.000778761
-0.000731669
-0.00122953
-0.000779062
0.000131052
-3.20768e-05
0.00192403
0.000173059
-0.000203527
0.00147426
-3.48276e-05
0.0012375
-0.000405265
0.00402858
-0.000269388
0.000196793
-0.0035514
0.000245333
-0.000575697
0.000475901
0.000210559
0.000512077
0.000321054
0.000530154
-0.00130327
0.000378474
0.00232592
8.49451e-05
-0.000197956
0.00027465
0.000355141
0.000251849
0.00169185
0.00136218
-5.59768e-05
1.59431e-05
0.00120875
-2.19938e-05
2.94989e-06
0.00113981
4.73436e-06
-2.02244e-05
0.00105176
4.67747e-05
-2.69917e-05
0.000974499
-4.66539e-05
0.00086428
7.04627e-05
-4.66193e-05
0.00168254
4.50003e-05
3.42133e-05
0.00146746
1.43757e-05
8.96502e-05
0.00127466
2.63786e-05
-1.54278e-05
0.00114057
-5.02175e-06
0.000975634
-0.000270511
0.000455642
0.00182068
0.000400252
-0.000199349
7.19159e-05
-0.000205978
0.000206691
0.00168701
-9.16072e-05
0.000208133
0.00145712
2.08786e-05
-4.83721e-05
0.00127501
2.23567e-05
0.00105271
0.0003847
-1.53041e-05
0.000647339
-0.000561698
-0.000199644
0.000230222
0.00049892
0.000435017
0.000385605
0.000497786
-7.56325e-06
0.000222133
0.000228915
-0.000243738
-4.8423e-06
-0.000235307
0.000238072
-3.10825e-05
0.000275443
0.00168815
-1.90894e-06
-7.26894e-05
0.0014694
5.68697e-05
0.00114338
-0.000938449
0.000231994
0.0111889
-0.00059915
-0.00263402
-0.00228915
-0.0021712
-0.00278719
0.00104126
0.00075192
-0.00067226
0.000239828
-0.00113052
5.18022e-05
0.00181363
0.000411899
0.00045524
6.97827e-05
-0.000195382
-1.32764e-05
0.0016859
0.00120913
-5.93993e-05
7.2289e-05
0.00118488
-6.35577e-05
0.00011129
0.00108921
-6.66752e-05
8.01472e-05
0.000979023
-2.49777e-05
6.7315e-05
0.000893721
2.33869e-05
0.000785837
-2.62042e-05
5.86552e-05
0.00172297
-8.33214e-05
0.000169355
0.00146651
-0.000101429
0.000129039
0.00124388
-6.80094e-05
0.00010139
0.00107307
6.52214e-05
0.00089548
-9.33889e-05
-0.00040434
0.00234964
-0.000186965
4.74074e-05
0.000169664
-9.9121e-05
-0.000227901
0.00195879
-3.38037e-05
-9.93548e-06
0.000174951
-0.000131426
9.38964e-05
0.00152457
-8.20639e-05
8.3789e-05
0.00124324
6.14102e-05
0.00098112
0.00018164
0.000367427
0.00037678
-0.00036023
-0.000342056
-0.000298164
-0.000329655
-9.24021e-05
5.678e-05
-0.000356988
0.00066363
-0.000170532
8.52494e-05
0.00196564
-3.55642e-05
-0.000228343
0.000175361
-9.76434e-06
-0.000112335
2.71086e-05
0.00146789
5.61544e-05
0.00109515
0.00237674
0.000859616
0.000313383
-0.000615976
-0.00293261
-0.000281054
0.000172566
0.00013087
0.000240586
-0.000271198
8.23061e-06
-6.60215e-05
0.00235247
-0.000188409
-0.000393795
0.000160895
4.62562e-05
-7.6761e-05
0.0017242
0.00119139
-0.000156987
0.00077198
0.000959402
-0.000168361
0.000572675
0.000882849
-0.000159323
0.000341857
0.000798182
-8.93076e-05
0.000228987
0.000742521
9.14931e-05
0.000650129
-0.000293222
0.00160198
0.00118718
-0.000387219
0.00108649
0.0010467
-0.000341747
0.000579145
0.000961118
-0.00022763
0.000342364
0.000845578
0.000162453
0.000743563
-0.000673296
0.000403694
0.00178071
0.000518624
0.00100433
0.000919495
-0.000748178
0.00171757
0.00140258
-0.00057577
0.000756285
0.00117502
-0.000338573
0.000388165
0.000960247
0.000172819
0.00079908
-0.000100407
0.000850728
-0.000909902
4.73127e-05
6.41292e-05
0.00021171
0.000242046
-0.00171389
0.000480673
0.00169773
0.000309307
0.000491053
0.000501395
0.00101434
0.000316227
0.00102065
0.000502195
-0.000646183
-0.000526192
-0.00108371
-0.000646021
-0.00108597
0.000686721
0.00140728
-0.000570355
0.000293485
0.00104695
0.000161978
0.000886261
0.0041512
-0.000224831
-0.000223857
8.00809e-05
-0.00378358
0.000164539
-0.000733998
0.00104063
0.000327822
0.000311882
0.000537841
-0.000379278
7.85244e-05
1.59025e-05
0.000166509
3.30034e-05
-0.00034193
-0.000374795
-0.000365977
-0.0016016
0.00178984
0.000520094
0.000405366
0.000915704
0.00100202
-0.000770096
0.00118402
0.000962917
-0.00023117
0.00107051
0.000587086
-0.000270505
0.000728685
0.000596729
-0.000249538
0.000481105
0.000559365
-0.000170148
0.00030349
0.000558987
0.000170567
0.000501949
-0.000367078
0.00206214
0.00056543
-0.000472145
0.00128724
0.000593208
-0.000428784
0.000788421
0.000610441
-0.000303431
0.000429244
0.000594471
0.000250749
0.000559276