/*--------------------------------*- C++ -*----------------------------------*\
| =========                 |                                                 |
| \\      /  F ield         | OpenFOAM: The Open Source CFD Toolbox           |
|  \\    /   O peration     | Version:  5.x                                   |
|   \\  /    A nd           | Web:      www.OpenFOAM.org                      |
|    \\/     M anipulation  |                                                 |
\*---------------------------------------------------------------------------*/
FoamFile
{
    version     2.0;
    format      ascii;
    class       volScalarField;
    location    "0.066";
    object      phiIB;
}
// * * * * * * * * * * * * * * * * * * * * * * * * * * * * * * * * * * * * * //

dimensions      [0 2 -1 0 0 0 0];

internalField   nonuniform List<scalar> 
1560
(
-0.000195827
-0.000195828
-0.000195847
-0.000195857
-0.000195912
-0.000195756
-0.000195756
-0.000195775
-0.000195785
-0.00019584
-0.000195746
-0.000195746
-0.000195764
-0.000195774
-0.000195829
-0.00019572
-0.000195719
-0.000195737
-0.000195748
-0.000195803
-0.000195722
-0.000195721
-0.000195739
-0.000195749
-0.000195803
-0.000403807
-0.000403808
-0.000403815
-0.000403829
-0.000403838
-0.000403786
-0.000403787
-0.000403795
-0.000403808
-0.000403818
-0.000403767
-0.000403768
-0.000403775
-0.000403789
-0.000403798
-0.000403753
-0.000403753
-0.000403761
-0.000403775
-0.000403784
-0.000403747
-0.000403747
-0.000403754
-0.000403768
-0.000403777
-0.000907215
-0.00090722
-0.00090725
-0.000907281
-0.000907351
-0.000907123
-0.000907127
-0.000907157
-0.000907188
-0.000907258
-0.000907083
-0.000907087
-0.000907116
-0.000907147
-0.000907218
-0.000907039
-0.000907042
-0.000907071
-0.000907102
-0.000907172
-0.000907028
-0.000907031
-0.000907059
-0.00090709
-0.00090716
-0.00120446
-0.00120447
-0.0012045
-0.00120454
-0.00120461
-0.00120437
-0.00120438
-0.00120441
-0.00120445
-0.00120452
-0.00120432
-0.00120432
-0.00120436
-0.0012044
-0.00120446
-0.00120427
-0.00120427
-0.00120431
-0.00120435
-0.00120442
-0.00120425
-0.00120425
-0.00120429
-0.00120433
-0.0012044
-0.00166973
-0.00166974
-0.0016698
-0.00166986
-0.00166998
-0.00166958
-0.00166959
-0.00166965
-0.00166971
-0.00166983
-0.0016695
-0.00166951
-0.00166957
-0.00166963
-0.00166975
-0.00166942
-0.00166944
-0.00166949
-0.00166956
-0.00166967
-0.0016694
-0.00166941
-0.00166946
-0.00166953
-0.00166965
-0.0020003
-0.00200032
-0.00200039
-0.00200048
-0.00200063
-0.00200011
-0.00200013
-0.0020002
-0.00200029
-0.00200044
-0.002
-0.00200002
-0.00200009
-0.00200018
-0.00200034
-0.0019999
-0.00199992
-0.00199999
-0.00200008
-0.00200024
-0.00199987
-0.00199988
-0.00199996
-0.00200005
-0.0020002
-0.00243939
-0.00243941
-0.00243952
-0.00243965
-0.00243988
-0.00243912
-0.00243914
-0.00243925
-0.00243938
-0.00243961
-0.00243897
-0.00243899
-0.0024391
-0.00243923
-0.00243946
-0.00243883
-0.00243885
-0.00243896
-0.00243909
-0.00243932
-0.00243878
-0.00243881
-0.00243891
-0.00243904
-0.00243927
-0.00278996
-0.00278999
-0.00279014
-0.00279031
-0.00279063
-0.00278959
-0.00278962
-0.00278978
-0.00278995
-0.00279027
-0.00278938
-0.00278942
-0.00278957
-0.00278975
-0.00279007
-0.0027892
-0.00278923
-0.00278938
-0.00278956
-0.00278988
-0.00278913
-0.00278917
-0.00278932
-0.0027895
-0.00278982
-0.00321055
-0.0032106
-0.00321082
-0.00321106
-0.00321151
-0.00321003
-0.00321008
-0.0032103
-0.00321055
-0.003211
-0.00320975
-0.0032098
-0.00321002
-0.00321027
-0.00321073
-0.00320948
-0.00320954
-0.00320975
-0.00321001
-0.00321047
-0.0032094
-0.00320945
-0.00320967
-0.00320992
-0.00321038
-0.00357401
-0.00357408
-0.00357437
-0.0035747
-0.00357532
-0.00357328
-0.00357336
-0.00357365
-0.00357399
-0.00357463
-0.0035729
-0.00357297
-0.00357327
-0.00357362
-0.00357426
-0.00357255
-0.00357262
-0.00357292
-0.00357326
-0.00357391
-0.00357244
-0.00357251
-0.0035728
-0.00357315
-0.0035738
-0.00397985
-0.00397995
-0.00398037
-0.00398084
-0.00398173
-0.00397884
-0.00397894
-0.00397936
-0.00397984
-0.00398075
-0.00397829
-0.0039784
-0.00397883
-0.00397932
-0.00398024
-0.00397779
-0.0039779
-0.00397833
-0.00397883
-0.00397976
-0.00397763
-0.00397774
-0.00397817
-0.00397867
-0.0039796
-0.00435044
-0.00435057
-0.00435112
-0.00435176
-0.00435298
-0.00434903
-0.00434917
-0.00434974
-0.0043504
-0.00435166
-0.0043483
-0.00434844
-0.00434901
-0.00434968
-0.00435096
-0.00434767
-0.00434779
-0.00434835
-0.00434903
-0.00435033
-0.00434749
-0.00434761
-0.00434816
-0.00434883
-0.00435014
-0.00474261
-0.00474279
-0.00474358
-0.00474444
-0.00474618
-0.0047406
-0.0047408
-0.00474162
-0.00474253
-0.00474432
-0.00473958
-0.00473979
-0.00474061
-0.00474155
-0.00474339
-0.00473861
-0.00473883
-0.00473969
-0.00474064
-0.0047425
-0.0047383
-0.00473853
-0.00473941
-0.00474036
-0.00474224
-0.00511408
-0.00511431
-0.0051153
-0.00511645
-0.00511877
-0.00511136
-0.0051116
-0.00511264
-0.00511385
-0.0051163
-0.00510994
-0.0051102
-0.00511129
-0.00511256
-0.00511507
-0.00510878
-0.00510902
-0.00511008
-0.0051114
-0.00511395
-0.00510847
-0.00510869
-0.00510973
-0.00511106
-0.00511364
-0.00549009
-0.00549033
-0.0054916
-0.00549287
-0.00549593
-0.00548633
-0.00548666
-0.0054881
-0.00548946
-0.00549269
-0.00548486
-0.0054852
-0.00548662
-0.00548801
-0.00549132
-0.00548291
-0.00548342
-0.00548506
-0.00548643
-0.00548991
-0.0054822
-0.0054828
-0.00548461
-0.00548599
-0.00548957
-0.00585193
-0.00585224
-0.00585376
-0.00585492
-0.00585867
-0.00584812
-0.00584844
-0.00584978
-0.00585094
-0.00585469
-0.0058462
-0.00584682
-0.00584857
-0.00584967
-0.00585341
-0.00584526
-0.00584525
-0.00584662
-0.00584817
-0.00585174
-0.00584567
-0.00584511
-0.00584587
-0.00584773
-0.00585133
-0.00619815
-0.00619772
-0.00619884
-0.00619918
-0.00620311
-0.00619353
-0.00619339
-0.00619468
-0.00619475
-0.00619893
-0.00619579
-0.00619421
-0.00619436
-0.00619461
-0.0061985
-0.00620467
-0.0061994
-0.00619399
-0.00619304
-0.00619718
-0.00621187
-0.00620462
-0.00619553
-0.00619301
-0.00619742
-0.00651646
-0.00651507
-0.00651628
-0.00651628
-0.00652321
-0.00651392
-0.00651116
-0.00651101
-0.00651068
-0.00651593
-0.00652095
-0.00651647
-0.00651207
-0.00651094
-0.00651581
-0.0065249
-0.00652133
-0.00651616
-0.00651077
-0.00651438
-0.00652759
-0.00652469
-0.0065204
-0.00651341
-0.00651564
-0.0067782
-0.00677728
-0.00677844
-0.00678262
-0.00679792
-0.00677392
-0.00677174
-0.00676983
-0.00677077
-0.00678209
-0.00677457
-0.00677276
-0.00677182
-0.00676949
-0.00677757
-0.00677113
-0.00677058
-0.00677217
-0.00677092
-0.00677593
-0.00677048
-0.00677056
-0.00677339
-0.00677248
-0.00677634
-0.00698081
-0.00698378
-0.00699372
-0.0070073
-0.00702863
-0.0069634
-0.00696685
-0.00697403
-0.00698397
-0.00700652
-0.00694816
-0.00695387
-0.00696383
-0.00697351
-0.00699241
-0.00693214
-0.00694028
-0.00695284
-0.00696537
-0.00698163
-0.00692034
-0.00693129
-0.00694632
-0.00696119
-0.00697817
-0.0071217
-0.00712539
-0.00714129
-0.00715754
-0.00718294
-0.00708199
-0.00708948
-0.00710701
-0.00712537
-0.00715657
-0.00705242
-0.00706277
-0.00708346
-0.00710615
-0.00713948
-0.00702374
-0.00703749
-0.00706141
-0.00708733
-0.00712242
-0.00700832
-0.00702239
-0.00704979
-0.0070788
-0.00711827
-0.00720416
-0.0072131
-0.00723092
-0.00725153
-0.00728479
-0.00713727
-0.00715427
-0.00717912
-0.00721142
-0.00725016
-0.00707283
-0.0071027
-0.00713608
-0.00717814
-0.00722855
-0.00702458
-0.00706418
-0.00710084
-0.00715156
-0.00720887
-0.00697121
-0.00702358
-0.00706978
-0.00713351
-0.00719888
-0.00726033
-0.00726509
-0.0072768
-0.00728924
-0.00732665
-0.00718389
-0.00719507
-0.00721685
-0.00724229
-0.00728745
-0.00714377
-0.00715404
-0.00718132
-0.0072156
-0.00727383
-0.00710269
-0.00712169
-0.00715222
-0.00719199
-0.00726038
-0.00709477
-0.00710115
-0.00714066
-0.0071793
-0.00725451
-0.0072552
-0.00726135
-0.0072734
-0.00729473
-0.00734364
-0.00714166
-0.00717079
-0.00719627
-0.00723492
-0.00729232
-0.00703732
-0.00709382
-0.00713255
-0.00719522
-0.00726963
-0.00697842
-0.00705396
-0.00709102
-0.00716718
-0.00725484
-0.00680501
-0.00697781
-0.00703368
-0.00713733
-0.00724729
-0.00729255
-0.00728744
-0.00729384
-0.00729921
-0.00734713
-0.00718849
-0.0072041
-0.00721592
-0.00723636
-0.00729674
-0.0071537
-0.00716711
-0.00719029
-0.00721457
-0.00729007
-0.0070795
-0.00715337
-0.00716467
-0.00720063
-0.00728098
-0.00706
-0.00707775
-0.00715116
-0.00718369
-0.0072865
-0.00721499
-0.00722354
-0.00723697
-0.00726318
-0.00732921
-0.00706513
-0.00709395
-0.00711578
-0.00717139
-0.00725954
-0.00688196
-0.00701134
-0.00704059
-0.00711495
-0.00723162
-0.00683556
-0.00699887
-0.00700689
-0.00708891
-0.00721385
-0.00605359
-0.0068336
-0.00687614
-0.0070597
-0.00720396
-0.00719413
-0.00719992
-0.00721747
-0.0072295
-0.00730264
-0.00698706
-0.0070706
-0.00709108
-0.00713729
-0.00722584
-0.00685583
-0.0069849
-0.00701905
-0.00709022
-0.00721295
-0.00677558
-0.0071411
-0.00698067
-0.00706641
-0.00718982
-0.00675328
-0.00677361
-0.00685314
-0.00698083
-0.00718709
-0.007122
-0.00711571
-0.00714116
-0.00716348
-0.00723941
-0.00688003
-0.00690543
-0.00697824
-0.00704694
-0.00715861
-0.00664592
-0.00677459
-0.00688094
-0.00697746
-0.00713403
-0.00654718
-0.00654502
-0.00676848
-0.00689899
-0.0071025
-0.00553659
-0.00607762
-0.00663761
-0.006872
-0.00710565
-0.00711653
-0.0070848
-0.0070985
-0.00708524
-0.00715584
-0.00708338
-0.00699577
-0.00701732
-0.00701207
-0.00708046
-0.00702654
-0.00703083
-0.00700176
-0.00701686
-0.00709373
-0.00723305
-0.00700893
-0.00702532
-0.00699063
-0.00707227
-0.00761175
-0.00713188
-0.00702601
-0.00707478
-0.00710681
-0.00701978
-0.00697891
-0.00700262
-0.00700626
-0.00705942
-0.00687366
-0.00687309
-0.0068982
-0.00694132
-0.00700098
-0.00675002
-0.00677653
-0.00684157
-0.00689603
-0.00699434
-0.00648044
-0.00667828
-0.00677089
-0.00686491
-0.00696444
-0.00730541
-0.00693391
-0.00673549
-0.00685964
-0.00699686
-0.00679177
-0.00678439
-0.00679754
-0.00679924
-0.00685732
-0.00669658
-0.00668686
-0.00672053
-0.00674751
-0.00679567
-0.00639742
-0.00660525
-0.00663369
-0.00671857
-0.00679226
-0.00620467
-0.0066187
-0.00659911
-0.00668103
-0.00677196
-0.00538545
-0.00637573
-0.00638081
-0.00668713
-0.00677844
-0.00676971
-0.00674605
-0.00676315
-0.00676143
-0.00678837
-0.0067914
-0.00675042
-0.00673842
-0.00675416
-0.00675682
-0.00674002
-0.00667991
-0.00671953
-0.00673524
-0.00675387
-0.00621717
-0.00639923
-0.00666904
-0.00674257
-0.00673019
-0.004171
-0.00568206
-0.00671723
-0.00677542
-0.00674808
-0.00651433
-0.0064863
-0.0064677
-0.00644624
-0.00646001
-0.00652685
-0.00648594
-0.00649109
-0.00644571
-0.00644477
-0.00678828
-0.00662178
-0.00653721
-0.00648782
-0.00646342
-0.00680289
-0.00648807
-0.00661712
-0.00647945
-0.0064776
-0.00880147
-0.00723355
-0.00676729
-0.00651443
-0.00649994
-0.006469
-0.0064842
-0.00648244
-0.00647173
-0.00647524
-0.00652132
-0.00647795
-0.00649106
-0.00647033
-0.00646957
-0.00639006
-0.00650487
-0.00647534
-0.00648631
-0.00647701
-0.00663372
-0.0065003
-0.00650075
-0.00646945
-0.00647463
-0.00648928
-0.00660952
-0.00637418
-0.00650333
-0.00645223
-0.00588961
-0.00588441
-0.00587453
-0.0058473
-0.00585456
-0.00592487
-0.00592701
-0.00589688
-0.00586671
-0.00584814
-0.0058958
-0.00597044
-0.00592141
-0.00589525
-0.00587429
-0.00606654
-0.00607084
-0.00596572
-0.00592372
-0.00588134
-0.00573639
-0.00607001
-0.0058883
-0.00591835
-0.00588132
-0.00558916
-0.00559756
-0.00559813
-0.00559011
-0.00559271
-0.00559567
-0.00559538
-0.00560048
-0.00559436
-0.00558906
-0.00554934
-0.0055837
-0.00557437
-0.00559943
-0.00559664
-0.00571198
-0.00563073
-0.00558406
-0.00559429
-0.00559496
-0.00566516
-0.0057055
-0.00554668
-0.00559222
-0.00558401
-0.00423833
-0.00426811
-0.00429762
-0.00432266
-0.00435048
-0.00424743
-0.00426547
-0.00427563
-0.00430312
-0.00432361
-0.00425561
-0.0042792
-0.00426287
-0.00427446
-0.00429767
-0.00433732
-0.00434136
-0.00427997
-0.00426678
-0.00426982
-0.00426728
-0.00433633
-0.00425507
-0.00424995
-0.00424016
-0.00347279
-0.00347216
-0.00346807
-0.00346317
-0.00346387
-0.00351448
-0.00350356
-0.00348269
-0.0034708
-0.0034622
-0.00361134
-0.00357129
-0.00350928
-0.0034821
-0.00346646
-0.00375095
-0.00367808
-0.00357063
-0.00350191
-0.00346927
-0.00381077
-0.00374916
-0.00360978
-0.00351099
-0.00346913
-0.0015796
-0.00157098
-0.00156414
-0.00155375
-0.00155524
-0.00160304
-0.00158088
-0.00156371
-0.00155486
-0.00155434
-0.00167275
-0.001648
-0.00159484
-0.00156259
-0.0015634
-0.00170252
-0.0016978
-0.0016475
-0.00157815
-0.00156902
-0.00168628
-0.00170103
-0.0016705
-0.00159701
-0.00157512
-0.000821202
-0.000815023
-0.000810647
-0.000804236
-0.000805533
-0.000851064
-0.000839879
-0.000822817
-0.000813757
-0.00080429
-0.000902152
-0.000871608
-0.000840446
-0.00082235
-0.00081004
-0.00101169
-0.000945068
-0.000870822
-0.000838503
-0.000813711
-0.00109376
-0.00101145
-0.000900867
-0.000848739
-0.000819086
-0.00567932
-0.00506477
-0.00538964
-0.00451155
-0.00575471
-0.00247538
-0.00453159
-0.00540527
-0.00359689
-0.0041458
-0.00957937
-0.00750455
-0.00778142
-0.00957705
-0.00734788
-0.00822486
-0.00878889
-0.00657238
-0.0059594
-0.00727392
-0.00656033
-0.0063597
-0.00674793
-0.00648679
-0.00636691
-0.00644492
-0.00630089
-0.00634437
-0.00666454
-0.00756873
-0.00728041
-0.00627896
-0.00643687
-0.00592638
-0.00627185
-0.00652945
-0.00705834
-0.00694213
-0.00676443
-0.00676048
-0.00643673
-0.006617
-0.0065198
-0.00704832
-0.00645962
-0.00662049
-0.00675469
-0.00643311
-0.0067602
-0.00737892
-0.00780212
-0.00698771
-0.00697995
-0.00667769
-0.00757722
-0.00757079
-0.00674837
-0.00751602
-0.00724559
-0.00636343
-0.00632348
-0.00716254
-0.00687862
-0.00673247
-0.0074956
-0.0067849
-0.00689071
-0.00631713
-0.00714096
-0.00635277
-0.007528
-0.00742799
-0.00636074
-0.00752115
-0.0071965
-0.00728291
-0.00767559
-0.00752335
-0.00741642
-0.00635074
-0.00750996
-0.00719099
-0.00727384
-0.00766607
-0.00676263
-0.00663135
-0.0075812
-0.00785951
-0.00710722
-0.00801982
-0.00783404
-0.00629916
-0.00736187
-0.00735006
-0.00771881
-0.00720383
-0.00702058
-0.00701681
-0.00722659
-0.00710505
-0.00750068
-0.00643158
-0.00736632
-0.00599551
-0.00781536
-0.00722567
-0.00709361
-0.0074854
-0.00641707
-0.00736041
-0.00599326
-0.00781217
-0.00755051
-0.00660099
-0.00685768
-0.00685257
-0.00722581
-0.00722532
-0.00754025
-0.00777377
-0.00719468
-0.00718558
-0.00583052
-0.00747286
-0.00689719
-0.00689382
-0.007958
-0.00834226
-0.00833712
-0.0083886
-0.0085397
-0.00825331
-0.00824983
-0.00812875
-0.0086292
-0.00842589
-0.0079611
-0.00847109
-0.00766702
-0.00838443
-0.00812565
-0.008625
-0.00840961
-0.00794425
-0.00846559
-0.00766224
-0.00837142
-0.00809055
-0.00807758
-0.0080286
-0.00843266
-0.00808905
-0.00829523
-0.00828597
-0.00701424
-0.00823785
-0.0071336
-0.00701139
-0.00697142
-0.00792901
-0.00716908
-0.00701091
-0.00822901
-0.00721263
-0.00715866
-0.00696758
-0.00789506
-0.00699764
-0.00830901
-0.00779978
-0.00779317
-0.0069258
-0.00893434
-0.00763276
-0.00762295
-0.00762806
-0.00846291
-0.00809203
-0.00846025
-0.00863272
-0.0084825
-0.00860593
-0.00761793
-0.00844205
-0.00808395
-0.00845012
-0.00860782
-0.00846684
-0.00858525
-0.00772351
-0.00771838
-0.00835462
-0.00887031
-0.00714368
-0.00771477
-0.00769919
-0.00752955
-0.00690563
-0.00799989
-0.00799598
-0.00825887
-0.00718741
-0.00718333
-0.00612984
-0.00530035
-0.00568916
-0.00700153
-0.0069141
-0.00755316
-0.00718768
-0.00612056
-0.00526899
-0.00623105
-0.00721044
-0.00690047
-0.00755885
-0.00699434
-0.00829608
-0.00805403
-0.00934837
-0.0084077
-0.00763799
-0.00860551
-0.00780706
-0.00829461
-0.00804119
-0.00933524
-0.00839903
-0.00762458
-0.00858982
-0.00779584
-0.00733899
-0.00748816
-0.00774555
-0.00724878
-0.00764262
-0.00676968
-0.00695662
-0.00746876
-0.00732095
-0.00772058
-0.00724631
-0.00762959
-0.00676829
-0.00693848
-0.0057001
-0.00105753
-0.00553622
-0.00495614
-0.00646196
-0.00421497
-0.00496621
-0.00852297
-0.00728038
-0.00727787
-0.00775461
-0.00798994
-0.00815269
-0.00814667
-0.0091006
-0.00718296
-0.00853001
-0.00974249
-0.0094559
-0.00899711
-0.008909
-0.00909117
-0.00716115
-0.00852695
-0.00971742
-0.00947568
-0.00897471
-0.00889578
-0.00774657
-0.0069138
-0.00657143
-0.00751857
-0.00738683
-0.00717675
-0.00738776
-0.00774933
-0.0068924
-0.00657264
-0.0074921
-0.00737408
-0.00717578
-0.00738004
-0.00875307
-0.00703501
-0.00785984
-0.00786424
-0.00768266
-0.0076761
-0.00923141
-0.00969166
-0.00788929
-0.00788158
-0.00744216
-0.00881952
-0.0080813
-0.00807234
-0.00586808
-0.00333981
-0.00337703
-0.00547288
-0.00371438
-0.00569331
-0.00569872
-0.00685965
-0.00721316
-0.00700275
-0.00691525
-0.00688451
-0.00696791
-0.00691613
-0.00634097
-0.00505616
-0.00315823
-0.00426513
-0.00356986
-0.00492448
-0.0066084
-0.00633337
-0.00505956
-0.00314292
-0.00427118
-0.00358664
-0.00495741
-0.00660943
-0.00750127
-0.00723025
-0.00742289
-0.00763738
-0.00715758
-0.00699026
-0.00694431
-0.00748587
-0.00742152
-0.00722084
-0.00762614
-0.00716454
-0.007001
-0.00695066
-0.00509756
-0.00510216
-0.00583769
-0.00332239
-3.25365e-05
-0.000896189
-0.00090413
-0.00673789
-0.00560223
-0.00607625
-0.00640017
-0.00668052
-0.00733974
-0.00643204
-0.00673531
-0.00558961
-0.00653976
-0.00643207
-0.00667768
-0.00733068
-0.00639339
-0.00806292
-0.00777405
-0.00757757
-0.00701879
-0.00677813
-0.00671965
-0.00723938
-0.00805729
-0.00776549
-0.00756472
-0.00702019
-0.00677041
-0.00671171
-0.00722883
-0.00582532
-0.00735357
-0.00691982
-0.0048361
-0.00584462
-0.00648138
-0.00373242
-0.00583112
-0.0073695
-0.00697841
-0.00481368
-0.00586258
-0.00649226
-0.0037287
-0.00478719
-0.00438528
-0.00437384
-0.00585062
-0.00316869
-0.0055272
-0.00553447
-0.00704419
-0.0070357
-0.00582837
-0.00518952
-0.00628362
-0.00627798
-0.00628704
-0.00667784
-0.00602523
-0.00640046
-0.00684632
-0.00682015
-0.00694719
-0.00684389
-0.00763137
-0.0070324
-0.00728927
-0.00742259
-0.00715131
-0.0077199
-0.00752876
-0.00763818
-0.00704894
-0.00730745
-0.0074306
-0.00716966
-0.0077353
-0.00754117
-0.00746578
-0.0071163
-0.00768089
-0.00702356
-0.00687132
-0.00709652
-0.00684196
-0.00440221
-0.00317545
-0.00271502
-0.00277282
-0.00336255
-0.00347502
-0.00352929
-0.00746956
-0.00711599
-0.00768396
-0.00703439
-0.00687239
-0.00710507
-0.00684068
-0.00631619
-0.00644316
-0.00639772
-0.00664528
-0.00677544
-0.00548148
-0.00639544
-0.00629964
-0.00643653
-0.00620876
-0.00637427
-0.00676654
-0.00548794
-0.00666034
-0.00449555
-0.00542093
-0.00486446
-0.00221886
-0.00591377
-0.00282228
-0.00377513
-0.00449911
-0.00541226
-0.00488419
-0.00223391
-0.00592352
-0.00281907
-0.00378178
-0.0060468
-0.00514021
-0.00682795
-0.00637405
-0.00654108
-0.00663136
-0.00615526
-0.00512871
-0.00603528
-0.00682397
-0.00636839
-0.0065389
-0.0066432
-0.00615505
-0.00710831
-0.00606374
-0.00676537
-0.00521827
-0.00581127
-0.00431918
-0.00521858
-0.00216701
-0.00251211
-0.00250494
0.00053746
-0.00375402
-0.00202152
-0.00202851
-0.00314518
-0.00563632
-0.00460097
-0.00479853
-0.00499323
-0.0050974
-0.00245362
-0.00315385
-0.0056358
-0.00459888
-0.0048076
-0.00500353
-0.00509889
-0.00244359
-0.00681143
-0.0063217
-0.00649648
-0.00606996
-0.00597295
-0.00646075
-0.00634871
-0.00682306
-0.00631706
-0.00651098
-0.00606583
-0.00596372
-0.00644489
-0.00634533
-0.00470352
-0.00639913
-0.0049873
-0.00499131
-0.00575188
-0.00573912
-0.00374057
-0.00426579
-0.00603697
-0.00602944
-0.00592973
-0.00586033
-0.00563223
-0.005635
-0.00638394
-0.00367555
-0.00692465
-0.00660138
-0.00550058
-0.00795615
-0.00736136
-0.0063899
-0.00368604
-0.00693129
-0.00660929
-0.00551018
-0.00794899
-0.0073386
)
;

boundaryField
{
    inlet
    {
        type            fixedValue;
        value           uniform 0;
    }
    wall
    {
        type            zeroGradient;
    }
    outlet
    {
        type            fixedValue;
        value           uniform 0;
    }
    procBoundary1to0
    {
        type            processor;
        value           nonuniform List<scalar> 
320
(
-0.000195828
-0.000195759
-0.000195749
-0.000195724
-0.000195725
-0.000403811
-0.00040379
-0.00040377
-0.000403756
-0.00040375
-0.00090722
-0.000907129
-0.000907089
-0.000907046
-0.000907034
-0.00120447
-0.00120438
-0.00120432
-0.00120427
-0.00120425
-0.00166974
-0.00166959
-0.00166951
-0.00166943
-0.00166941
-0.00200031
-0.00200012
-0.00200001
-0.00199991
-0.00199988
-0.0024394
-0.00243913
-0.00243898
-0.00243884
-0.00243879
-0.00278997
-0.0027896
-0.0027894
-0.00278921
-0.00278915
-0.00321056
-0.00321005
-0.00320976
-0.0032095
-0.00320941
-0.00357402
-0.0035733
-0.00357292
-0.00357257
-0.00357246
-0.00397986
-0.00397886
-0.00397831
-0.00397781
-0.00397765
-0.00435046
-0.00434905
-0.00434833
-0.0043477
-0.00434752
-0.00474263
-0.00474063
-0.00473961
-0.00473865
-0.00473834
-0.0051141
-0.00511139
-0.00510998
-0.00510883
-0.00510852
-0.00549011
-0.00548637
-0.00548491
-0.00548297
-0.00548228
-0.00585197
-0.00584818
-0.00584625
-0.00584531
-0.00584572
-0.00619821
-0.00619361
-0.00619584
-0.0062047
-0.00621188
-0.00651665
-0.00651412
-0.00652114
-0.00652516
-0.00652787
-0.00677846
-0.00677425
-0.00677494
-0.0067716
-0.00677101
-0.00698116
-0.00696386
-0.0069487
-0.00693285
-0.00692118
-0.00712208
-0.00708257
-0.00705314
-0.00702471
-0.00700942
-0.00720452
-0.00713797
-0.00707375
-0.0070258
-0.00697247
-0.00726073
-0.00718477
-0.00714484
-0.00710425
-0.00709653
-0.00725556
-0.00714257
-0.00703835
-0.00698004
-0.00680615
-0.00729298
-0.00718983
-0.00715536
-0.00708181
-0.00706274
-0.00721515
-0.00706622
-0.00688277
-0.00683808
-0.00605214
-0.00719414
-0.00698846
-0.00685665
-0.00677756
-0.00675643
-0.007122
-0.00688104
-0.00664831
-0.0065499
-0.00553496
-0.00711683
-0.00708433
-0.0070282
-0.00723543
-0.00760832
-0.00701931
-0.00687435
-0.00675027
-0.00647917
-0.00730321
-0.0067908
-0.00669623
-0.00639771
-0.00620528
-0.00539048
-0.00676923
-0.00679095
-0.0067409
-0.00621785
-0.00417663
-0.00651249
-0.00652607
-0.00678785
-0.00680309
-0.00880384
-0.00646816
-0.00651687
-0.00638946
-0.00663577
-0.00650141
-0.00588708
-0.00592461
-0.00589808
-0.0060674
-0.00574996
-0.0055893
-0.00559348
-0.00554771
-0.00570558
-0.00566075
-0.00423743
-0.00425002
-0.00425472
-0.00433754
-0.00426786
-0.00347102
-0.00351338
-0.0036111
-0.0037493
-0.00381111
-0.00157571
-0.00159799
-0.00167087
-0.00170333
-0.00168569
-0.000818115
-0.000848289
-0.000900271
-0.0010114
-0.00109424
-0.00505444
-0.00243442
-0.00451185
-0.00358264
-0.00778277
-0.00957788
-0.00822611
-0.00727138
-0.00657176
-0.00674483
-0.00630351
-0.00634381
-0.00756975
-0.00592311
-0.00627769
-0.00705676
-0.00643617
-0.00676271
-0.0069876
-0.00757846
-0.0078013
-0.00751765
-0.00716125
-0.00636984
-0.00742935
-0.00767596
-0.00751723
-0.00663201
-0.00802212
-0.00785808
-0.00772096
-0.00701961
-0.00735969
-0.0074999
-0.00781344
-0.00643044
-0.00838803
-0.00825465
-0.00834338
-0.00842615
-0.00838725
-0.00796143
-0.00809043
-0.00829633
-0.0080918
-0.00823845
-0.00792511
-0.00701081
-0.00863297
-0.00860481
-0.0084594
-0.00800074
-0.00718904
-0.00690692
-0.00530045
-0.00755568
-0.00700333
-0.00805876
-0.0078095
-0.00840669
-0.00774528
-0.00695552
-0.00733872
-0.00104592
-0.00421102
-0.00495547
-0.00775669
-0.00815367
-0.00728071
-0.00853135
-0.0089078
-0.00973761
-0.00690989
-0.00738434
-0.00751721
-0.0054702
-0.00569331
-0.00333528
-0.00315809
-0.00660843
-0.00426739
-0.00722954
-0.00694532
-0.00750395
-0.00509234
-0.000863194
-1.90069e-05
-0.00560402
-0.00733767
-0.00640235
-0.00777243
-0.0072358
-0.0067753
-0.00583902
-0.00372093
-0.00735483
-0.00269954
-0.00345917
-0.0031538
-0.00644751
-0.00547845
-0.00664684
-0.00540676
-0.00376691
-0.00221386
-0.00682543
-0.00615085
-0.00605145
-0.00606816
-0.00432212
-0.00521736
0.000553826
-0.00199496
-0.0024941
-0.00459079
-0.00244307
-0.00479407
-0.00632192
-0.0063544
-0.00607454
)
;
    }
    procBoundary1to3
    {
        type            processor;
        value           nonuniform List<scalar> 
320
(
-0.000195718
-0.000195717
-0.000195735
-0.000195745
-0.000195799
-0.000403744
-0.000403745
-0.000403751
-0.000403765
-0.000403774
-0.00090702
-0.000907024
-0.000907051
-0.000907082
-0.000907151
-0.00120424
-0.00120425
-0.00120428
-0.00120432
-0.00120439
-0.00166939
-0.0016694
-0.00166945
-0.00166952
-0.00166963
-0.00199985
-0.00199987
-0.00199994
-0.00200003
-0.00200019
-0.00243876
-0.00243879
-0.0024389
-0.00243902
-0.00243925
-0.00278911
-0.00278915
-0.0027893
-0.00278948
-0.00278979
-0.00320937
-0.00320943
-0.00320964
-0.00320989
-0.00321035
-0.00357241
-0.00357248
-0.00357277
-0.00357312
-0.00357376
-0.00397759
-0.0039777
-0.00397813
-0.00397863
-0.00397955
-0.00434745
-0.00434756
-0.00434811
-0.00434878
-0.00435008
-0.00473825
-0.00473848
-0.00473934
-0.0047403
-0.00474217
-0.00510841
-0.00510862
-0.00510965
-0.00511097
-0.00511354
-0.00548211
-0.0054827
-0.00548449
-0.00548587
-0.00548942
-0.00584561
-0.00584502
-0.00584571
-0.00584754
-0.00585108
-0.00621186
-0.0062046
-0.0061954
-0.00619279
-0.00619716
-0.00652722
-0.00652435
-0.00652005
-0.00651303
-0.00651516
-0.00676983
-0.0067699
-0.00677267
-0.00677177
-0.00677548
-0.00691926
-0.00693016
-0.00694513
-0.00696
-0.00697692
-0.00700683
-0.00702089
-0.00704806
-0.00707723
-0.0071167
-0.0069693
-0.00702125
-0.00706713
-0.007131
-0.00719637
-0.00709224
-0.00709935
-0.00713797
-0.00717679
-0.00725125
-0.00680213
-0.0069739
-0.00703008
-0.00713331
-0.00724232
-0.00705605
-0.00707683
-0.00714584
-0.00718018
-0.00727963
-0.0060471
-0.00682198
-0.00687018
-0.0070521
-0.00719653
-0.00606307
-0.00678253
-0.00684463
-0.00697731
-0.00717424
-0.00107142
-0.00559827
-0.00663253
-0.00686275
-0.00709671
-0.00662826
-0.00819641
-0.00703571
-0.00706395
-0.00709087
-0.00757261
-0.00704507
-0.00673271
-0.00685037
-0.00698953
-0.00504986
-0.00643469
-0.00636785
-0.00667965
-0.00676012
-0.00360459
-0.00528885
-0.00670605
-0.0067751
-0.00673586
-0.00822305
-0.00748067
-0.006753
-0.00650914
-0.00648783
-0.00674064
-0.00661561
-0.0063651
-0.00649312
-0.0064418
-0.00573561
-0.00605735
-0.00587607
-0.00591126
-0.00586859
-0.00566764
-0.00570135
-0.00554409
-0.0055861
-0.00557818
-0.00426402
-0.0043362
-0.00425136
-0.00424876
-0.00423574
-0.0038112
-0.00374677
-0.00360818
-0.00350876
-0.00346561
-0.00168548
-0.0017019
-0.00166958
-0.00159547
-0.00157295
-0.00109325
-0.0010108
-0.000899369
-0.000847235
-0.00081669
-0.00249577
-0.00454546
-0.0054028
-0.00777934
-0.0095989
-0.00415166
-0.00727478
-0.00655811
-0.00878985
-0.00630997
-0.00634361
-0.00649323
-0.00593786
-0.00626386
-0.00728648
-0.00643567
-0.00675106
-0.00645536
-0.00698364
-0.00757186
-0.00780019
-0.00716776
-0.00636287
-0.00678345
-0.00741956
-0.00766647
-0.00751207
-0.0080188
-0.00782707
-0.0075593
-0.0077213
-0.007018
-0.00735126
-0.00748058
-0.00781683
-0.00642254
-0.00838803
-0.00825064
-0.00833553
-0.00840821
-0.00837684
-0.00794937
-0.00807419
-0.00828117
-0.00808529
-0.00792087
-0.00698543
-0.00723025
-0.00861601
-0.00858347
-0.0084447
-0.00799465
-0.00717428
-0.00690177
-0.00755105
-0.00697929
-0.00624099
-0.00773276
-0.00695435
-0.00733292
-0.00802966
-0.00777723
-0.00840242
-0.00421517
-0.00498641
-0.00553983
-0.0077512
-0.00814232
-0.00727011
-0.00850683
-0.00889207
-0.00972281
-0.00688968
-0.00738493
-0.00747335
-0.00547251
-0.005692
-0.00336817
-0.00313164
-0.00660146
-0.00429302
-0.00723848
-0.00700133
-0.00745561
-0.0050989
-0.000901061
-3.45943e-05
-0.00734787
-0.00638943
-0.00653866
-0.00775548
-0.00723941
-0.00679123
-0.00585209
-0.00374265
-0.00736191
-0.00276571
-0.00353582
-0.00318958
-0.00551265
-0.00667093
-0.0062207
-0.00685448
-0.00619631
-0.00606434
-0.00542841
-0.00378875
-0.00224317
-0.00432333
-0.00521512
-0.00675599
0.00053375
-0.00202365
-0.00251339
-0.00460963
-0.00243256
-0.00480738
-0.00633095
-0.00634167
-0.00606243
)
;
    }
}


// ************************************************************************* //
