/*--------------------------------*- C++ -*----------------------------------*\
| =========                 |                                                 |
| \\      /  F ield         | OpenFOAM: The Open Source CFD Toolbox           |
|  \\    /   O peration     | Version:  5.x                                   |
|   \\  /    A nd           | Web:      www.OpenFOAM.org                      |
|    \\/     M anipulation  |                                                 |
\*---------------------------------------------------------------------------*/
FoamFile
{
    version     2.0;
    format      ascii;
    class       volVectorField;
    location    "0.066";
    object      U;
}
// * * * * * * * * * * * * * * * * * * * * * * * * * * * * * * * * * * * * * //

dimensions      [0 1 -1 0 0 0 0];

internalField   nonuniform List<vector> 
1560
(
(-1.01076e-06 -2.29299e-05 0.0181542)
(1.01802e-05 -2.30262e-05 0.0181528)
(1.08202e-05 -2.30255e-05 0.0181572)
(1.90474e-05 -2.30475e-05 0.0181566)
(1.91848e-05 -2.29165e-05 0.0181711)
(-1.45005e-06 -2.34282e-05 0.0181369)
(1.00833e-05 -2.35913e-05 0.0181355)
(1.07957e-05 -2.364e-05 0.0181402)
(1.91496e-05 -2.3687e-05 0.0181395)
(1.93158e-05 -2.35766e-05 0.0181543)
(-1.66761e-06 -1.49272e-05 0.0181375)
(9.96812e-06 -1.50765e-05 0.0181362)
(1.07242e-05 -1.51415e-05 0.0181408)
(1.91106e-05 -1.51948e-05 0.0181402)
(1.93023e-05 -1.51526e-05 0.018155)
(-1.9271e-06 -1.43586e-05 0.0181315)
(9.86897e-06 -1.45137e-05 0.0181302)
(1.06774e-05 -1.45936e-05 0.0181349)
(1.91385e-05 -1.46548e-05 0.0181343)
(1.93629e-05 -1.46382e-05 0.0181492)
(-2.09758e-06 -2.53973e-06 0.0181332)
(9.73311e-06 -2.67045e-06 0.0181319)
(1.05831e-05 -2.79413e-06 0.0181366)
(1.9066e-05 -2.86334e-06 0.0181361)
(1.93231e-05 -2.95166e-06 0.0181509)
(-1.76588e-06 -4.54178e-06 -0.00793455)
(2.25884e-06 -4.4766e-06 -0.00793421)
(3.14672e-06 -4.34589e-06 -0.00793387)
(3.64803e-06 -4.33312e-06 -0.00793328)
(3.08902e-06 -4.25897e-06 -0.00793422)
(-1.34806e-06 -6.33452e-06 -0.00793314)
(2.44504e-06 -6.24563e-06 -0.00793278)
(3.28248e-06 -6.10929e-06 -0.00793243)
(3.72909e-06 -6.10014e-06 -0.00793184)
(3.16317e-06 -6.03613e-06 -0.0079328)
(-1.22742e-06 -6.46202e-06 -0.00793394)
(2.48366e-06 -6.41458e-06 -0.00793358)
(3.29192e-06 -6.34053e-06 -0.00793322)
(3.72106e-06 -6.34497e-06 -0.00793263)
(3.15821e-06 -6.31226e-06 -0.00793359)
(-1.05856e-06 -6.36029e-06 -0.00793407)
(2.56653e-06 -6.3399e-06 -0.00793371)
(3.35207e-06 -6.2885e-06 -0.00793336)
(3.75739e-06 -6.30211e-06 -0.00793277)
(3.19981e-06 -6.28146e-06 -0.00793373)
(-1.01997e-06 -3.01209e-06 -0.00793482)
(2.55545e-06 -3.01447e-06 -0.00793446)
(3.32971e-06 -3.03288e-06 -0.00793411)
(3.72813e-06 -3.06134e-06 -0.00793353)
(3.18245e-06 -3.09826e-06 -0.0079345)
(-7.39659e-07 -2.19628e-05 0.0132463)
(1.11302e-05 -2.20489e-05 0.0132464)
(1.20689e-05 -2.20322e-05 0.0132536)
(1.91103e-05 -2.20553e-05 0.0132543)
(1.8633e-05 -2.19125e-05 0.0132672)
(-1.06275e-06 -2.33263e-05 0.0132317)
(1.10584e-05 -2.34648e-05 0.0132318)
(1.20584e-05 -2.34931e-05 0.0132391)
(1.92218e-05 -2.35412e-05 0.0132397)
(1.87757e-05 -2.34223e-05 0.0132529)
(-1.20869e-06 -1.62569e-05 0.0132309)
(1.09632e-05 -1.6395e-05 0.013231)
(1.19922e-05 -1.64614e-05 0.0132383)
(1.9181e-05 -1.65197e-05 0.0132389)
(1.87604e-05 -1.64778e-05 0.0132521)
(-1.47476e-06 -1.55911e-05 0.0132224)
(1.08538e-05 -1.57491e-05 0.0132224)
(1.19337e-05 -1.58421e-05 0.0132298)
(1.92055e-05 -1.59122e-05 0.0132304)
(1.88232e-05 -1.59012e-05 0.0132437)
(-1.63208e-06 -3.31983e-06 0.0132222)
(1.07121e-05 -3.45636e-06 0.0132222)
(1.18291e-05 -3.62081e-06 0.0132296)
(1.9122e-05 -3.70582e-06 0.0132302)
(1.87762e-05 -3.82762e-06 0.0132435)
(-1.84255e-06 -1.96456e-05 -0.00356564)
(9.62924e-06 -1.96111e-05 -0.0035652)
(1.10082e-05 -1.93913e-05 -0.00355902)
(1.7244e-05 -1.93651e-05 -0.00355782)
(1.65521e-05 -1.91029e-05 -0.00354827)
(-1.62327e-06 -2.16902e-05 -0.00357594)
(9.86947e-06 -2.16623e-05 -0.00357548)
(1.12408e-05 -2.1446e-05 -0.00356916)
(1.75174e-05 -2.14289e-05 -0.00356794)
(1.68144e-05 -2.11701e-05 -0.0035582)
(-1.60497e-06 -1.57478e-05 -0.00357758)
(9.87299e-06 -1.57515e-05 -0.00357711)
(1.12413e-05 -1.56298e-05 -0.00357078)
(1.75198e-05 -1.56344e-05 -0.00356956)
(1.68253e-05 -1.5484e-05 -0.0035598)
(-1.51216e-06 -1.50521e-05 -0.0035845)
(9.9875e-06 -1.50801e-05 -0.00358404)
(1.13578e-05 -1.49899e-05 -0.00357764)
(1.76633e-05 -1.50081e-05 -0.00357641)
(1.69751e-05 -1.48922e-05 -0.00356652)
(-1.53158e-06 -3.77989e-06 -0.00358556)
(9.93515e-06 -3.82096e-06 -0.00358512)
(1.13133e-05 -3.87721e-06 -0.00357873)
(1.76176e-05 -3.92635e-06 -0.0035775)
(1.69504e-05 -3.99293e-06 -0.00356763)
(-5.91047e-07 -3.27457e-05 0.00985154)
(1.77616e-05 -3.28161e-05 0.00985237)
(1.94552e-05 -3.26542e-05 0.00986483)
(2.98591e-05 -3.26491e-05 0.00986669)
(2.86257e-05 -3.22833e-05 0.00988657)
(-8.62807e-07 -3.52817e-05 0.00982984)
(1.7843e-05 -3.5404e-05 0.00983064)
(1.96099e-05 -3.52798e-05 0.00984329)
(3.02106e-05 -3.53012e-05 0.00984519)
(2.89915e-05 -3.49464e-05 0.00986546)
(-9.99859e-07 -2.48283e-05 0.00982751)
(1.77632e-05 -2.49673e-05 0.00982828)
(1.95577e-05 -2.49521e-05 0.00984095)
(3.01925e-05 -2.50013e-05 0.00984284)
(2.9e-05 -2.48183e-05 0.00986316)
(-1.27822e-06 -2.35887e-05 0.00981353)
(1.77193e-05 -2.37601e-05 0.00981426)
(1.95758e-05 -2.3796e-05 0.00982703)
(3.03446e-05 -2.3866e-05 0.00982894)
(2.91877e-05 -2.37441e-05 0.00984946)
(-1.45044e-06 -4.71443e-06 0.00981223)
(1.75559e-05 -4.8759e-06 0.00981292)
(1.94517e-05 -5.10159e-06 0.00982565)
(3.02446e-05 -5.21601e-06 0.00982754)
(2.91332e-05 -5.39164e-06 0.00984807)
(-1.18385e-06 -4.22136e-05 -0.000851718)
(2.29151e-05 -4.22077e-05 -0.000850558)
(2.53224e-05 -4.17906e-05 -0.000835487)
(3.90036e-05 -4.17221e-05 -0.000832738)
(3.72735e-05 -4.10754e-05 -0.000808963)
(-1.15653e-06 -4.57109e-05 -0.000877621)
(2.3314e-05 -4.5741e-05 -0.000876438)
(2.5782e-05 -4.53271e-05 -0.00086099)
(3.96835e-05 -4.52744e-05 -0.000858148)
(3.79202e-05 -4.4605e-05 -0.000833781)
(-1.229e-06 -3.20478e-05 -0.000881175)
(2.32983e-05 -3.21148e-05 -0.000880006)
(2.57886e-05 -3.18837e-05 -0.000864514)
(3.97256e-05 -3.18783e-05 -0.000861666)
(3.79778e-05 -3.14705e-05 -0.000837211)
(-1.29198e-06 -3.03268e-05 -0.000898077)
(2.34781e-05 -3.04362e-05 -0.000896921)
(2.60186e-05 -3.0273e-05 -0.000881225)
(4.0097e-05 -3.02969e-05 -0.000878335)
(3.8352e-05 -2.99731e-05 -0.000853516)
(-1.41123e-06 -5.77989e-06 -0.000900189)
(2.33522e-05 -5.90813e-06 -0.000899077)
(2.59279e-05 -6.06292e-06 -0.000883403)
(4.00258e-05 -6.16693e-06 -0.000880531)
(3.83228e-05 -6.29929e-06 -0.000855705)
(1.51203e-07 -5.97922e-05 0.00762904)
(3.40037e-05 -5.98374e-05 0.0076309)
(3.72878e-05 -5.928e-05 0.00765446)
(5.63897e-05 -5.91773e-05 0.00765853)
(5.34409e-05 -5.81626e-05 0.00769554)
(-1.36949e-07 -6.47771e-05 0.00758874)
(3.44855e-05 -6.48895e-05 0.00759064)
(3.79126e-05 -6.43438e-05 0.00761476)
(5.74555e-05 -6.42667e-05 0.00761901)
(5.44556e-05 -6.32014e-05 0.00765701)
(-3.17642e-07 -4.52984e-05 0.00758358)
(3.44364e-05 -4.54632e-05 0.00758546)
(3.791e-05 -4.52003e-05 0.00760967)
(5.75321e-05 -4.52016e-05 0.00761394)
(5.45578e-05 -4.45661e-05 0.00765212)
(-6.73828e-07 -4.26145e-05 0.00755739)
(3.45836e-05 -4.28437e-05 0.00755926)
(3.81741e-05 -4.2697e-05 0.00758379)
(5.80903e-05 -4.27433e-05 0.00758815)
(5.51269e-05 -4.22499e-05 0.00762692)
(-9.29892e-07 -7.53834e-06 0.0075544)
(3.43538e-05 -7.79e-06 0.0075562)
(3.80104e-05 -8.12685e-06 0.00758073)
(5.79798e-05 -8.30303e-06 0.00758507)
(5.50822e-05 -8.55644e-06 0.00762388)
(4.01406e-07 -8.421e-05 0.0008966)
(4.8318e-05 -8.41569e-05 0.000899509)
(5.29376e-05 -8.31493e-05 0.000930778)
(8.01223e-05 -8.28939e-05 0.000937036)
(7.58962e-05 -8.12422e-05 0.000986195)
(2.99329e-07 -9.11821e-05 0.00084267)
(4.93233e-05 -9.11927e-05 0.00084569)
(5.41383e-05 -9.0125e-05 0.000877946)
(8.19414e-05 -8.98733e-05 0.00088453)
(7.7548e-05 -8.80641e-05 0.000935275)
(1.26906e-07 -6.33829e-05 0.000834733)
(4.93741e-05 -6.34802e-05 0.000837759)
(5.42559e-05 -6.28382e-05 0.000870197)
(8.21832e-05 -6.27191e-05 0.000876847)
(7.77931e-05 -6.15531e-05 0.000927913)
(-1.05483e-07 -5.94911e-05 0.000799708)
(4.98681e-05 -5.96762e-05 0.000802749)
(5.48994e-05 -5.91971e-05 0.000835749)
(8.32275e-05 -5.91493e-05 0.000842582)
(7.87753e-05 -5.81963e-05 0.000894624)
(-3.82713e-07 -9.71819e-06 0.000795103)
(4.96681e-05 -1.00018e-05 0.000798087)
(5.47828e-05 -1.02901e-05 0.000831095)
(8.31848e-05 -1.04807e-05 0.000837931)
(7.87999e-05 -1.06784e-05 0.000890073)
(2.56188e-06 -0.000116066 0.0061582)
(6.81944e-05 -0.000115992 0.0061624)
(7.48295e-05 -0.000114402 0.00620827)
(0.00011183 -0.000113957 0.00621714)
(0.000104732 -0.000111249 0.00628904)
(2.25602e-06 -0.000126706 0.00607897)
(6.97752e-05 -0.000126701 0.0060835)
(7.67671e-05 -0.000124985 0.00613098)
(0.000114843 -0.000124516 0.00614052)
(0.00010744 -0.000121507 0.00621501)
(2.00298e-06 -8.82761e-05 0.00606753)
(6.99139e-05 -8.84206e-05 0.00607207)
(7.70131e-05 -8.7413e-05 0.00611993)
(0.000115308 -8.7165e-05 0.00612959)
(0.00010788 -8.52312e-05 0.00620475)
(1.51195e-06 -8.22595e-05 0.00601615)
(7.06383e-05 -8.25298e-05 0.00602086)
(7.80227e-05 -8.18128e-05 0.00606969)
(0.000117026 -8.16725e-05 0.00607973)
(0.000109471 -8.01035e-05 0.00615649)
(1.08981e-06 -1.32946e-05 0.00600947)
(7.03606e-05 -1.37214e-05 0.00601412)
(7.78705e-05 -1.42143e-05 0.0060631)
(0.000117019 -1.44731e-05 0.00607316)
(0.000109533 -1.4786e-05 0.00615023)
(4.22518e-06 -0.000166822 0.00197219)
(9.83782e-05 -0.000166425 0.00197935)
(0.000107668 -0.000163742 0.002042)
(0.000160951 -0.00016279 0.00205635)
(0.000150944 -0.000158456 0.00215443)
(4.22239e-06 -0.000181882 0.00186323)
(0.000101315 -0.000181548 0.00187089)
(0.000111139 -0.000178503 0.00193606)
(0.000166007 -0.000177456 0.00195157)
(0.000155278 -0.000172417 0.00205368)
(3.94504e-06 -0.000126191 0.00184457)
(0.000101754 -0.000126106 0.00185244)
(0.000111758 -0.000124116 0.00191838)
(0.000167037 -0.000123491 0.00193428)
(0.000156213 -0.000120059 0.00203755)
(3.64148e-06 -0.000117542 0.00177382)
(0.000103389 -0.000117615 0.00178193)
(0.000113754 -0.000116006 0.00184941)
(0.000170068 -0.000115567 0.00186609)
(0.000158874 -0.000112701 0.00197186)
(3.13514e-06 -1.77663e-05 0.00176305)
(0.00010329 -1.82856e-05 0.00177119)
(0.000113806 -1.86363e-05 0.0018389)
(0.000170345 -1.89307e-05 0.00185579)
(0.000159221 -1.90245e-05 0.00196204)
(9.21138e-06 -0.000229739 0.00518912)
(0.000138017 -0.00022914 0.00519896)
(0.000151845 -0.000224909 0.00528853)
(0.000224321 -0.000223252 0.00530845)
(0.00020705 -0.00021629 0.0054487)
(9.14543e-06 -0.000254433 0.00503077)
(0.000142619 -0.000253718 0.00504201)
(0.000157467 -0.000248709 0.00513599)
(0.000232568 -0.000246688 0.00515823)
(0.000214011 -0.00023845 0.00530535)
(8.95464e-06 -0.000177705 0.00500437)
(0.000143738 -0.000177402 0.00501575)
(0.00015887 -0.000174075 0.00511097)
(0.00023458 -0.000172666 0.00513371)
(0.00021566 -0.000167071 0.00528312)
(8.41083e-06 -0.000163796 0.0049022)
(0.000146249 -0.000163799 0.0049144)
(0.000162203 -0.000161312 0.00501228)
(0.000239576 -0.000160185 0.00503626)
(0.000219872 -0.000155631 0.00519008)
(7.77873e-06 -2.57817e-05 0.0048866)
(0.000146222 -2.64299e-05 0.00489885)
(0.000162484 -2.70068e-05 0.00499751)
(0.000240266 -2.72125e-05 0.00502161)
(0.000220443 -2.73411e-05 0.00517673)
(1.37087e-05 -0.000332018 0.00253134)
(0.000197764 -0.000330164 0.00254916)
(0.000217137 -0.000322874 0.00267336)
(0.000321242 -0.000319526 0.00270677)
(0.000297387 -0.000308054 0.00290044)
(1.47304e-05 -0.000366718 0.00231135)
(0.000206523 -0.000364848 0.00233115)
(0.000227333 -0.000356147 0.00246168)
(0.000335446 -0.000352278 0.00249933)
(0.00030886 -0.000338114 0.00270285)
(1.43847e-05 -0.000254741 0.00226457)
(0.000208329 -0.000253698 0.00228576)
(0.000229699 -0.000247812 0.00241941)
(0.000339276 -0.00024544 0.00245881)
(0.000312168 -0.000235315 0.00266656)
(1.44999e-05 -0.000235299 0.00212033)
(0.000213451 -0.000234497 0.00214293)
(0.000235591 -0.000229446 0.00228133)
(0.000347951 -0.000227655 0.00232388)
(0.000319426 -0.000219074 0.00253789)
(1.37212e-05 -3.5353e-05 0.00209277)
(0.000214181 -3.61556e-05 0.00211599)
(0.000236541 -3.61195e-05 0.00225575)
(0.000349655 -3.64969e-05 0.00229974)
(0.000321133 -3.56394e-05 0.00251572)
(2.66796e-05 -0.000459226 0.00453188)
(0.000280057 -0.00045656 0.00455583)
(0.000309478 -0.000445686 0.00472963)
(0.000451525 -0.000439642 0.00477624)
(0.00040906 -0.000422298 0.00504857)
(2.81272e-05 -0.00052141 0.00421205)
(0.000292976 -0.000517315 0.0042414)
(0.000325665 -0.000502856 0.00442699)
(0.00047392 -0.000494841 0.00448131)
(0.000426404 -0.000472462 0.00477166)
(2.90695e-05 -0.00036875 0.00414726)
(0.000298601 -0.000365643 0.00417707)
(0.000331941 -0.000354452 0.0043667)
(0.000481919 -0.000348129 0.00442326)
(0.000432431 -0.000332054 0.00472129)
(2.94011e-05 -0.000335618 0.00394375)
(0.000307274 -0.000333594 0.00397655)
(0.000343179 -0.000324988 0.00417207)
(0.000496329 -0.00031927 0.00423258)
(0.000443208 -0.000306485 0.00454241)
(2.89444e-05 -5.58756e-05 0.00390479)
(0.00030923 -5.63491e-05 0.00393831)
(0.000346265 -5.61257e-05 0.00413668)
(0.000500432 -5.51855e-05 0.00419756)
(0.000445837 -5.3925e-05 0.00451247)
(3.76754e-05 -0.000665783 0.00264991)
(0.000395488 -0.00065835 0.00269487)
(0.000437516 -0.000638749 0.00293841)
(0.000640418 -0.000627419 0.00301649)
(0.000581889 -0.000597218 0.00339446)
(4.33884e-05 -0.000751541 0.00220304)
(0.000421445 -0.000743811 0.0022554)
(0.000467214 -0.000719266 0.00251553)
(0.000680292 -0.000705448 0.00260864)
(0.00061209 -0.000665626 0.00301079)
(4.31633e-05 -0.000523004 0.00208174)
(0.000427744 -0.000518517 0.00214099)
(0.000475856 -0.000502706 0.00241146)
(0.000694058 -0.000494142 0.00251089)
(0.000623366 -0.000464533 0.00292803)
(4.5506e-05 -0.000477739 0.00177868)
(0.000441744 -0.000473228 0.00184565)
(0.000491589 -0.000459437 0.00213462)
(0.000718488 -0.000453333 0.00224464)
(0.000642931 -0.000427875 0.00267798)
(4.49432e-05 -7.726e-05 0.0017004)
(0.000446047 -7.78544e-05 0.00177137)
(0.00049575 -7.56971e-05 0.00206795)
(0.000725638 -7.60363e-05 0.00218522)
(0.000649896 -7.06892e-05 0.00262599)
(7.18385e-05 -0.000925371 0.00400206)
(0.000568581 -0.000915013 0.00406351)
(0.000631116 -0.000886765 0.00439986)
(0.000907837 -0.000865187 0.00451316)
(0.000803327 -0.000822377 0.00503909)
(7.98507e-05 -0.00108998 0.00335174)
(0.000605497 -0.00107158 0.00343345)
(0.000678928 -0.00103017 0.00379707)
(0.000969529 -0.0010008 0.00393665)
(0.000846136 -0.000939152 0.00450617)
(8.72711e-05 -0.00079313 0.00317506)
(0.000628361 -0.000775411 0.00325896)
(0.000701861 -0.000735391 0.00364099)
(0.000998858 -0.000712149 0.00379105)
(0.000867672 -0.000664874 0.00438699)
(9.43336e-05 -0.000716987 0.00277958)
(0.000663238 -0.000703245 0.00286928)
(0.000742189 -0.00066853 0.00325168)
(0.00104008 -0.000644966 0.0034197)
(0.000895421 -0.000608561 0.00404305)
(9.71865e-05 -0.000137987 0.00268023)
(0.000676818 -0.000135158 0.00277112)
(0.000760137 -0.000128416 0.00315889)
(0.00105885 -0.000120709 0.00332833)
(0.000905766 -0.000113271 0.00397115)
(0.000100362 -0.00134478 0.00231891)
(0.00079325 -0.00131647 0.00243086)
(0.000887108 -0.00126827 0.00289808)
(0.0012801 -0.0012297 0.00308453)
(0.00113153 -0.00115395 0.00380377)
(0.000124971 -0.00157899 0.00139582)
(0.000866733 -0.0015488 0.00153518)
(0.000970348 -0.00147855 0.00205373)
(0.0013898 -0.00142796 0.00229049)
(0.00120728 -0.00131819 0.00307635)
(0.000126401 -0.00109509 0.00109525)
(0.000893639 -0.00108261 0.00125452)
(0.00100788 -0.00104802 0.00178718)
(0.00144046 -0.00101102 0.00204639)
(0.00124592 -0.000927603 0.00288269)
(0.000133115 -0.000972516 0.000448279)
(0.000913796 -0.000961022 0.000645554)
(0.00104194 -0.000941501 0.00124576)
(0.00151029 -0.000916017 0.00151947)
(0.00129422 -0.000843672 0.00240574)
(0.000133063 -0.000180628 0.000219787)
(0.000924654 -0.000180909 0.000436674)
(0.00105289 -0.000174733 0.00107427)
(0.00153834 -0.000174322 0.00136936)
(0.00132127 -0.000150402 0.00228241)
(0.000185333 -0.00188812 0.00334483)
(0.00114781 -0.00184928 0.0035184)
(0.00128477 -0.00176777 0.0041808)
(0.00181404 -0.00169408 0.00446415)
(0.00155424 -0.00158162 0.00548349)
(0.000219093 -0.00231445 0.00203085)
(0.00126345 -0.00224871 0.0022701)
(0.00143423 -0.00214183 0.00297877)
(0.00199284 -0.00203963 0.00335403)
(0.0016667 -0.00186075 0.00445255)
(0.000245645 -0.00174064 0.00145762)
(0.00132035 -0.00166502 0.00174601)
(0.00149373 -0.00154335 0.00256386)
(0.00209512 -0.00148316 0.00296902)
(0.00174047 -0.00133547 0.00416014)
(0.000288569 -0.00159251 0.000552894)
(0.00146077 -0.00152115 0.000884868)
(0.00161609 -0.00138149 0.00173367)
(0.00220084 -0.00132205 0.00224961)
(0.00182012 -0.00120889 0.00348407)
(0.000309977 -0.000373111 0.00016664)
(0.00153137 -0.000351417 0.000538304)
(0.0016928 -0.000309788 0.00143129)
(0.0022678 -0.000280608 0.0019952)
(0.00185831 -0.000249006 0.00329614)
(0.000277238 -0.0027173 0.00142939)
(0.00162914 -0.00262132 0.00172377)
(0.00183274 -0.00252377 0.00263556)
(0.0025837 -0.00239017 0.003118)
(0.00219627 -0.00223046 0.00442576)
(0.000365113 -0.0034672 -0.000444349)
(0.00181459 -0.00332213 -3.44856e-05)
(0.00205408 -0.00309635 0.000994643)
(0.00286444 -0.00292395 0.00161838)
(0.00235598 -0.00264245 0.0031057)
(0.000414913 -0.00257292 -0.00142093)
(0.00199983 -0.00246767 -0.00091294)
(0.00223067 -0.00229289 0.000216972)
(0.0030376 -0.00211524 0.000983946)
(0.00249035 -0.00189596 0.00261262)
(0.000462929 -0.00226365 -0.00266774)
(0.00209466 -0.00216881 -0.0020826)
(0.00240651 -0.00207403 -0.00092532)
(0.00326162 -0.00188978 -6.04965e-05)
(0.00258505 -0.00170759 0.00168686)
(0.000501524 -0.000572647 -0.00336318)
(0.00218945 -0.000535037 -0.00268945)
(0.00250965 -0.000488238 -0.00145318)
(0.00340419 -0.000441602 -0.000489778)
(0.00268058 -0.000354996 0.00137215)
(0.000484773 -0.00384223 0.00241054)
(0.00235406 -0.00368425 0.00286284)
(0.00267885 -0.00348084 0.00414932)
(0.00360525 -0.00325997 0.00480131)
(0.0029212 -0.00296108 0.00667868)
(0.000631299 -0.00516662 -0.000293831)
(0.00270261 -0.00488716 0.000382523)
(0.003087 -0.00456194 0.00182509)
(0.00410518 -0.00417497 0.00278991)
(0.00322009 -0.0036749 0.00478246)
(0.000755538 -0.003964 -0.00191022)
(0.00295849 -0.00371309 -0.00102754)
(0.00339059 -0.00346328 0.000604093)
(0.00449229 -0.00316193 0.00181695)
(0.00344109 -0.00275416 0.00411958)
(0.000872588 -0.00353491 -0.00394912)
(0.00320335 -0.00329782 -0.00283071)
(0.00363815 -0.00305188 -0.00104883)
(0.00481475 -0.00279594 0.000354181)
(0.00364399 -0.00244945 0.00281272)
(0.0009817 -0.0010737 -0.0053165)
(0.00344152 -0.000965051 -0.00396087)
(0.00389243 -0.000848807 -0.00194625)
(0.00509497 -0.000722541 -0.000334706)
(0.0038004 -0.000580936 0.00234318)
(0.000734813 -0.00553976 5.83657e-06)
(0.00336785 -0.00521307 0.000796403)
(0.00377088 -0.00495309 0.00253731)
(0.0051149 -0.00449594 0.00363944)
(0.00416018 -0.00421345 0.00623405)
(0.00104224 -0.00779046 -0.00371986)
(0.00393354 -0.0072148 -0.0025622)
(0.00446108 -0.00664369 -0.000655284)
(0.00582361 -0.00591012 0.000920043)
(0.00444266 -0.00520339 0.00361904)
(0.00129781 -0.00622792 -0.00662254)
(0.00451424 -0.0056806 -0.00502353)
(0.00507482 -0.00516648 -0.00265686)
(0.0065552 -0.00455058 -0.000671103)
(0.00489782 -0.00386536 0.00250235)
(0.00157608 -0.00567002 -0.00960186)
(0.004995 -0.00510219 -0.00760372)
(0.0055911 -0.00462447 -0.00504577)
(0.00712546 -0.00404147 -0.00259978)
(0.00515481 -0.00348393 0.00073407)
(0.00185046 -0.00195312 -0.0120886)
(0.0055598 -0.00167943 -0.00963494)
(0.00613553 -0.00140754 -0.00667288)
(0.00769611 -0.001152 -0.00378654)
(0.00547625 -0.000852805 -8.356e-05)
(0.00128287 -0.00773285 0.000871047)
(0.00488578 -0.00719515 0.00216787)
(0.00552139 -0.00681534 0.00462578)
(0.00730402 -0.00610619 0.00632913)
(0.00563056 -0.00569112 0.00963523)
(0.0017907 -0.0117987 -0.00468817)
(0.0057673 -0.0107105 -0.00259141)
(0.00656889 -0.0097593 0.000140215)
(0.00838197 -0.00848799 0.00261084)
(0.00604563 -0.00740864 0.00629543)
(0.00235671 -0.00984618 -0.00998341)
(0.0069245 -0.00875453 -0.00687966)
(0.00774285 -0.00785361 -0.00325871)
(0.00965467 -0.00668141 0.000136465)
(0.00675621 -0.00563862 0.00458313)
(0.00286542 -0.00900163 -0.0150698)
(0.00775981 -0.0079096 -0.0108822)
(0.00864202 -0.00706824 -0.00692006)
(0.010598 -0.0059115 -0.00263243)
(0.00712988 -0.00503561 0.00208623)
(0.00343133 -0.00357332 -0.0208577)
(0.00885789 -0.00300818 -0.0150649)
(0.00974102 -0.00250105 -0.0100263)
(0.011688 -0.00193377 -0.00473125)
(0.00766807 -0.00143952 0.000779411)
(0.0020392 -0.0113531 -0.0012664)
(0.00712254 -0.0102001 0.000594183)
(0.00793137 -0.00964792 0.00375647)
(0.0101282 -0.0083951 0.00615188)
(0.00762477 -0.00771213 0.010336)
(0.00313986 -0.0186498 -0.00925224)
(0.00876154 -0.0162666 -0.0060056)
(0.00966225 -0.0145324 -0.00231639)
(0.0119822 -0.0121062 0.00136861)
(0.00830774 -0.0102594 0.00612189)
(0.00440298 -0.0166093 -0.0179079)
(0.0112386 -0.0139706 -0.0127806)
(0.0120899 -0.0122257 -0.00763098)
(0.0144012 -0.00979276 -0.002335)
(0.00955334 -0.00807378 0.00371393)
(0.00575618 -0.0165444 -0.0257315)
(0.0131442 -0.013287 -0.0186742)
(0.0138401 -0.0113918 -0.0128167)
(0.016136 -0.00890879 -0.00606248)
(0.0101009 -0.00728761 0.000503203)
(0.00763674 -0.00776701 -0.0351792)
(0.0163912 -0.00589189 -0.025793)
(0.0164689 -0.0045594 -0.0179811)
(0.0185067 -0.00329464 -0.00934924)
(0.0112406 -0.00222274 -0.00137352)
(0.00315544 -0.0160841 -0.000302948)
(0.00990895 -0.0141106 0.00304126)
(0.0110777 -0.0131748 0.00730672)
(0.013887 -0.0111256 0.0108242)
(0.0100151 -0.010106 0.016046)
(0.00503751 -0.0284477 -0.0123653)
(0.0127027 -0.0240914 -0.00597207)
(0.0139422 -0.0211526 -0.00106552)
(0.016824 -0.0169786 0.00499041)
(0.0110347 -0.0140342 0.01077)
(0.00748844 -0.0263308 -0.0298983)
(0.0172016 -0.0214251 -0.0185048)
(0.0181888 -0.0183543 -0.0103344)
(0.0210054 -0.0141115 -0.00105329)
(0.0130915 -0.0112559 0.00725178)
(0.00990976 -0.0262749 -0.0449755)
(0.0206747 -0.0209221 -0.0277513)
(0.0212557 -0.0174186 -0.0185889)
(0.023924 -0.0129253 -0.0060247)
(0.014011 -0.0101234 0.00290571)
(0.0128216 -0.013066 -0.0740064)
(0.026058 -0.0101389 -0.0448991)
(0.0261901 -0.00771549 -0.0299393)
(0.028303 -0.00525295 -0.012373)
(0.0160091 -0.00338467 -0.000434025)
(0.00539809 -0.0239704 8.53447e-05)
(0.0147321 -0.0196696 0.00433598)
(0.0157123 -0.0184318 0.00932329)
(0.0188742 -0.0145466 0.0134757)
(0.0131201 -0.0132623 0.0194191)
(0.00953575 -0.0482476 -0.0162556)
(0.0200579 -0.0378159 -0.00740144)
(0.0206231 -0.0321797 -0.00104225)
(0.0238222 -0.0239883 0.00658577)
(0.0144045 -0.0190603 0.0134267)
(0.0158098 -0.0492306 -0.0413223)
(0.0307965 -0.0357523 -0.024771)
(0.0295402 -0.0297478 -0.0134528)
(0.0319935 -0.0208062 -0.0010575)
(0.0182694 -0.015936 0.00927339)
(0.0229967 -0.0606366 -0.0665509)
(0.0395187 -0.0396692 -0.0390111)
(0.0355692 -0.0309907 -0.0248358)
(0.0376338 -0.0202251 -0.00747666)
(0.0194868 -0.0149733 0.00420645)
(0.036847 -0.0369093 -0.105425)
(0.0604422 -0.023148 -0.066679)
(0.0490061 -0.0160348 -0.0414098)
(0.0480143 -0.00973874 -0.0163962)
(0.0237335 -0.00568396 -3.12891e-05)
(0.0074248 -0.0332282 0.00434499)
(0.019144 -0.0264706 0.0112923)
(0.0202131 -0.0240802 0.0173397)
(0.023986 -0.0184006 0.0230282)
(0.016282 -0.0164222 0.0292862)
(0.0138879 -0.0698565 -0.019499)
(0.0279122 -0.0532019 -0.00274545)
(0.0279328 -0.043936 0.00472838)
(0.0312946 -0.0315135 0.0160064)
(0.0182603 -0.0241832 0.0229477)
(0.0240707 -0.0766791 -0.0705425)
(0.045056 -0.0530615 -0.0333198)
(0.0419125 -0.042158 -0.0157963)
(0.0437388 -0.0281774 0.00477838)
(0.0239622 -0.0204719 0.0172757)
(0.0375258 -0.090266 -0.12326)
(0.0623456 -0.0627866 -0.0546192)
(0.0528167 -0.0453609 -0.0334741)
(0.0529696 -0.0282603 -0.00279646)
(0.0263166 -0.0194253 0.0110846)
(0.0520215 -0.0526092 -0.285343)
(0.0899611 -0.037884 -0.123042)
(0.076526 -0.0244621 -0.0705605)
(0.0696829 -0.0141973 -0.0193895)
(0.033178 -0.00776798 0.00417403)
(0.0123783 -0.0490033 0.0138396)
(0.0277234 -0.0345376 0.0208681)
(0.0274449 -0.0317589 0.027127)
(0.0308268 -0.0220329 0.0314097)
(0.0197852 -0.0200085 0.0368933)
(0.026323 -0.123079 -0.0137966)
(0.0442612 -0.0824084 0.00670249)
(0.0393851 -0.0653151 0.0146119)
(0.0420395 -0.0422361 0.0255532)
(0.0218096 -0.0310771 0.0313462)
(0.0532222 -0.153049 -0.0829545)
(0.0854527 -0.0876429 -0.0297501)
(0.0676566 -0.0679685 -0.00684748)
(0.0650648 -0.0396191 0.0146306)
(0.031482 -0.0277959 0.0271074)
(0.0924216 -0.275664 -0.186621)
(0.129075 -0.129165 -0.0623824)
(0.0874081 -0.0856659 -0.029927)
(0.0821724 -0.0443686 0.00664589)
(0.0341973 -0.0280718 0.0206693)
(0.202907 -0.202305 -0.365519)
(0.275449 -0.0926235 -0.186768)
(0.152717 -0.0535559 -0.0829258)
(0.122693 -0.0265341 -0.0139229)
(0.0484837 -0.0128662 0.0138381)
(0.0144798 -0.0624669 0.0391347)
(0.0324139 -0.0416318 0.0451781)
(0.030752 -0.0374039 0.0488916)
(0.0337491 -0.0247313 0.0513927)
(0.0221694 -0.0223731 0.0536356)
(0.0344859 -0.166485 0.0126256)
(0.0562568 -0.103787 0.0346246)
(0.0468105 -0.0778967 0.040297)
(0.0480226 -0.0482864 0.0489885)
(0.0245275 -0.0339663 0.0513244)
(0.0780156 -0.250043 -0.0682208)
(0.120894 -0.122157 -0.00370802)
(0.0863537 -0.0867588 0.0206304)
(0.0776799 -0.0471123 0.0403775)
(0.0372483 -0.0311463 0.0488675)
(0.169999 -0.531439 -0.29208)
(0.21954 -0.220314 -0.0471545)
(0.121852 -0.121175 -0.00388726)
(0.103534 -0.0567511 0.034595)
(0.0413362 -0.0326778 0.0449893)
(0.211068 -0.231701 -1.0337)
(0.53085 -0.170176 -0.29217)
(0.24991 -0.0788417 -0.0680937)
(0.166283 -0.0348079 0.0129013)
(0.0625454 -0.0150536 0.0390346)
(0.0185179 -0.0775588 0.0757444)
(0.037456 -0.0461377 0.0698666)
(0.0336766 -0.0412189 0.0697954)
(0.0355738 -0.0248831 0.0644255)
(0.02241 -0.0227023 0.0631622)
(0.0487229 -0.228818 0.0827727)
(0.0716913 -0.131151 0.079344)
(0.0537651 -0.0935432 0.0728509)
(0.0530586 -0.0532427 0.0696776)
(0.0245906 -0.0358485 0.0643785)
(0.120319 -0.364254 0.0844234)
(0.173123 -0.166506 0.0802203)
(0.111781 -0.112193 0.0816489)
(0.0932687 -0.0540286 0.0729559)
(0.0408369 -0.0341476 0.069868)
(0.195772 -0.897577 -0.160229)
(0.358155 -0.358308 0.0654612)
(0.16625 -0.173212 0.0797768)
(0.130904 -0.0716045 0.0794295)
(0.0456381 -0.0378806 0.0696414)
(0.455308 -1.83091 -1.55507)
(0.932471 -0.546952 -0.302529)
(0.363768 -0.121237 0.0846717)
(0.228205 -0.0486816 0.0829041)
(0.0766613 -0.0193027 0.0759949)
(0.0086485 -0.0568645 0.137159)
(0.0264585 -0.032787 0.117009)
(0.0253388 -0.0349141 0.105441)
(0.027119 -0.0196731 0.092028)
(0.0210506 -0.0213016 0.0828013)
(0.031584 -0.147398 0.173281)
(0.0459161 -0.0919535 0.14292)
(0.0371355 -0.0659577 0.1261)
(0.039536 -0.0397414 0.104186)
(0.0194216 -0.0272637 0.0920616)
(0.0742446 -0.20741 0.340494)
(0.110237 -0.0984583 0.226782)
(0.077796 -0.078543 0.17625)
(0.0658128 -0.0373497 0.126072)
(0.0347278 -0.0259112 0.105521)
(0.144873 -0.862118 0.59523)
(0.245785 -0.355558 0.426681)
(0.0979627 -0.110278 0.226958)
(0.0919152 -0.0463844 0.142774)
(0.0321818 -0.026541 0.117111)
(0.0351584 -0.169072 -7.05469)
(1.01553 -0.712256 0.860865)
(0.206886 -0.0768376 0.340912)
(0.147205 -0.0313996 0.173016)
(0.0570757 -0.00968381 0.137404)
(-0.00149333 -0.0417754 0.132763)
(0.00578566 -0.0202689 0.114126)
(0.00869698 -0.0204502 0.102795)
(0.0129747 -0.0125018 0.0882487)
(0.0129744 -0.0132343 0.0777433)
(0.0188306 -0.0206281 0.163248)
(0.0250661 -0.0230288 0.138275)
(0.0152634 -0.0230175 0.125224)
(0.01908 -0.0192598 0.102576)
(0.0122412 -0.013169 0.0883888)
(0.00503571 -0.0690451 0.304158)
(0.00456389 -0.0104895 0.21549)
(0.0127239 -0.0130034 0.173782)
(0.0228245 -0.0156774 0.125217)
(0.0201783 -0.0090998 0.103034)
(-0.033986 -0.0444225 0.326139)
(-0.0474144 0.0468763 0.269425)
(0.0107405 -0.00422203 0.215693)
(0.0227541 -0.025234 0.138229)
(0.0200254 -0.00604541 0.114606)
(-0.343554 0.780986 -6.35018)
(-0.379333 0.264928 0.311586)
(0.0701534 -0.00516458 0.304856)
(0.019864 -0.0191744 0.163232)
(0.0414116 0.000866837 0.133396)
(-0.00989813 -0.0246155 0.116917)
(-0.00350792 -0.00739358 0.111551)
(-0.000510866 -0.0113972 0.105076)
(0.00208399 -0.00464144 0.0968424)
(0.0100021 -0.0101145 0.0865754)
(0.00674014 0.0234749 0.154751)
(0.00892515 0.00577803 0.13673)
(0.00166577 0.00459264 0.124372)
(0.00289609 -0.00296727 0.111613)
(0.00452889 -0.00198925 0.0969008)
(-0.0235565 -0.0365946 0.146653)
(-0.0226664 -0.00235728 0.147479)
(-0.00912163 0.00858375 0.140807)
(-0.00449687 -0.00192352 0.12443)
(0.011457 0.000276606 0.105091)
(-0.0290953 0.289645 -0.265346)
(-0.0346452 0.0355153 0.082987)
(0.00248727 0.0234191 0.147219)
(-0.00552641 -0.00942099 0.136955)
(0.00731479 0.00382836 0.111668)
(-0.136752 0.216124 -4.19726)
(-0.249205 0.113686 -0.518595)
(0.0379721 0.022943 0.145682)
(-0.0237789 -0.00684942 0.155066)
(0.0255149 0.00955234 0.116757)
(-0.00685256 -0.000360928 0.0952661)
(-0.00616497 0.00710229 0.0896934)
(-0.00608889 0.000653821 0.0792595)
(-0.00554722 0.00336551 0.0723211)
(0.00188713 -0.00209134 0.0609116)
(-0.000311807 0.0127261 0.159305)
(-0.00568429 0.0117217 0.133168)
(-0.00999355 0.0128643 0.108062)
(-0.0083743 0.00830948 0.0917843)
(-0.00357021 0.00536537 0.072558)
(-0.0084348 -0.000198412 0.192299)
(-0.00775793 0.0189772 0.16969)
(-0.00929432 0.00879119 0.129263)
(-0.0130444 0.00980087 0.107991)
(-0.000978153 0.00574594 0.079495)
(0.0919604 -0.271217 -0.0511796)
(0.0218239 -0.173697 0.272333)
(-0.0195726 0.00705206 0.170675)
(-0.0116216 0.00576793 0.133375)
(-0.00745641 0.00572345 0.0904368)
(0.47843 -1.94971 -4.12477)
(0.391938 -0.440264 -0.0201865)
(-0.0018225 0.00713612 0.19253)
(-0.0126599 0.000362783 0.159782)
(-0.000490732 0.00618804 0.0957548)
(-0.0150294 0.0427543 0.121568)
(-0.0193096 0.0386203 0.109389)
(-0.0178258 0.0191305 0.0981982)
(-0.016263 0.0161323 0.0887808)
(-0.00217905 0.00230109 0.0778262)
(-0.019727 0.128211 0.167219)
(-0.0424115 0.0865462 0.141154)
(-0.0397644 0.0546369 0.123254)
(-0.0327272 0.032825 0.105041)
(-0.0160103 0.0165958 0.0889353)
(-0.0539914 0.213088 0.269786)