/*--------------------------------*- C++ -*----------------------------------*\
| =========                 |                                                 |
| \\      /  F ield         | OpenFOAM: The Open Source CFD Toolbox           |
|  \\    /   O peration     | Version:  5.x                                   |
|   \\  /    A nd           | Web:      www.OpenFOAM.org                      |
|    \\/     M anipulation  |                                                 |
\*---------------------------------------------------------------------------*/
FoamFile
{
    version     2.0;
    format      ascii;
    class       surfaceScalarField;
    location    "0.087";
    object      phi;
}
// * * * * * * * * * * * * * * * * * * * * * * * * * * * * * * * * * * * * * //

dimensions      [0 3 -1 0 0 0 0];

internalField   nonuniform List<scalar> 
4381
(
-2.17949e-08
-6.7314e-07
1.50095e-08
1.15717e-07
-6.83174e-07
1.331e-08
2.27876e-07
-6.97952e-07
4.33971e-08
3.18155e-07
-7.03551e-07
6.70197e-08
-7.14858e-07
2.08596e-07
-4.54723e-08
-6.07115e-07
-2.02466e-07
9.70137e-08
-6.1838e-07
-2.07241e-07
2.13166e-07
-6.35042e-07
-1.79009e-07
3.0671e-07
-6.41214e-07
-1.55824e-07
-6.55008e-07
-1.61931e-08
-5.42525e-08
-5.22095e-07
-2.23985e-07
8.94949e-08
-5.33993e-07
-2.28107e-07
2.06914e-07
-5.52413e-07
-2.00001e-07
3.01296e-07
-5.59408e-07
-1.7614e-07
-5.75577e-07
-3.74675e-08
-7.47939e-08
-3.77691e-07
-2.8663e-07
7.08209e-08
-3.88969e-07
-2.90636e-07
1.91251e-07
-4.08499e-07
-2.64311e-07
2.87954e-07
-4.15563e-07
-2.40509e-07
-4.33697e-07
-1.04406e-07
-8.62024e-08
-2.70437e-07
6.03925e-08
-2.73213e-07
1.82018e-07
-2.47169e-07
2.79565e-07
-2.2253e-07
-8.8459e-08
-1.23838e-07
-4.40224e-08
-7.5947e-09
-9.14181e-08
-4.34029e-08
-2.53776e-09
-9.58188e-08
-4.54807e-08
6.55088e-08
-8.70333e-08
-4.69303e-08
7.666e-08
-4.95191e-08
1.92825e-07
-1.20397e-07
-1.10519e-07
-1.69953e-07
-9.12893e-08
-1.12445e-07
-1.67249e-07
-9.71816e-08
-1.17055e-07
-1.01477e-07
-8.86226e-08
-1.20024e-07
-9.12205e-08
-1.2444e-07
2.38099e-08
-1.23075e-07
-1.76046e-07
-1.90651e-07
-9.44888e-08
-1.80767e-07
-1.88324e-07
-1.00153e-07
-1.87733e-07
-1.23602e-07
-9.07001e-08
-1.9209e-07
-1.13469e-07
-1.98068e-07
9.32124e-10
-1.28146e-07
-1.90866e-07
-3.02099e-07
-1.00111e-07
-1.97527e-07
-3.019e-07
-1.05237e-07
-2.06417e-07
-2.40465e-07
-9.46458e-08
-2.11798e-07
-2.31352e-07
-2.19057e-07
-1.19193e-07
-1.35188e-07
-3.19113e-07
-1.0697e-07
-3.19648e-07
-1.11009e-07
-2.60101e-07
-9.86171e-08
-2.51312e-07
-1.40647e-07
-2.01252e-08
-5.65272e-07
-3.37846e-08
1.11803e-07
-5.74467e-07
-2.61146e-08
1.93767e-07
-5.88082e-07
9.6076e-08
2.63247e-07
-5.93275e-07
1.21065e-07
-6.03317e-07
3.37726e-07
-4.09821e-08
-5.40102e-07
-3.31041e-07
9.48742e-08
-5.50693e-07
-3.26833e-07
1.80245e-07
-5.67185e-07
-2.07692e-07
2.53096e-07
-5.73365e-07
-1.83923e-07
-5.86346e-07
3.13672e-08
-4.93181e-08
-4.96071e-07
-3.71825e-07
8.75681e-08
-5.07842e-07
-3.68029e-07
1.74124e-07
-5.26929e-07
-2.50371e-07
2.48069e-07
-5.33999e-07
-2.26733e-07
-5.4969e-07
-1.2534e-08
-7.11628e-08
-3.75213e-07
-5.62957e-07
6.84986e-08
-3.87406e-07
-5.62e-07
1.58201e-07
-4.08303e-07
-4.4877e-07
2.35326e-07
-4.15938e-07
-4.26502e-07
-4.34168e-07
-2.15545e-07
-8.33189e-08
-5.88289e-07
5.72493e-08
-5.88196e-07
1.48471e-07
-4.77594e-07
2.27113e-07
-4.55695e-07
-2.47266e-07
-5.58046e-08
-4.17946e-07
-7.56434e-08
5.82585e-08
-4.2222e-07
-6.55829e-08
1.22223e-07
-4.29526e-07
1.09141e-07
1.81173e-07
-4.32456e-07
1.39877e-07
-4.38281e-07
4.25473e-07
-6.42404e-08
-4.19766e-07
-4.43944e-07
4.97267e-08
-4.25857e-07
-4.3712e-07
1.14993e-07
-4.36258e-07
-2.66177e-07
1.75652e-07
-4.40372e-07
-2.36611e-07
-4.49096e-07
4.84289e-08
-6.92132e-08
-4.04997e-07
-5.01139e-07
4.47027e-08
-4.13002e-07
-4.94772e-07
1.10562e-07
-4.26542e-07
-3.25907e-07
1.72078e-07
-4.31806e-07
-2.96769e-07
-4.43471e-07
-1.2735e-08
-8.28398e-08
-3.23784e-07
-7.5873e-07
3.16399e-08
-3.33117e-07
-7.56374e-07
9.92754e-08
-3.4943e-07
-5.93494e-07
1.62963e-07
-3.55665e-07
-5.66286e-07
-3.70184e-07
-2.86112e-07
-9.23626e-08
-8.04412e-07
2.23796e-08
-8.03638e-07
9.11531e-08
-6.44634e-07
1.56315e-07
-6.18333e-07
-3.412e-07
2.6399e-08
-7.57406e-07
-1.42144e-07
2.18112e-07
-7.67828e-07
-1.24189e-07
3.25977e-07
-7.8288e-07
1.39179e-07
4.16093e-07
-7.88594e-07
1.89054e-07
-7.98159e-07
6.12296e-07
2.32765e-09
-7.22964e-07
-6.80955e-07
1.99348e-07
-7.34309e-07
-6.67605e-07
3.11945e-07
-7.54219e-07
-4.07381e-07
4.06444e-07
-7.61365e-07
-3.58283e-07
-7.75326e-07
6.63999e-08
-9.74956e-09
-6.59959e-07
-7.66253e-07
1.90403e-07
-6.74356e-07
-7.54843e-07
3.04831e-07
-6.98234e-07
-4.96271e-07
4.00866e-07
-7.06694e-07
-4.47419e-07
-7.25254e-07
-2.33504e-08
-3.62962e-08
-4.84031e-07
-1.14187e-06
1.66743e-07
-4.99799e-07
-1.13396e-06
2.85471e-07
-5.27476e-07
-8.82939e-07
3.85968e-07
-5.37114e-07
-8.363e-07
-5.60713e-07
-4.15796e-07
-5.18694e-08
-1.20625e-06
1.52519e-07
-1.20076e-06
2.7323e-07
-9.5432e-07
3.75787e-07
-9.08798e-07
-4.92041e-07
5.485e-08
-9.04573e-07
-2.42908e-07
2.98939e-07
-9.14053e-07
-2.14599e-07
4.34639e-07
-9.27425e-07
1.61272e-07
5.48135e-07
-9.31814e-07
2.34292e-07
-9.3968e-07
8.34386e-07
3.41998e-08
-8.5767e-07
-9.84747e-07
2.82559e-07
-8.69419e-07
-9.60527e-07
4.2297e-07
-8.87627e-07
-5.87526e-07
5.40424e-07
-8.93612e-07
-5.13879e-07
-9.06292e-07
9.07829e-08
2.65307e-08
-7.75467e-07
-1.1077e-06
2.75097e-07
-7.87548e-07
-1.08522e-06
4.16915e-07
-8.12025e-07
-7.13625e-07
5.35725e-07
-8.19908e-07
-6.39866e-07
-8.38415e-07
-3.44146e-08
-4.27483e-09
-5.56495e-07
-1.62034e-06
2.51073e-07
-5.71407e-07
-1.6054e-06
3.97919e-07
-6.00276e-07
-1.24146e-06
5.20964e-07
-6.09755e-07
-1.16942e-06
-6.34437e-07
-5.6732e-07
-1.93544e-08
-1.71322e-06
2.36541e-07
-1.70102e-06
3.8542e-07
-1.34277e-06
5.10784e-07
-1.27212e-06
-6.73732e-07
1.60611e-07
-1.29882e-06
-3.91202e-07
5.08618e-07
-1.31313e-06
-3.4315e-07
6.95778e-07
-1.32909e-06
1.98859e-07
8.43944e-07
-1.33468e-06
3.12174e-07
-1.33934e-06
1.1662e-06
1.2899e-07
-1.22137e-06
-1.43834e-06
4.88155e-07
-1.239e-06
-1.39375e-06
6.84205e-07
-1.26225e-06
-8.50357e-07
8.3922e-07
-1.27001e-06
-7.335e-07
-1.28199e-06
1.33545e-07
1.16109e-07
-1.08835e-06
-1.61993e-06
4.78039e-07
-1.10963e-06
-1.57643e-06
6.76714e-07
-1.14125e-06
-1.03322e-06
8.33756e-07
-1.15179e-06
-9.15067e-07
-1.17327e-06
-4.42893e-08
7.71132e-08
-7.54462e-07
-2.34292e-06
4.46293e-07
-7.78386e-07
-2.30571e-06
6.52831e-07
-8.19055e-07
-1.7701e-06
8.16734e-07
-8.32627e-07
-1.6524e-06
-8.66097e-07
-7.81231e-07
5.5881e-08
-2.47338e-06
4.26222e-07
-2.44019e-06
6.35867e-07
-1.9107e-06
8.02825e-07
-1.79427e-06
-9.26163e-07
2.77888e-07
-1.7613e-06
-6.16749e-07
7.6712e-07
-1.77512e-06
-5.38619e-07
1.02914e-06
-1.79288e-06
2.35876e-07
1.23261e-06
-1.7957e-06
4.08182e-07
-1.79926e-06
1.62621e-06
2.43379e-07
-1.64296e-06
-2.0877e-06
7.45529e-07
-1.66043e-06
-2.01053e-06
1.01876e-06
-1.68584e-06
-1.23059e-06
1.22905e-06
-1.69109e-06
-1.04836e-06
-1.70218e-06
1.92965e-07
2.30731e-07
-1.44161e-06
-2.357e-06
7.37047e-07
-1.46339e-06
-2.27971e-06
1.01371e-06
-1.49925e-06
-1.4964e-06
1.22629e-06
-1.50824e-06
-1.31046e-06
-1.53137e-06
-5.89626e-08
1.86104e-07
-9.68729e-07
-3.36211e-06
7.01408e-07
-9.94022e-07
-3.29026e-06
9.87489e-07
-1.04039e-06
-2.51496e-06
1.2071e-06
-1.05433e-06
-2.32587e-06
-1.09188e-06
-1.07013e-06
1.6197e-07
-3.55066e-06
6.80047e-07
-3.48202e-06
9.70075e-07
-2.71213e-06
1.19359e-06
-2.52323e-06
-1.26901e-06
4.77483e-07
-2.44644e-06
-9.31314e-07
1.15344e-06
-2.46291e-06
-8.03033e-07
1.50753e-06
-2.4714e-06
2.97381e-07
1.76719e-06
-2.47081e-06
5.63904e-07
-2.4524e-06
2.28044e-06
4.38327e-07
-2.28197e-06
-3.00671e-06
1.14173e-06
-2.30362e-06
-2.87321e-06
1.5153e-06
-2.32405e-06
-1.7515e-06
1.78559e-06
-2.32673e-06
-1.46275e-06
-2.32035e-06
3.03198e-07
4.22475e-07
-1.98709e-06
-3.41546e-06
1.13359e-06
-2.01566e-06
-3.27874e-06
1.51303e-06
-2.05352e-06
-2.14634e-06
1.78628e-06
-2.06255e-06
-1.84789e-06
-2.07759e-06
-5.91337e-08
3.65279e-07
-1.30478e-06
-4.83064e-06
1.09582e-06
-1.33966e-06
-4.6967e-06
1.49104e-06
-1.39926e-06
-3.56441e-06
1.77476e-06
-1.41641e-06
-3.25573e-06
-1.46241e-06
-1.44753e-06
3.31873e-07
-5.10738e-06
1.06834e-06
-4.97631e-06
1.4695e-06
-3.84635e-06
1.75757e-06
-3.53464e-06
-1.7216e-06
7.55736e-07
-3.42478e-06
-1.40473e-06
1.72652e-06
-3.43639e-06
-1.19832e-06
2.235e-06
-3.44698e-06
3.66556e-07
2.59611e-06
-3.43434e-06
7.76715e-07
-3.40942e-06
3.21252e-06
7.12512e-07
-3.18266e-06
-4.33856e-06
1.71605e-06
-3.19949e-06
-4.11367e-06
2.25052e-06
-3.22105e-06
-2.51193e-06
2.62076e-06
-3.21179e-06
-2.05557e-06
-3.19648e-06
4.60984e-07
7.01023e-07
-2.7364e-06
-4.968e-06
1.71753e-06
-2.7611e-06
-4.73364e-06
2.26041e-06
-2.80464e-06
-3.10565e-06
2.63413e-06
-2.80395e-06
-2.62948e-06
-2.81571e-06
-6.51602e-08
6.35562e-07
-1.75171e-06
-6.95101e-06
1.67435e-06
-1.7861e-06
-6.71047e-06
2.23814e-06
-1.85281e-06
-5.08006e-06
2.62216e-06
-1.8651e-06
-4.57863e-06
-1.91012e-06
-1.98062e-06
6.02423e-07
-7.37015e-06
1.6504e-06
-7.12735e-06
2.22172e-06
-5.49053e-06
2.61116e-06
-4.98059e-06
-2.36369e-06
1.18541e-06
-4.80365e-06
-2.04404e-06
2.5275e-06
-4.8093e-06
-1.70688e-06
3.2199e-06
-4.77635e-06
5.01158e-07
3.67212e-06
-4.74333e-06
1.1426e-06
-4.64526e-06
4.56017e-06
1.15636e-06
-4.49275e-06
-6.21283e-06
2.56839e-06
-4.50579e-06
-5.82925e-06
3.30585e-06
-4.48982e-06
-3.53597e-06
3.77001e-06
-4.46031e-06
-2.80281e-06
-4.37726e-06
7.65191e-07
1.14786e-06
-3.84314e-06
-7.21208e-06
2.5829e-06
-3.87259e-06
-6.8019e-06
3.33652e-06
-3.89393e-06
-4.4552e-06
3.80373e-06
-3.88114e-06
-3.6759e-06
-3.84727e-06
-1.37104e-08
1.0761e-06
-2.41945e-06
-1.00325e-05
2.56125e-06
-2.46626e-06
-9.60196e-06
3.34898e-06
-2.54382e-06
-7.21792e-06
3.83004e-06
-2.55411e-06
-6.38675e-06
-2.59544e-06
-2.64572e-06
1.032e-06
-1.06841e-05
2.53423e-06
-1.02463e-05
3.33698e-06
-7.83928e-06
3.82431e-06
-6.98181e-06
-3.19346e-06
1.79164e-06
-6.78652e-06
-2.98351e-06
3.72222e-06
-6.76356e-06
-2.44414e-06
4.72033e-06
-6.72158e-06
6.77072e-07
5.33918e-06
-6.63979e-06
1.67488e-06
-6.50495e-06
6.48609e-06
1.77366e-06
-6.35472e-06
-8.91239e-06
3.78777e-06
-6.3371e-06
-8.26984e-06
4.84978e-06
-6.30625e-06
-5.01335e-06
5.47264e-06
-6.2275e-06
-3.83801e-06
-6.09676e-06
1.21814e-06
1.7892e-06
-5.38372e-06
-1.05103e-05
3.84593e-06
-5.37992e-06
-9.81583e-06
4.931e-06
-5.40049e-06
-6.44606e-06
5.55786e-06
-5.34538e-06
-5.18491e-06
-5.28089e-06
5.54876e-08
1.71801e-06
-3.33335e-06
-1.44978e-05
3.8259e-06
-3.36114e-06
-1.37286e-05
4.95942e-06
-3.43374e-06
-1.03182e-05
5.59644e-06
-3.42195e-06
-8.94718e-06
-3.4414e-06
-3.58134e-06
1.69193e-06
-1.55568e-05
3.82958e-06
-1.47514e-05
4.97638e-06
-1.12653e-05
5.62137e-06
-9.84827e-06
-4.37397e-06
2.76429e-06
-9.73538e-06
-4.20936e-06
5.46471e-06
-9.66701e-06
-3.31555e-06
6.84271e-06
-9.48299e-06
1.0754e-06
7.57826e-06
-9.31279e-06
2.66323e-06
-8.97558e-06
9.39189e-06
2.8265e-06
-9.27313e-06
-1.27179e-05
5.70989e-06
-9.20972e-06
-1.16105e-05
7.19339e-06
-9.03284e-06
-6.94703e-06
7.9145e-06
-8.85542e-06
-5.01652e-06
-8.51105e-06
2.12179e-06
2.8813e-06
-7.83145e-06
-1.54121e-05
5.83808e-06
-7.82489e-06
-1.41574e-05
7.37446e-06
-7.73144e-06
-9.28384e-06
8.08793e-06
-7.60588e-06
-7.14793e-06
-7.37693e-06
3.43304e-07
2.83307e-06
-4.79783e-06
-2.11718e-05
5.92957e-06
-4.83803e-06
-1.98119e-05
7.54391e-06
-4.9011e-06
-1.47629e-05
8.25524e-06
-4.84776e-06
-1.24166e-05
-4.8168e-06
-4.66971e-06
2.80073e-06
-2.29174e-05
5.94522e-06
-2.14816e-05
7.61534e-06
-1.63226e-05
8.32595e-06
-1.3826e-05
-5.86383e-06
4.09453e-06
-1.39032e-05
-5.88347e-06
7.97858e-06
-1.36989e-05
-4.45297e-06
9.9462e-06
-1.34311e-05
1.72621e-06
1.08825e-05
-1.30667e-05
4.2264e-06
-1.2547e-05
1.35891e-05
4.2672e-06
-1.33839e-05
-1.81376e-05
8.37402e-06
-1.31603e-05
-1.6256e-05
1.05069e-05
-1.28715e-05
-9.63954e-06
1.13963e-05
-1.24811e-05
-6.49163e-06
-1.19121e-05
3.57136e-06
4.44198e-06
-1.13246e-05
-2.26133e-05
8.71535e-06
-1.11002e-05
-2.04909e-05
1.09098e-05
-1.09279e-05
-1.3422e-05
1.17769e-05
-1.06038e-05
-9.89227e-06
-1.02053e-05
8.45191e-07
4.49815e-06
-6.9172e-06
-3.10385e-05
8.89286e-06
-6.82775e-06
-2.84791e-05
1.11926e-05
-6.7723e-06
-2.12182e-05
1.20356e-05
-6.61665e-06
-1.72468e-05
-6.43867e-06
-6.09947e-06
4.58931e-06
-3.41763e-05
9.11432e-06
-3.14046e-05
1.14128e-05
-2.37024e-05
1.22501e-05
-1.9512e-05
-7.88629e-06
6.42899e-06
-2.06801e-05
-7.77247e-06
1.19754e-05
-2.02216e-05
-5.37935e-06
1.47416e-05
-1.95007e-05
3.29363e-06
1.5685e-05
-1.87272e-05
7.29758e-06
-1.76959e-05
2.03446e-05
6.96353e-06
-2.08575e-05
-2.55458e-05
1.30214e-05
-2.02739e-05
-2.22615e-05
1.60071e-05
-1.93331e-05
-1.2793e-05
1.67137e-05
-1.83977e-05
-7.52771e-06
-1.71494e-05
6.52502e-06
7.57356e-06
-1.8003e-05
-3.37567e-05
1.38831e-05
-1.74953e-05
-2.95791e-05
1.69662e-05
-1.65897e-05
-1.92485e-05
1.75047e-05
-1.57539e-05
-1.30745e-05
-1.47556e-05
2.28054e-06
8.23189e-06
-1.12364e-05
-4.71233e-05
1.487e-05
-1.08833e-05
-4.17294e-05
1.79246e-05
-1.04359e-05
-3.04266e-05
1.81956e-05
-9.85375e-06
-2.34181e-05
-9.40525e-06
-7.32832e-06
8.67557e-06
-5.37013e-05
1.55974e-05
-4.74189e-05
1.85952e-05
-3.48747e-05
1.86802e-05
-2.70927e-05
-1.0135e-05
9.58197e-06
-3.05916e-05
-9.49113e-06
1.76003e-05
-2.94492e-05
-5.68274e-06
2.13717e-05
-2.81311e-05
6.43403e-06
2.21597e-05
-2.64695e-05
1.26511e-05
-2.45028e-05
3.02079e-05
1.12944e-05
-3.30541e-05
-3.5124e-05
1.98326e-05
-3.0708e-05
-2.95409e-05
2.37951e-05
-2.87783e-05
-1.61082e-05
2.41111e-05
-2.65544e-05
-7.7588e-06
-2.41288e-05
1.17182e-05
1.29975e-05
-3.20036e-05
-4.87259e-05
2.27721e-05
-2.85359e-05
-4.15259e-05
2.62205e-05
-2.51921e-05
-2.62832e-05
2.58664e-05
-2.27656e-05
-1.65092e-05
-2.06974e-05
5.23578e-06
1.53803e-05
-2.08551e-05
-7.51741e-05
2.52637e-05
-1.9257e-05
-6.08919e-05
2.82524e-05
-1.59777e-05
-4.26297e-05
2.71642e-05
-1.41679e-05
-3.09276e-05
-1.27777e-05
-8.04848e-06
1.6865e-05
-9.08745e-05
2.84478e-05
-7.59399e-05
3.03057e-05
-5.02874e-05
2.83693e-05
-3.68198e-05
-1.2321e-05
1.5859e-05
-4.80922e-05
-9.57322e-06
2.71323e-05
-4.48025e-05
-3.27966e-06
3.19489e-05
-4.17982e-05
1.34832e-05
3.19771e-05
-3.82194e-05
2.2549e-05
-3.48371e-05
4.54199e-05
1.91591e-05
-5.79371e-05
-4.51711e-05
3.29074e-05
-5.25077e-05
-3.5584e-05
3.70637e-05
-4.49461e-05
-1.71167e-05
3.53881e-05
-4.03841e-05
-3.91834e-06
-3.53114e-05
2.14511e-05
2.30577e-05
-4.95535e-05
-8.11013e-05
3.76641e-05
-4.75747e-05
-6.10653e-05
4.23526e-05
-4.20132e-05
-3.39046e-05
3.92969e-05
-3.64134e-05
-1.74242e-05
-3.07346e-05
1.21574e-05
2.42929e-05
-3.05078e-05
-0.000120123
4.28819e-05
-2.89268e-05
-9.81289e-05
4.91608e-05
-2.78184e-05
-6.31034e-05
4.21328e-05
-2.31294e-05
-3.71836e-05
-1.95119e-05
-6.02547e-06
2.58784e-05
-0.000146455
4.48228e-05
-0.000121006
5.41599e-05
-8.37305e-05
4.48744e-05
-4.71637e-05
-1.26157e-05
2.27093e-05
-7.08436e-05
-7.51599e-06
3.72846e-05
-6.34639e-05
2.20581e-06
4.26517e-05
-5.79751e-05
2.43671e-05
4.08222e-05
-5.17494e-05
3.72878e-05
-4.40649e-05
6.13583e-05
2.86101e-05
-7.50852e-05
-7.0395e-05
4.69842e-05
-7.22826e-05
-4.51393e-05
5.15786e-05
-6.32619e-05
-1.64243e-05
4.84779e-05
-5.55255e-05
2.95862e-06
-4.65072e-05
3.60524e-05
3.1021e-05
-6.2992e-05
-0.000125206
5.29016e-05
-5.94993e-05
-9.57293e-05
6.08073e-05
-5.72799e-05
-4.77922e-05
5.53115e-05
-5.10071e-05
-1.64468e-05
-4.12719e-05
2.28729e-05
3.33969e-05
-4.00114e-05
-0.000178096
5.54062e-05
-3.73927e-05
-0.000142245
6.78484e-05
-3.52145e-05
-9.76109e-05
6.05595e-05
-3.29651e-05
-4.79366e-05
-2.69579e-05
-6.88913e-07
3.62619e-05
-0.000222171
5.9202e-05
-0.000178748
7.11211e-05
-0.000127534
6.81424e-05
-7.35597e-05
-1.05616e-05
3.05437e-05
-9.65566e-05
-5.77023e-06
5.00965e-05
-8.84049e-05
1.06084e-05
5.96545e-05
-8.03721e-05
3.71616e-05
5.97161e-05
-6.87518e-05
5.3555e-05
-6.36239e-05
8.72947e-05
3.80426e-05
-0.000105918
-9.97546e-05
6.40894e-05
-9.59592e-05
-6.36318e-05
7.15831e-05
-8.99158e-05
-1.43742e-05
6.48226e-05
-7.58676e-05
1.6835e-05
-6.44589e-05
5.24506e-05
4.4958e-05
-9.2421e-05
-0.000184514
7.13001e-05
-8.23935e-05
-0.000135637
8.62843e-05
-7.59664e-05
-7.67257e-05
7.64075e-05
-6.79435e-05
-1.44941e-05
-5.56056e-05
3.5518e-05
5.02703e-05
-6.30345e-05
-0.000259582
7.74818e-05
-5.51039e-05
-0.000196746
9.14636e-05
-4.98324e-05
-0.000137727
8.42395e-05
-4.2403e-05
-6.6253e-05
-3.62082e-05
7.06009e-06
5.81928e-05
-0.000342332
8.75808e-05
-0.000259863
0.000101473
-0.000186634
9.25616e-05
-0.000102419
-9.37023e-06
4.14302e-05
-0.000134889
-4.73925e-06
6.83496e-05
-0.000121041
2.01204e-05
8.25842e-05
-0.000110024
5.27408e-05
8.18063e-05
-9.5474e-05
7.81667e-05
-8.60852e-05
0.00012466
5.35454e-05
-0.000154702
-0.000134388
8.45999e-05
-0.000136711
-7.90166e-05
9.74145e-05
-0.000123106
-1.41059e-05
9.11168e-05
-0.00010222
2.98791e-05
-8.73123e-05
7.66681e-05
6.66214e-05
-0.000139564
-0.000267332
0.000102634
-0.000120743
-0.000187617
0.000118521
-0.000107727
-0.000107992
0.000105888
-8.9785e-05
-1.42957e-05
-7.37788e-05
5.10659e-05
7.79491e-05
-9.6574e-05
-0.000382498
0.000115513
-8.31373e-05
-0.000271916
0.000131929
-7.18521e-05
-0.000190017
0.000116667
-5.88682e-05
-8.19074e-05
-4.72286e-05
1.61263e-05
9.12646e-05
-0.000529291
0.000134372
-0.000382832
0.000149985
-0.000269603
0.000130583
-0.000137181
-8.98223e-06
6.59767e-05
-0.000202975
2.56205e-06
0.000108603
-0.000174191
3.60658e-05
0.00012594
-0.000163013
8.63497e-05
0.000117833
-0.00013665
0.000126641
-0.000123362
0.000187122
8.47039e-05
-0.000256546
-0.000166295
0.000126815
-0.00021375
-8.15682e-05
0.00014613
-0.000189236
-7.19829e-06
0.000131007
-0.000152416
6.07681e-05
-0.00013223
0.000124945
0.00011758
-0.000253572
-0.000388821
0.000168228
-0.000202734
-0.000249281
0.000183096
-0.000175161
-0.000136935
0.000157564
-0.000133892
-7.2883e-06
-0.000115915
8.47723e-05
0.000141828
-0.000191863
-0.000588586
0.000195589
-0.00014923
-0.000379181
0.000207228
-0.000124988
-0.00025183
0.000167864
-9.21845e-05
-8.42504e-05
-7.42085e-05
3.17652e-05
0.000184572
-0.000903808
0.000246818
-0.000589307
0.000250485
-0.000391198
0.00019716
-0.000168921
-2.22432e-06
9.63321e-05
-0.00030612
2.32897e-05
0.000148601
-0.00025435
7.72358e-05
0.000168313
-0.000230181
0.000143297
0.000154125
-0.000183476
0.000197702
-0.000159669
0.000268941
0.000130821
-0.000405824
-0.000198323
0.000185431
-0.000324614
-6.5913e-05
0.000206558
-0.00027836
1.98538e-05
0.000177789
-0.000212709
0.00011877
-0.000174381
0.000195698
0.000187885
-0.00042621
-0.000557399
0.000259167
-0.000321898
-0.00032328
0.000272326
-0.000265942
-0.000162513
0.000224767
-0.000192379
1.99407e-05
-0.000155314
0.000141587
0.00024563
-0.000348597
-0.000914185
0.000314977
-0.000252224
-0.000518201
0.0003184
-0.000194884
-0.00032631
0.000248315
-0.000137574
-6.89703e-05
-0.000102855
7.18511e-05
0.000342021
-0.00159318
0.000419476
-0.000915786
0.000399858
-0.000560538
0.000300667
-0.000201381
1.85557e-05
0.000155069
-0.000493941
9.27374e-05
0.000224031
-0.000385942
0.000174788
0.000241705
-0.000339841
0.00025721
0.000207551
-0.000251809
0.000321991
-0.000214913
0.000391774
0.000210061
-0.000724211
-0.000178901
0.000289328
-0.000528854
-2.26754e-06
0.000306055
-0.000439612
0.000102898
0.00024427
-0.000314135
0.000242881
-0.000249862
0.000319915
0.000354959
-0.000877234
-0.000760373
0.000444272
-0.000585435
-0.000356012
0.000431554
-0.000453757
-0.00013565
0.000332875
-0.000298874
0.000103358
-0.00023332
0.000255968
0.00049476
-0.00082941
-0.00146038
0.000575743
-0.000505469
-0.00067915
0.00052017
-0.000365234
-0.00035926
0.000377522
-0.000220503
-4.69472e-06
-0.000164614
0.000168741
0.000820611
-0.00324006
0.000868777
-0.00146027
0.000716867
-0.000762866
0.000486175
-0.000180739
8.84403e-05
0.000206932
-0.000750168
0.000252586
0.000287174
-0.000536444
0.000345675
0.000304009
-0.000460925
0.000428102
0.00026052
-0.000319683
0.000484961
-0.00026773
0.000547117
0.000330398
-0.00117689
-8.33101e-05
0.000398409
-0.00079002
0.000183297
0.000400569
-0.000635002
0.000274815
0.000312239
-0.000408078
0.000419606
-0.000311716
0.000482621
0.000585022
-0.00156315
-0.000960071
0.00068075
-0.000940214
-0.000301547
0.000627674
-0.000688976
-2.85989e-05
0.000454042
-0.000406626
0.000275538
-0.00029543
0.000426852
0.000919623
-0.00165341
-0.00229196
0.000932054
-0.000924214
-0.000707581
0.000782888
-0.000593146
-0.000305924
0.000527972
-0.000337334
0.000180929
-0.000215015
0.000338885
0.00164884
-0.00160532
-0.00168881
-0.00164296
-0.0016049
0.00155424
-0.0022952
0.00116941
-0.000963745
0.000741657
-8.47844e-05
0.00024823
0.00028243
-0.00111949
0.000568312
0.000377002
-0.000741121
0.000632907
0.000380501
-0.000606874
0.000692003
0.00031341
-0.000390308
0.000713138
-0.000323012
0.000746787
0.000480435
-0.00200436
0.000320424
0.000557661
-0.00121274
0.000577688
0.000521182
-0.000894689
0.000599109
0.000380192
-0.000531523
0.000701811
-0.000391163
0.00071088
0.000982596
-0.00339793
-0.000550452
0.0010886
-0.00168845
6.81566e-05
0.000884948
-0.00110085
0.000381214
0.000598075
-0.000569887
0.000600775
-0.000388948
0.00069159
0.00183203
-0.000875164
-0.000653249
-0.000650037
-0.00126551
-0.00100447
-0.000958573
-0.00105888
-0.00106213
0.00167459
-0.00184554
-0.000393041
0.00120399
-0.000997623
6.1452e-05
0.000729573
-0.000492974
0.000578433
-0.000294598
0.000626221
0.000674499
-0.000670517
-0.00248762
0.00338789
-0.00100645
-0.000649123
-0.00126304
-0.000645645
-0.000953411
-0.000869805
-0.00105694
-0.00105343
0.00199782
-0.000553433
0.00111197
0.000323641
0.000567245
0.000349257
-0.00160627
0.00115169
0.000432522
-0.000930606
0.00106826
0.000420929
-0.000743453
0.00104771
0.000345222
-0.000437917
0.00097438
-0.00035405
0.000956038
0.000655165
-0.00311534
0.00117377
0.000676967
-0.00152723
0.00115251
0.000590738
-0.00113946
0.00108134
0.00042869
-0.000599041
0.00102498
-0.000430834
0.000972784
0.0016177
-0.00159284
0.00146514
-0.00151251
-0.00197611
-0.00166847
0.00155111
-0.00269538
0.00130289
0.00113084
-0.00155895
0.00122097
0.000735031
-0.000685146
0.00108269
-0.00044317
0.00104787
0.000620245
-0.00242109
-0.000446229
0.00268212
-0.000956889
0.000502597
0.000331759
0.000520976
0.000505957
-0.000819379
-0.000954972
-0.000715743
-0.00132354
-0.000821596
-0.00132633
-0.000713374
0.00151725
-0.00162932
0.00129669
0.00091752
-0.000660202
0.00115322
-0.000360672
0.00106219
0.00199584
0.00338956
-0.00157676
-0.0011434
-0.00104363
-0.00183057
0.00333074
-0.000862452
-0.000701583
-0.000762242
-0.000800697
-0.00223106
0.00195818
-0.000886451
-0.000804015
0.00310728
0.00145865
-0.00150751
-0.00158879
-0.00166825
-0.00197271
0.00159452
0.0011719
0.00115148
0.000314361
-0.00151031
0.00170969
0.000406315
-0.000875004
0.00150158
0.000386946
-0.000688584
0.0013747
0.000314838
-0.000387383
0.00122035
-0.000325644
0.00112792
0.000628193
-0.00296667
0.0020019
0.000626825
-0.00147038
0.00174925
0.000539194
-0.00109826
0.00157865
0.000375935
-0.000549391
0.00135025
-0.000399994
0.00122043
0.00149245
-0.00220731
0.00360694
-0.001748
-0.00146125
-0.00118602
0.00151551
-0.000953867
0.00263077
-0.00072806
-0.00063192
-0.000507476
0.00108648
-0.00153055
0.00208229
0.000679
-0.000637913
0.0015787
-0.000421069
0.00137669
0.000790226
0.00116161
-0.000128633
-0.000948514
-0.00107054
-0.00103845
-0.000972735
-0.000968706
0.000882969
-0.00124686
0.00088133
0.00145726
-0.00152159
0.00263058
-0.000723556
-0.000947774
-0.000504117
-0.000624664
0.000859
-0.000636584
0.00175015
-0.00033185
0.00150005
0.00163889
0.00209605
0.000547012
-0.000868166
-0.00341397
-0.000939738
0.00046783
-0.000110401
-0.000540805
0.000290625
0.000832488
0.00295703
0.00361481
-0.00174642
-0.00220638
-0.00118954
-0.00146189
0.00150627
0.002005
0.00171761
0.000164384
-0.000869804
0.00183926
0.000229307
-0.000508413
0.00162708
0.00024801
-0.000459737
0.00150407
0.000241803
-0.00029282
0.0013213
-0.00025135
0.00120427
0.000430417
-0.00151819
0.0022192
0.000411054
-0.000669285
0.00192948
0.000353979
-0.000568258
0.00174425
0.000282973
-0.000361804
0.00149024
-0.000258597
0.00132263
0.000664827
-0.00115624
0.00360171
-0.000779005
-0.00011919
-0.00012263
0.000674282
-0.000762685
0.00271471
0.00056036
-0.000680865
0.00230882
0.00045121
-0.000417807
0.00174385
-0.000238307
0.00150547
0.000229217
0.000733707
-0.00145288
-5.30134e-05
-0.00032567
-0.000316841
2.75499e-05
0.000749432
-5.47607e-05
0.00310576
-0.000356681
-6.45589e-05
-0.000276774
0.000479271
-0.000331161
0.00046696
-0.000275359
-0.000955482
-0.0008574
-0.00143576
-0.000956167
0.000656411
-0.000678555
0.00272129
0.000491938
-0.000433295
0.00193011
-0.000179829
0.00163331
1.77425e-05
0.0049854
-0.000106687
-6.71307e-05
-0.00483068
-0.000114779
0.000403062
0.000592764
0.000197635
7.13632e-05
0.000302078
-0.000426442
6.64658e-05
0.000125282
-7.69573e-05
-7.00516e-05
-0.000233333
-0.000459457
-0.000432391
0.0015075
0.00361747
-0.000768548
-0.00116828
-0.000121073
-0.000128427
0.000859004
0.00221862
0.00184575
-3.57878e-05
-0.000139222
0.00166782
4.2001e-05
-7.21161e-05
0.00154404
7.87857e-05
-0.000124611
0.00143058
0.000115332
-8.77365e-05
0.0013046
-0.000124054
0.00117178
0.000218945
-0.000422239
0.00228472
0.000130842
6.56018e-06
0.00193891
8.11274e-05
-4.97494e-05
0.0017191
7.68498e-05
-9.24682e-05
0.00149925
-9.02373e-05
0.00130724
-0.000208294
0.000344522
0.00272024
0.000246481
-8.77097e-05
0.000164303
-8.32776e-05
0.000197415
0.00239884
3.88803e-05
7.23328e-05
0.00206458
0.000117926
-0.000145079
0.00171742
-5.27079e-05
0.00143046
0.000357111
-9.01313e-05
0.00082884
-0.000753224
-0.00021927
0.000295013
0.000654142
0.000651942
0.000516504
0.000653012
4.96221e-05
0.000298014
0.000234023
-5.09922e-05
4.29048e-05
-5.11358e-05
0.000229396
-2.32897e-05
0.000194547
0.0024031
5.76573e-05
-0.000234505
0.00193859
2.07742e-05
0.0015534
-0.00114911
0.000266081
0.00387362
0.00359009
0.00449976
0.00414963
-0.000671705
-0.00370191
-0.00358865
-0.00352429
-0.00375709
0.00134992
0.000493544
-0.000721634
0.000345816
-0.00117264
0.000417058
0.00272688
0.000256913
0.000345511
0.000170015
-8.38921e-05
0.000135054
0.00228343
0.00167142
-4.26231e-05
-0.000168951
0.00162604
-1.05666e-05
-7.06601e-05
0.00148639
1.49807e-05
-8.84255e-05
0.00135297
7.43199e-05
-5.94501e-05
0.00123367
-8.36919e-05
0.00109626
9.9408e-05
-0.000258285
0.00227586
4.9726e-05
-1.53962e-05
0.00193333
2.4706e-05
-2.15117e-05
0.00167721
5.02833e-05
-3.39361e-05
0.00144816
-2.64516e-05
0.0012374
1.4558e-07
-0.000365693
0.00301632
-0.000116602
-8.44529e-05
1.29403e-05
9.4613e-06
-0.000182455
0.00254006
2.64618e-07
-9.19447e-05
0.000108202
1.20275e-05
-1.7479e-05
0.00205798
7.86472e-05
-5.85679e-05
0.00167543
-4.96471e-06
0.00135567
1.24728e-05
-0.000359107
0.000815818
-0.000220345
-0.000207395
-0.000196962
-0.000210821
0.000102095
-3.49136e-05
-0.000289343
0.000693848
8.91659e-06
-1.18376e-05
0.00254478
2.79447e-06
-0.000179741
0.000110079
-8.93698e-05
5.99373e-05
-0.000105706
0.00193471
2.88436e-05
0.00149396
0.00331072
0.000482004
0.000198828
-0.000576317
-0.00340136
-8.76328e-05
0.000330155
-0.000337689
-0.000144887
-0.00052218
0.000422712
-0.000105895
-0.000170271
-5.07639e-05
-6.95919e-05
0.00132145
-0.00021439
-0.000167089
-0.000137627
-6.63022e-05
0.000254424
0.00301405
-0.000107105
-0.00036401
1.36883e-05
-7.65006e-05
0.000156649
0.00227602
0.00162801
-0.000161699
0.000806566
0.00134307
-0.000158255
0.000603788
0.00125603
-0.000143706
0.000340056
0.00113729
-6.42588e-05
0.000228929
0.00106178
5.78386e-05
0.000935397
-0.000277794
0.00163868
0.00172472
-0.000404196
0.00114012
0.0015234
-0.000348924
0.000575927
0.00138607
-0.000234332
0.000341789
0.00122071
0.000137705
0.00106695
-0.000766103
0.000478682
0.0023117
0.000589264
0.0010481
0.000996081
-0.000786184
0.000245773
0.00199243
0.000360325
0.000550007
0.000551731
-0.000580932
0.000786913
0.00164174
-0.000341212
0.000393425
0.00138407
0.000154451
0.00113906
-0.000128894
0.000457235
-0.000161394
-2.65504e-05
1.26042e-06
0.000160703
0.000177992
0.00026965
-0.000347173
0.000282964
0.000805418
-0.000765085
-0.00114476
0.000764097
0.00200138
0.000361689
0.00024634
0.000551775
0.000551174
-0.000611626
0.000268208
0.00152679
0.000154407
0.00126792
0.00481816
3.01338e-06
-0.000106465
-3.38304e-06
-0.00471189
9.01468e-05
-2.53228e-06
-0.000143858
-7.8839e-05
-2.56568e-05
0.000160739
-0.00163573
0.0022918
0.000594373
0.000474496
0.0010225
0.00106026
-0.000808187
0.00172818
0.00134121
-0.000256469
0.000955177
0.000889857
-0.00026889
0.000661984
0.000907825
-0.000230899
0.00041023
0.00083297
-0.000110618
0.000241589
0.000824267
0.000105556
0.000727163
-0.000304166
0.00188514
0.00110263
-0.000421914
0.0012656
0.00103753
-0.000393394
0.000775022
0.000992753
-0.000247375
0.000388679
0.000927598
0.000225333
0.000830072
-0.00111148
0.00438525
0.000929759
-0.00109271
0.00208291
0.00115635
-0.000779347
0.00108445
0.00101894
-0.000416327
0.000418281
0.000991449
0.00026116
0.000837681
-0.00287876
0.00282447
-0.00350592
0.00234913
0.00262933
0.00192151
-8.25201e-05
0.000112804
0.00106875
-5.1457e-05
-0.00209136
0.00282247
0.000906112
-0.000547014
-0.000529279
-0.000810362
-0.000546428
-0.00127082
0.00109765
0.00116764
-0.000667748
0.000299928
0.00104207
0.000248857
0.000921493
0.00326276
-0.0022507
0.00226098
-0.0117189
0.0028034
0.00450289
0.00396176
-0.00434496
-0.00345408
0.00222601
0.00282309
0.00193691
0.00257532
-4.9292e-05
0.000116199
0.00107046
-7.80818e-05
-0.00187588
0.000935687
-0.000960945
0.00110573
0.00089927
-0.000227596
0.00120554
0.00055885
-0.000273156
0.000873584
0.000622971
-0.000252182
0.000556743
0.000586371
-0.000164039
0.000367198
0.000617338
0.000164507
0.000555701
-0.000404178
0.00212158
0.000593851
-0.000547925
0.00142404
0.000630822
-0.000505033
0.000862436
0.000644168
-0.000368983
0.000502358
0.000656389
0.000252694
0.000622468
-0.000965679
0.00391894
0.000103727
-0.00109347
0.00216373
0.000544452
-0.000861209
0.00109571
0.000553414
-0.000554966
0.000544906
0.000642657
0.000272783
0.000591269
-0.00259553
0.00596068
-0.00296209
-0.00217247
0.00256443
8.23601e-05
-0.00142788
0.000965453
0.000553304
-0.00087449
0.000399711
0.000633874
0.000227134
0.000635284
-0.00596141
-0.024492
0.00929372
0.0065285
0.011473
0.00916225
-0.00390595