/*--------------------------------*- C++ -*----------------------------------*\
| =========                 |                                                 |
| \\      /  F ield         | OpenFOAM: The Open Source CFD Toolbox           |
|  \\    /   O peration     | Version:  5.x                                   |
|   \\  /    A nd           | Web:      www.OpenFOAM.org                      |
|    \\/     M anipulation  |                                                 |
\*---------------------------------------------------------------------------*/
FoamFile
{
    version     2.0;
    format      ascii;
    class       surfaceScalarField;
    location    "0.04";
    object      phi;
}
// * * * * * * * * * * * * * * * * * * * * * * * * * * * * * * * * * * * * * //

dimensions      [0 3 -1 0 0 0 0];

internalField   nonuniform List<scalar> 
384
(
-9.97596e-14
-4.24527e-13
-9.97596e-14
6.76922e-15
-9.42681e-13
-1.63426e-13
1.1502e-13
-9.33597e-13
-1.5991e-13
-3.47929e-13
-1.35345e-13
-3.96626e-13
-1.76166e-13
-3.96626e-13
1.92846e-14
-1.14411e-12
-7.24207e-13
4.41906e-13
-1.14551e-12
-6.84093e-13
-6.2417e-14
-5.34483e-13
-9.79941e-13
3.75853e-13
-9.79941e-13
4.87989e-14
-1.6109e-12
-1.97409e-12
1.05479e-12
-1.609e-12
-1.8049e-12
5.74059e-13
-1.28261e-12
-1.99255e-12
1.57566e-12
-1.99255e-12
1.02636e-13
-2.33783e-12
-5.08622e-12
2.11099e-12
-2.3302e-12
-4.4227e-12
1.79076e-12
-2.6017e-12
-4.84201e-12
4.13273e-12
-4.84201e-12
2.22179e-13
-3.96816e-12
-1.36551e-11
5.09272e-12
-3.98285e-12
-1.13299e-11
4.55e-12
-6.32555e-12
-7.42932e-12
8.28361e-12
-7.42932e-12
6.84596e-13
-4.52747e-12
-3.25507e-11
7.45182e-12
-3.92293e-12
-2.51147e-11
8.44886e-12
-9.6851e-12
-1.83777e-11
1.53936e-11
-1.83777e-11
-5.02415e-13
-4.72682e-12
-9.87825e-11
1.96343e-11
-4.72392e-12
-7.60575e-11
1.59021e-11
-2.46401e-11
-2.81253e-11
2.75767e-11
-2.81253e-11
5.40545e-12
2.05784e-11
-2.71442e-10
2.58901e-11
2.15185e-11
-1.71854e-10
3.14316e-11
-3.41395e-11
-3.30026e-11
3.61304e-11
-3.30026e-11
-4.54063e-12
6.71983e-12
-3.42867e-10
4.2813e-11
4.69489e-11
-3.09892e-10
3.53881e-11
-4.32673e-11
2.44023e-11
2.44023e-11
-5.87205e-12
2.22705e-10
-1.80773e-11
1.29692e-10
2.71122e-11
-1.63426e-13
-9.42681e-13
6.76922e-15
4.78216e-15
-1.93702e-12
4.78216e-15
1.40067e-13
-1.83599e-12
-4.29813e-15
-1.03176e-12
-1.51133e-14
-7.24207e-13
-1.14411e-12
1.92846e-14
2.11093e-14
-3.42764e-12
2.11093e-14
5.96841e-13
-3.08812e-12
-7.68671e-15
-1.36333e-12
-4.42747e-14
-1.97409e-12
-1.6109e-12
4.87989e-14
1.24655e-13
-7.62513e-12
1.24655e-13
1.61214e-12
-6.39541e-12
1.49055e-14
-2.12505e-12
-7.91502e-14
-5.08622e-12
-2.33783e-12
1.02636e-13
4.3916e-13
-1.86759e-11
4.3916e-13
4.0503e-12
-1.46204e-11
1.91174e-13
-3.54855e-12
-1.53593e-14
-1.36551e-11
-3.96816e-12
2.22179e-13
1.76622e-12
-4.95185e-11
1.76622e-12
1.07358e-11
-3.53254e-11
4.0556e-13
-6.60171e-12
5.02719e-14
-3.25507e-11
-4.52747e-12
6.84596e-13
6.13393e-12
-1.26888e-10
6.13393e-12
2.51222e-11
-8.14543e-11
2.02595e-12
-8.88735e-12
9.44228e-13
-9.87825e-11
-4.72682e-12
-5.02415e-13
1.78976e-11
-3.60248e-10
1.78976e-11
7.96307e-11
-2.21843e-10
2.59844e-12
-1.00265e-11
3.08215e-12
-2.71442e-10
2.05784e-11
5.40545e-12
9.16194e-11
-1.08637e-09
9.16194e-11
2.08266e-10
-5.39013e-10
2.86682e-11
3.85507e-11
8.38347e-12
-3.42867e-10
6.71983e-12
-4.54063e-12
5.19767e-11
-1.87606e-09
5.19767e-11
3.14212e-10
-1.07452e-09
-3.66201e-11
6.60256e-11
6.98158e-12
2.22705e-10
-5.87205e-12
-8.6014e-11
-8.6014e-11
-1.68644e-10
-2.96968e-11
-6.43998e-12
-1.5991e-13
-9.33597e-13
1.1502e-13
-4.29813e-15
-1.83599e-12
1.40067e-13
1.38688e-13
-1.82821e-12
1.38688e-13
-9.80339e-13
7.38473e-14
-6.84093e-13
-1.14551e-12
4.41906e-13
-7.68671e-15
-3.08812e-12
5.96841e-13
6.03218e-13
-3.05002e-12
6.03218e-13
-1.17632e-12
2.98014e-13
-1.8049e-12
-1.609e-12
1.05479e-12
1.49055e-14
-6.39541e-12
1.61214e-12
1.61492e-12
-6.25005e-12
1.61492e-12
-1.60855e-12
7.40883e-13
-4.4227e-12
-2.3302e-12
2.11099e-12
1.91174e-13
-1.46204e-11
4.0503e-12
4.13002e-12
-1.41277e-11
4.13002e-12
-2.07277e-12
1.44699e-12
-1.13299e-11
-3.98285e-12
5.09272e-12
4.0556e-13
-3.53254e-11
1.07358e-11
1.04269e-11
-3.41704e-11
1.04269e-11
-3.46666e-12
3.94471e-12
-2.51147e-11
-3.92293e-12
7.45182e-12
2.02595e-12
-8.14543e-11
2.51222e-11
2.34719e-11
-7.70622e-11
2.34719e-11
-2.32564e-12
5.45146e-12
-7.60575e-11
-4.72392e-12
1.96343e-11
2.59844e-12
-2.21843e-10
7.96307e-11
7.41583e-11
-2.20182e-10
7.41583e-11
7.87572e-13
1.65376e-11
-1.71854e-10
2.15185e-11
2.58901e-11
2.86682e-11
-5.39013e-10
2.08266e-10
1.51653e-10
-4.66152e-10
1.51653e-10
3.3953e-11
2.31396e-11
-3.09892e-10
4.69489e-11
4.2813e-11
-3.66201e-11
-1.07452e-09
3.14212e-10
3.28634e-10
-1.19666e-09
3.28634e-10
2.25002e-11
3.20363e-11
1.29692e-10
-1.80773e-11
-2.96968e-11
-1.68644e-10
-1.07845e-10
-1.07845e-10
-2.04191e-11
-1.35345e-13
-3.47929e-13
-1.51133e-14
-1.03176e-12
7.38473e-14
-9.80339e-13
-5.76692e-13
-5.34483e-13
-6.2417e-14
-4.42747e-14
-1.36333e-12
2.98014e-13
-1.17632e-12
-4.4528e-13
-1.28261e-12
5.74059e-13
-7.91502e-14
-2.12505e-12
7.40883e-13
-1.60855e-12
-1.16764e-13
-2.6017e-12
1.79076e-12
-1.53593e-14
-3.54855e-12
1.44699e-12
-2.07277e-12
6.64665e-13
-6.32555e-12
4.55e-12
5.02719e-14
-6.60171e-12
3.94471e-12
-3.46666e-12
2.62679e-12
-9.6851e-12
8.44886e-12
9.44228e-13
-8.88735e-12
5.45146e-12
-2.32564e-12
6.34742e-12
-2.46401e-11
1.59021e-11
3.08215e-12
-1.00265e-11
1.65376e-11
7.87572e-13
1.48551e-11
-3.41395e-11
3.14316e-11
8.38347e-12
3.85507e-11
2.31396e-11
3.3953e-11
3.43028e-11
-4.32673e-11
3.53881e-11
6.98158e-12
6.60256e-11
3.20363e-11
2.25002e-11
4.25709e-11
2.71122e-11
-6.43998e-12
-2.04191e-11
)
;

boundaryField
{
    inlet
    {
        type            calculated;
        value           nonuniform 0();
    }
    outlet
    {
        type            calculated;
        value           nonuniform List<scalar> 
16
(
4.82484e-13
8.8245e-13
8.72977e-13
4.19792e-13
8.8245e-13
1.60061e-12
1.54509e-12
9.45962e-13
8.72977e-13
1.54509e-12
1.54224e-12
9.22027e-13
4.19792e-13
9.45962e-13
9.22027e-13
6.03784e-13
)
;
    }
    walls
    {
        type            calculated;
        value           nonuniform List<scalar> 
160
(
7.07818e-14
2.72444e-13
7.03934e-13
1.39265e-12
3.56348e-12
5.35388e-12
1.48227e-11
2.20337e-11
2.87257e-11
-2.00084e-11
1.17133e-13
5.09727e-13
1.41215e-12
3.71797e-12
1.02212e-11
2.49961e-11
8.11066e-11
2.12606e-10
3.28263e-10
-1.70395e-10
1.12283e-13
4.73385e-13
1.26241e-12
3.13556e-12
8.11197e-12
1.82876e-11
5.67218e-11
1.25127e-10
2.37108e-10
-9.43606e-11
9.24463e-14
3.6261e-13
8.95946e-13
1.86952e-12
4.67713e-12
7.36924e-12
2.02193e-11
2.62203e-11
4.1323e-11
-1.97026e-11
8.60583e-14
3.28268e-13
8.04987e-13
1.62648e-12
3.98191e-12
5.86884e-12
1.66018e-11
1.82797e-11
4.08009e-11
-1.05323e-11
1.05638e-13
4.38201e-13
1.1704e-12
2.88746e-12
7.41307e-12
1.67785e-11
5.30475e-11
1.17166e-10
2.36488e-10
-8.51514e-11
1.08041e-13
4.56914e-13
1.22711e-12
3.1319e-12
7.92634e-12
1.78236e-11
5.75896e-11
1.03732e-10
3.15032e-10
-6.1162e-11
6.03021e-14
2.32307e-13
5.76623e-13
1.05628e-12
2.96365e-12
3.59114e-12
1.22837e-11
1.34158e-11
2.79022e-11
-1.1745e-11
7.07818e-14
2.72444e-13
7.03934e-13
1.39265e-12
3.56348e-12
5.35388e-12
1.48227e-11
2.20337e-11
2.87257e-11
-2.00084e-11
1.17133e-13
5.09727e-13
1.41215e-12
3.71797e-12
1.02212e-11
2.49961e-11
8.11066e-11
2.12606e-10
3.28263e-10
-1.70395e-10
1.12283e-13
4.73385e-13
1.26241e-12
3.13556e-12
8.11197e-12
1.82876e-11
5.67218e-11
1.25127e-10
2.37108e-10
-9.43606e-11
9.24463e-14
3.6261e-13
8.95946e-13
1.86952e-12
4.67713e-12
7.36924e-12
2.02193e-11
2.62203e-11
4.1323e-11
-1.97026e-11
8.60583e-14
3.28268e-13
8.04987e-13
1.62648e-12
3.98191e-12
5.86884e-12
1.66018e-11
1.82797e-11
4.08009e-11
-1.05323e-11
1.05638e-13
4.38201e-13
1.1704e-12
2.88746e-12
7.41307e-12
1.67785e-11
5.30475e-11
1.17166e-10
2.36488e-10
-8.51514e-11
1.08041e-13
4.56914e-13
1.22711e-12
3.1319e-12
7.92634e-12
1.78236e-11
5.75896e-11
1.03732e-10
3.15032e-10
-6.1162e-11
6.03021e-14
2.32307e-13
5.76623e-13
1.05628e-12
2.96365e-12
3.59114e-12
1.22837e-11
1.34158e-11
2.79022e-11
-1.1745e-11
)
;
    }
    procBoundary0to1
    {
        type            processor;
        value           nonuniform List<scalar> 
16
(
2.73427e-11
-1.53158e-11
2.38226e-11
2.04334e-11
-1.53158e-11
-1.25862e-09
-8.32502e-10
1.60857e-11
2.38226e-11
-8.32502e-10
-1.04036e-09
-1.02032e-11
2.04334e-11
1.60857e-11
-1.02032e-11
2.52227e-11
)
;
    }
}


// ************************************************************************* //
