/*--------------------------------*- C++ -*----------------------------------*\
| =========                 |                                                 |
| \\      /  F ield         | OpenFOAM: The Open Source CFD Toolbox           |
|  \\    /   O peration     | Version:  5.x                                   |
|   \\  /    A nd           | Web:      www.OpenFOAM.org                      |
|    \\/     M anipulation  |                                                 |
\*---------------------------------------------------------------------------*/
FoamFile
{
    version     2.0;
    format      ascii;
    class       volVectorField;
    location    "0.04";
    object      U;
}
// * * * * * * * * * * * * * * * * * * * * * * * * * * * * * * * * * * * * * //

dimensions      [0 1 -1 0 0 0 0];

internalField   nonuniform List<vector> 
160
(
(-1.26118e-08 -7.519e-08 -1.26118e-08)
(-1.22863e-08 -1.40447e-07 -2.08575e-08)
(1.52019e-08 -1.39055e-07 -1.99325e-08)
(1.43403e-08 -6.57505e-08 -1.66555e-08)
(-4.87062e-08 -5.14981e-08 -4.87062e-08)
(-4.88679e-08 -1.66587e-07 -9.10339e-08)
(5.69913e-08 -1.64423e-07 -8.41238e-08)
(5.50277e-08 -4.02252e-08 -6.56581e-08)
(-1.22747e-07 2.82497e-08 -1.22747e-07)
(-1.21875e-07 -1.72869e-07 -2.51282e-07)
(1.38476e-07 -1.7401e-07 -2.22997e-07)
(1.33539e-07 4.64173e-08 -1.60083e-07)
(-2.44274e-07 8.13531e-08 -2.44274e-07)
(-2.49947e-07 -4.15432e-07 -6.56316e-07)
(2.75608e-07 -4.14618e-07 -5.48949e-07)
(2.69555e-07 1.19214e-07 -3.33624e-07)
(-6.10893e-07 4.7278e-07 -6.10893e-07)
(-6.16326e-07 -2.13979e-07 -1.79897e-06)
(6.72783e-07 -1.82051e-07 -1.41152e-06)
(6.58822e-07 5.22062e-07 -8.19629e-07)
(-9.26368e-07 7.20947e-07 -9.26368e-07)
(-9.17033e-07 -1.11603e-06 -4.39137e-06)
(1.02566e-06 -1.30189e-06 -3.17049e-06)
(9.67818e-07 7.70934e-07 -1.30693e-06)
(-2.41892e-06 1.8232e-06 -2.41892e-06)
(-2.64326e-06 -1.02716e-06 -1.38804e-05)
(2.56563e-06 -1.72736e-07 -9.63139e-06)
(2.69705e-06 1.89112e-06 -3.44229e-06)
(-3.79802e-06 3.00125e-06 -3.79802e-06)
(-2.97881e-06 5.49438e-07 -3.80663e-05)
(4.01547e-06 -6.24371e-07 -2.21198e-05)
(3.06216e-06 3.4609e-06 -4.70306e-06)
(-4.59781e-06 5.00462e-06 -4.59781e-06)
(-6.18951e-06 3.7693e-06 -5.32339e-05)
(5.27197e-06 6.00647e-06 -3.82872e-05)
(6.60586e-06 5.34937e-06 -6.73267e-06)
(3.48833e-06 5.54997e-06 3.48833e-06)
(2.15072e-06 -2.84787e-06 3.11392e-05)
(-3.19163e-06 5.5902e-06 1.71029e-05)
(-1.79968e-06 4.98796e-06 3.58716e-06)
(-2.08575e-08 -1.40447e-07 -1.22863e-08)
(-1.94385e-08 -2.585e-07 -1.94385e-08)
(1.91688e-08 -2.49091e-07 -2.00732e-08)
(1.7574e-08 -1.51999e-07 -1.66142e-08)
(-9.10339e-08 -1.66587e-07 -4.88679e-08)
(-8.41177e-08 -4.06683e-07 -8.41177e-08)
(8.19989e-08 -3.76618e-07 -8.43378e-08)
(7.33507e-08 -1.8878e-07 -6.29565e-08)
(-2.51282e-07 -1.72869e-07 -1.21875e-07)
(-2.21006e-07 -7.56177e-07 -2.21006e-07)
(2.28457e-07 -6.55736e-07 -2.19758e-07)
(1.96266e-07 -2.27583e-07 -1.48547e-07)
(-6.56316e-07 -4.15432e-07 -2.49947e-07)
(-5.55999e-07 -1.99995e-06 -5.55999e-07)
(5.99155e-07 -1.63497e-06 -5.37085e-07)
(4.84033e-07 -5.49123e-07 -2.80114e-07)
(-1.79897e-06 -2.13979e-07 -6.16326e-07)
(-1.41307e-06 -4.02149e-06 -1.41307e-06)
(1.65199e-06 -2.86774e-06 -1.36841e-06)
(1.25005e-06 -4.57056e-07 -6.95528e-07)
(-4.39137e-06 -1.11603e-06 -9.17033e-07)
(-3.17527e-06 -1.34732e-05 -3.17527e-06)
(4.13132e-06 -9.74759e-06 -2.97604e-06)
(2.82984e-06 -1.88745e-06 -9.43643e-07)
(-1.38804e-05 -1.02716e-06 -2.64326e-06)
(-9.85086e-06 -3.52593e-05 -9.85086e-06)
(1.30731e-05 -1.94831e-05 -9.53618e-06)
(8.87681e-06 -1.47324e-06 -2.56099e-06)
(-3.80663e-05 5.49438e-07 -2.97881e-06)
(-2.13426e-05 -4.88137e-05 -2.13426e-05)
(3.76725e-05 -3.47829e-05 -1.77728e-05)
(2.04751e-05 -3.79913e-09 -2.91085e-06)
(-5.32339e-05 3.7693e-06 -6.18951e-06)
(-4.01657e-05 -0.000310537 -4.01657e-05)
(5.25047e-05 -0.000143976 -4.99209e-05)
(3.81447e-05 9.5298e-06 -5.00923e-06)
(3.11392e-05 -2.84787e-06 2.15072e-06)
(1.57716e-05 -0.000315964 1.57716e-05)
(-3.09627e-05 -0.000223719 1.15627e-05)
(-1.53088e-05 6.6443e-06 2.34212e-06)
(-1.99325e-08 -1.39055e-07 1.52019e-08)
(-2.00732e-08 -2.49091e-07 1.91688e-08)
(1.7996e-08 -2.48464e-07 1.7996e-08)
(1.79199e-08 -1.4782e-07 1.01804e-08)
(-8.41238e-08 -1.64423e-07 5.69913e-08)
(-8.43378e-08 -3.76618e-07 8.19989e-08)
(7.80702e-08 -3.72343e-07 7.80702e-08)
(7.64082e-08 -1.75329e-07 4.21913e-08)
(-2.22997e-07 -1.7401e-07 1.38476e-07)
(-2.19758e-07 -6.55736e-07 2.28457e-07)
(2.11016e-07 -6.37337e-07 2.11016e-07)
(2.05666e-07 -1.71583e-07 1.08352e-07)
(-5.48949e-07 -4.14618e-07 2.75608e-07)
(-5.37085e-07 -1.63497e-06 5.99155e-07)
(5.51926e-07 -1.5889e-06 5.51926e-07)
(5.24787e-07 -4.28449e-07 2.35677e-07)
(-1.41152e-06 -1.82051e-07 6.72783e-07)
(-1.36841e-06 -2.86774e-06 1.65199e-06)
(1.39217e-06 -2.65036e-06 1.39217e-06)
(1.33266e-06 -1.28044e-07 6.24156e-07)
(-3.17049e-06 -1.30189e-06 1.02566e-06)
(-2.97604e-06 -9.74759e-06 4.13132e-06)
(3.26529e-06 -9.62269e-06 3.26529e-06)
(2.9847e-06 -1.09048e-06 1.00039e-06)
(-9.63139e-06 -1.72736e-07 2.56563e-06)
(-9.53618e-06 -1.94831e-05 1.30731e-05)
(9.90183e-06 -1.51504e-05 9.90183e-06)
(9.63056e-06 -3.56673e-09 2.94628e-06)
(-2.21198e-05 -6.24371e-07 4.01547e-06)
(-1.77728e-05 -3.47829e-05 3.76725e-05)
(2.25644e-05 -4.47792e-05 2.25644e-05)
(1.78165e-05 9.73035e-07 4.23091e-06)
(-3.82872e-05 6.00647e-06 5.27197e-06)
(-4.99209e-05 -0.000143976 5.25047e-05)
(4.05036e-05 -0.000100027 4.05036e-05)
(5.08797e-05 7.4063e-06 6.42441e-06)
(1.71029e-05 5.5902e-06 -3.19163e-06)
(1.15627e-05 -0.000223719 -3.09627e-05)
(-1.67233e-05 -0.00030162 -1.67233e-05)
(-1.09625e-05 -2.42316e-06 -3.35693e-06)
(-1.66555e-08 -6.57505e-08 1.43403e-08)
(-1.66142e-08 -1.51999e-07 1.7574e-08)
(1.01804e-08 -1.4782e-07 1.79199e-08)
(9.62623e-09 -9.65903e-08 9.62623e-09)
(-6.56581e-08 -4.02252e-08 5.50277e-08)
(-6.29565e-08 -1.8878e-07 7.33507e-08)
(4.21913e-08 -1.75329e-07 7.64082e-08)
(3.74129e-08 -8.70091e-08 3.74129e-08)
(-1.60083e-07 4.64173e-08 1.33539e-07)
(-1.48547e-07 -2.27583e-07 1.96266e-07)
(1.08352e-07 -1.71583e-07 2.05666e-07)
(9.29988e-08 -3.26682e-08 9.29988e-08)
(-3.33624e-07 1.19214e-07 2.69555e-07)
(-2.80114e-07 -5.49123e-07 4.84033e-07)
(2.35677e-07 -4.28449e-07 5.24787e-07)
(1.70867e-07 -3.14625e-08 1.70867e-07)
(-8.19629e-07 5.22062e-07 6.58822e-07)
(-6.95528e-07 -4.57056e-07 1.25005e-06)
(6.24156e-07 -1.28044e-07 1.33266e-06)
(4.82286e-07 2.94535e-07 4.82286e-07)
(-1.30693e-06 7.70934e-07 9.67818e-07)
(-9.43643e-07 -1.88745e-06 2.82984e-06)
(1.00039e-06 -1.09048e-06 2.9847e-06)
(5.91901e-07 4.30544e-07 5.91901e-07)
(-3.44229e-06 1.89112e-06 2.69705e-06)
(-2.56099e-06 -1.47324e-06 8.87681e-06)
(2.94628e-06 -3.56673e-09 9.63056e-06)
(1.97885e-06 1.68044e-06 1.97885e-06)
(-4.70306e-06 3.4609e-06 3.06216e-06)
(-2.91085e-06 -3.79913e-09 2.04751e-05)
(4.23091e-06 9.73035e-07 1.78165e-05)
(2.32599e-06 3.5476e-06 2.32599e-06)
(-6.73267e-06 5.34937e-06 6.60586e-06)
(-5.00923e-06 9.5298e-06 3.81447e-05)
(6.42441e-06 7.4063e-06 5.08797e-05)
(4.45083e-06 6.1691e-06 4.45083e-06)
(3.58716e-06 4.98796e-06 -1.79968e-06)
(2.34212e-06 6.6443e-06 -1.53088e-05)
(-3.35693e-06 -2.42316e-06 -1.09625e-05)
(-2.07605e-06 5.90532e-06 -2.07605e-06)
)
;

boundaryField
{
    inlet
    {
        type            fixedValue;
        value           nonuniform 0();
    }
    outlet
    {
        type            zeroGradient;
    }
    walls
    {
        type            fixedValue;
        value           uniform (0 0 0);
    }
    procBoundary0to1
    {
        type            processor;
        value           nonuniform List<vector> 
16
(
(5.66878e-06 2.65636e-06 5.66878e-06)
(7.09897e-06 -6.29334e-07 6.03117e-05)
(-6.10318e-06 1.32643e-06 4.29378e-05)
(-7.26596e-06 2.11462e-06 8.16132e-06)
(6.03117e-05 -6.29334e-07 7.09897e-06)
(4.47063e-05 -4.18846e-05 4.47063e-05)
(-5.90195e-05 -2.35408e-05 5.34435e-05)
(-4.20195e-05 -7.45127e-08 5.92401e-06)
(4.29378e-05 1.32643e-06 -6.10318e-06)
(5.34435e-05 -2.35408e-05 -5.90195e-05)
(-4.49639e-05 -2.19565e-05 -4.49639e-05)
(-5.40814e-05 1.42337e-07 -7.59774e-06)
(8.16132e-06 2.11462e-06 -7.26596e-06)
(5.92401e-06 -7.45127e-08 -4.20195e-05)
(-7.59774e-06 1.42337e-07 -5.40814e-05)
(-5.10412e-06 2.33977e-06 -5.10412e-06)
)
;
    }
}


// ************************************************************************* //
