/*--------------------------------*- C++ -*----------------------------------*\
| =========                 |                                                 |
| \\      /  F ield         | OpenFOAM: The Open Source CFD Toolbox           |
|  \\    /   O peration     | Version:  5.x                                   |
|   \\  /    A nd           | Web:      www.OpenFOAM.org                      |
|    \\/     M anipulation  |                                                 |
\*---------------------------------------------------------------------------*/
FoamFile
{
    version     2.0;
    format      ascii;
    class       volVectorField;
    location    "0.04";
    object      Us;
}
// * * * * * * * * * * * * * * * * * * * * * * * * * * * * * * * * * * * * * //

dimensions      [0 1 -1 0 0 0 0];

internalField   nonuniform List<vector> 
160
(
(-3.9982e-22 -2.52628e-18 -3.9982e-22)
(-2.94654e-21 -1.86178e-17 -2.94654e-21)
(-2.94361e-21 -1.85993e-17 -2.94361e-21)
(-3.8363e-22 -2.42398e-18 -3.8363e-22)
(-2.30716e-20 -1.45779e-16 -2.30716e-20)
(-1.88995e-19 -1.19417e-15 -1.88995e-19)
(-1.88866e-19 -1.19336e-15 -1.88866e-19)
(-2.22991e-20 -1.40898e-16 -2.22991e-20)
(-1.3161e-18 -8.3158e-15 -1.3161e-18)
(-1.21168e-17 -7.65602e-14 -1.21168e-17)
(-1.21114e-17 -7.65262e-14 -1.21114e-17)
(-1.28089e-18 -8.09333e-15 -1.28089e-18)
(-7.24034e-17 -4.57484e-13 -7.24034e-17)
(-7.61154e-16 -4.80938e-12 -7.61154e-16)
(-7.6095e-16 -4.80809e-12 -7.6095e-16)
(-7.09355e-17 -4.48209e-13 -7.09355e-17)
(-3.79401e-15 -2.39726e-11 -3.79401e-15)
(-4.64975e-14 -2.93796e-10 -4.64975e-14)
(-4.64908e-14 -2.93754e-10 -4.64908e-14)
(-3.7404e-15 -2.36338e-11 -3.7404e-15)
(-1.85582e-13 -1.1726e-09 -1.85582e-13)
(-2.7275e-12 -1.72338e-08 -2.7275e-12)
(-2.72732e-12 -1.72327e-08 -2.72732e-12)
(-1.84011e-13 -1.16268e-09 -1.84011e-13)
(-8.17115e-12 -5.16297e-08 -8.17115e-12)
(-1.50031e-10 -9.47979e-07 -1.50031e-10)
(-1.50028e-10 -9.47959e-07 -1.50028e-10)
(-8.14208e-12 -5.1446e-08 -8.14208e-12)
(-2.99877e-10 -1.89479e-06 -2.99877e-10)
(-7.33782e-09 -4.63643e-05 -7.33782e-09)
(-7.33779e-09 -4.63641e-05 -7.33779e-09)
(-2.99856e-10 -1.89465e-06 -2.99856e-10)
(-7.34054e-09 -4.63815e-05 -7.34054e-09)
(-2.69261e-07 -0.00170134 -2.69261e-07)
(-2.69261e-07 -0.00170134 -2.69261e-07)
(-7.34052e-09 -4.63814e-05 -7.34052e-09)
(-2.99672e-10 -1.89349e-06 -2.99672e-10)
(-7.33508e-09 -4.6347e-05 -7.33508e-09)
(-7.3351e-09 -4.63471e-05 -7.3351e-09)
(-2.997e-10 -1.89366e-06 -2.997e-10)
(-2.94654e-21 -1.86178e-17 -2.94654e-21)
(-2.40721e-20 -1.52101e-16 -2.40721e-20)
(-2.40403e-20 -1.51899e-16 -2.40403e-20)
(-2.83005e-21 -1.78818e-17 -2.83005e-21)
(-1.88995e-19 -1.19417e-15 -1.88995e-19)
(-1.73815e-18 -1.09825e-14 -1.73815e-18)
(-1.73663e-18 -1.0973e-14 -1.73663e-18)
(-1.83086e-19 -1.15683e-15 -1.83086e-19)
(-1.21168e-17 -7.65602e-14 -1.21168e-17)
(-1.27262e-16 -8.04112e-13 -1.27262e-16)
(-1.27194e-16 -8.0368e-13 -1.27194e-16)
(-1.18317e-17 -7.47588e-14 -1.18317e-17)
(-7.61154e-16 -4.80938e-12 -7.61154e-16)
(-9.32107e-15 -5.88955e-11 -9.32107e-15)
(-9.31829e-15 -5.8878e-11 -9.31829e-15)
(-7.48734e-16 -4.73091e-12 -7.48734e-16)
(-4.64975e-14 -2.93796e-10 -4.64975e-14)
(-6.82945e-13 -4.31522e-09 -6.82945e-13)
(-6.82849e-13 -4.31461e-09 -6.82849e-13)
(-4.60425e-14 -2.90921e-10 -4.60425e-14)
(-2.7275e-12 -1.72338e-08 -2.7275e-12)
(-5.00568e-11 -3.16286e-07 -5.00568e-11)
(-5.00542e-11 -3.1627e-07 -5.00542e-11)
(-2.71597e-12 -1.7161e-08 -2.71597e-12)
(-1.50031e-10 -9.47979e-07 -1.50031e-10)
(-3.67027e-09 -2.31907e-05 -3.67027e-09)
(-3.67023e-09 -2.31905e-05 -3.67023e-09)
(-1.49985e-10 -9.47686e-07 -1.49985e-10)
(-7.33782e-09 -4.63643e-05 -7.33782e-09)
(-2.69211e-07 -0.00170102 -2.69211e-07)
(-2.69211e-07 -0.00170102 -2.69211e-07)
(-7.33782e-09 -4.63643e-05 -7.33782e-09)
(-2.69261e-07 -0.00170134 -2.69261e-07)
(-1.97528e-05 -0.124809 -1.97528e-05)
(-1.97528e-05 -0.124809 -1.97528e-05)
(-2.69261e-07 -0.00170134 -2.69261e-07)
(-7.33508e-09 -4.6347e-05 -7.33508e-09)
(-2.69161e-07 -0.00170071 -2.69161e-07)
(-2.69161e-07 -0.00170071 -2.69161e-07)
(-7.33511e-09 -4.63472e-05 -7.33511e-09)
(-2.94361e-21 -1.85993e-17 -2.94361e-21)
(-2.40403e-20 -1.51899e-16 -2.40403e-20)
(-2.38736e-20 -1.50846e-16 -2.38736e-20)
(-2.67767e-21 -1.69189e-17 -2.67767e-21)
(-1.88866e-19 -1.19336e-15 -1.88866e-19)
(-1.73663e-18 -1.0973e-14 -1.73663e-18)
(-1.72796e-18 -1.09182e-14 -1.72796e-18)
(-1.75091e-19 -1.10632e-15 -1.75091e-19)
(-1.21114e-17 -7.65262e-14 -1.21114e-17)
(-1.27194e-16 -8.0368e-13 -1.27194e-16)
(-1.26766e-16 -8.00978e-13 -1.26766e-16)
(-1.14338e-17 -7.22451e-14 -1.14338e-17)
(-7.6095e-16 -4.80809e-12 -7.6095e-16)
(-9.31829e-15 -5.8878e-11 -9.31829e-15)
(-9.29931e-15 -5.87581e-11 -9.29931e-15)
(-7.30947e-16 -4.61852e-12 -7.30947e-16)
(-4.64908e-14 -2.93754e-10 -4.64908e-14)
(-6.82849e-13 -4.31461e-09 -6.82849e-13)
(-6.82147e-13 -4.31017e-09 -6.82147e-13)
(-4.53827e-14 -2.86752e-10 -4.53827e-14)
(-2.72732e-12 -1.72327e-08 -2.72732e-12)
(-5.00542e-11 -3.1627e-07 -5.00542e-11)
(-5.00369e-11 -3.16161e-07 -5.00369e-11)
(-2.69995e-12 -1.70597e-08 -2.69995e-12)
(-1.50028e-10 -9.47959e-07 -1.50028e-10)
(-3.67023e-09 -2.31905e-05 -3.67023e-09)
(-3.67024e-09 -2.31905e-05 -3.67024e-09)
(-1.50018e-10 -9.47895e-07 -1.50018e-10)
(-7.33779e-09 -4.63641e-05 -7.33779e-09)
(-2.69211e-07 -0.00170102 -2.69211e-07)
(-2.69211e-07 -0.00170102 -2.69211e-07)
(-7.33782e-09 -4.63643e-05 -7.33782e-09)
(-2.69261e-07 -0.00170134 -2.69261e-07)
(-1.97528e-05 -0.124809 -1.97528e-05)
(-1.97528e-05 -0.124809 -1.97528e-05)
(-2.69261e-07 -0.00170134 -2.69261e-07)
(-7.3351e-09 -4.63471e-05 -7.3351e-09)
(-2.69161e-07 -0.00170071 -2.69161e-07)
(-2.69161e-07 -0.00170071 -2.69161e-07)
(-7.33509e-09 -4.63471e-05 -7.33509e-09)
(-3.8363e-22 -2.42398e-18 -3.8363e-22)
(-2.83005e-21 -1.78818e-17 -2.83005e-21)
(-2.67767e-21 -1.69189e-17 -2.67767e-21)
(-2.02201e-22 -1.27761e-18 -2.02201e-22)
(-2.22991e-20 -1.40898e-16 -2.22991e-20)
(-1.83086e-19 -1.15683e-15 -1.83086e-19)
(-1.75091e-19 -1.10632e-15 -1.75091e-19)
(-1.28901e-20 -8.14468e-17 -1.28901e-20)
(-1.28089e-18 -8.09333e-15 -1.28089e-18)
(-1.18317e-17 -7.47588e-14 -1.18317e-17)
(-1.14338e-17 -7.22451e-14 -1.14338e-17)
(-8.17611e-19 -5.16611e-15 -8.17611e-19)
(-7.09355e-17 -4.48209e-13 -7.09355e-17)
(-7.48734e-16 -4.73091e-12 -7.48734e-16)
(-7.30947e-16 -4.61852e-12 -7.30947e-16)
(-5.0416e-17 -3.18555e-13 -5.0416e-17)
(-3.7404e-15 -2.36338e-11 -3.7404e-15)
(-4.60425e-14 -2.90921e-10 -4.60425e-14)
(-4.53827e-14 -2.86752e-10 -4.53827e-14)
(-2.98393e-15 -1.88541e-11 -2.98393e-15)
(-1.84011e-13 -1.16268e-09 -1.84011e-13)
(-2.71597e-12 -1.7161e-08 -2.71597e-12)
(-2.69995e-12 -1.70597e-08 -2.69995e-12)
(-1.65507e-13 -1.04576e-09 -1.65507e-13)
(-8.14208e-12 -5.1446e-08 -8.14208e-12)
(-1.49985e-10 -9.47686e-07 -1.49985e-10)
(-1.50018e-10 -9.47895e-07 -1.50018e-10)
(-8.15187e-12 -5.15079e-08 -8.15187e-12)
(-2.99856e-10 -1.89465e-06 -2.99856e-10)
(-7.33782e-09 -4.63643e-05 -7.33782e-09)
(-7.33782e-09 -4.63643e-05 -7.33782e-09)
(-2.99894e-10 -1.89489e-06 -2.99894e-10)
(-7.34052e-09 -4.63814e-05 -7.34052e-09)
(-2.69261e-07 -0.00170134 -2.69261e-07)
(-2.69261e-07 -0.00170134 -2.69261e-07)
(-7.34054e-09 -4.63815e-05 -7.34054e-09)
(-2.997e-10 -1.89366e-06 -2.997e-10)
(-7.33511e-09 -4.63472e-05 -7.33511e-09)
(-7.33509e-09 -4.63471e-05 -7.33509e-09)
(-2.99692e-10 -1.89362e-06 -2.99692e-10)
)
;

boundaryField
{
    inlet
    {
        type            zeroGradient;
    }
    outlet
    {
        type            zeroGradient;
    }
    walls
    {
        type            zeroGradient;
    }
    procBoundary0to1
    {
        type            processor;
        value           nonuniform List<vector> 
16
(
(-6.76543e-12 -4.27476e-08 -6.76543e-12)
(-1.49215e-10 -9.42823e-07 -1.49215e-10)
(-1.48565e-10 -9.38711e-07 -1.48565e-10)
(-6.06891e-12 -3.83466e-08 -6.06891e-12)
(-1.49215e-10 -9.42823e-07 -1.49215e-10)
(-3.67003e-09 -2.31892e-05 -3.67003e-09)
(-3.66885e-09 -2.31818e-05 -3.66885e-09)
(-1.47974e-10 -9.34978e-07 -1.47974e-10)
(-1.48565e-10 -9.38711e-07 -1.48565e-10)
(-3.66885e-09 -2.31818e-05 -3.66885e-09)
(-3.67006e-09 -2.31894e-05 -3.67006e-09)
(-1.49891e-10 -9.47093e-07 -1.49891e-10)
(-6.06891e-12 -3.83466e-08 -6.06891e-12)
(-1.47974e-10 -9.34978e-07 -1.47974e-10)
(-1.49891e-10 -9.47093e-07 -1.49891e-10)
(-8.16225e-12 -5.15735e-08 -8.16225e-12)
)
;
    }
}


// ************************************************************************* //
