/*--------------------------------*- C++ -*----------------------------------*\
| =========                 |                                                 |
| \\      /  F ield         | OpenFOAM: The Open Source CFD Toolbox           |
|  \\    /   O peration     | Version:  5.x                                   |
|   \\  /    A nd           | Web:      www.OpenFOAM.org                      |
|    \\/     M anipulation  |                                                 |
\*---------------------------------------------------------------------------*/
FoamFile
{
    version     2.0;
    format      ascii;
    class       volScalarField;
    location    "0.15";
    object      Ksl;
}
// * * * * * * * * * * * * * * * * * * * * * * * * * * * * * * * * * * * * * //

dimensions      [1 -3 -1 0 0 0 0];

internalField   nonuniform List<scalar> 
320
(
0.0173896
0.482277
0.169645
0.00749964
0.293322
2.89634
1.23163
0.146066
1.67382
3.12596
1.50334
0.821673
0.0783961
1.10771
0.583341
0.0401919
0.00181123
0.0357452
0.0169001
0.000885611
3.71687e-05
0.000765701
0.000337133
1.98404e-05
7.1843e-07
1.60159e-05
6.40762e-06
4.27349e-07
0
0
0
0
0
0
0
0
0
0
0
0
0
0
0
0
0
0
0
0
0
0
0
0
0
0
0
0
0
0
0
0
0
0
0
0
0
0
0
0
0
0
0
0
0
0
0
0
0
0
0
0
0.482277
8.02606
2.574
0.381302
2.89634
3.30171
1.55521
1.38983
3.12596
3.1968
1.51169
1.48044
1.10771
4.73901
1.77288
0.575601
0.0357452
0.1659
0.216264
0.0145581
0.000765701
0.00213585
0.00257297
0.000289571
1.60159e-05
3.10632e-05
3.66408e-05
5.6039e-06
0
4.8114e-07
5.42809e-07
0
0
0
0
0
0
0
0
0
0
0
0
0
0
0
0
0
0
0
0
0
0
0
0
0
0
0
0
0
0
0
0
0
0
0
0
0
0
0
0
0
0
0
0
0
0
0
0
0
0.169645
2.574
1.04861
0.102702
1.23163
1.55521
1.03081
0.800062
1.50334
1.51169
1.01046
0.996412
0.583341
1.77288
1.11113
0.396048
0.0169001
0.216264
0.321652
0.0105544
0.000337133
0.00257297
0.00332341
0.00020283
6.40762e-06
3.66408e-05
4.77244e-05
3.72598e-06
0
5.42809e-07
6.41887e-07
0
0
0
0
0
0
0
0
0
0
0
0
0
0
0
0
0
0
0
0
0
0
0
0
0
0
0
0
0
0
0
0
0
0
0
0
0
0
0
0
0
0
0
0
0
0
0
0
0
0.00749964
0.381302
0.102702
0.00456564
0.146066
1.38983
0.800062
0.0957717
0.821673
1.48044
0.996412
0.555933
0.0401919
0.575601
0.396048
0.0279027
0.000885611
0.0145581
0.0105544
0.00060788
1.98404e-05
0.000289571
0.00020283
1.34768e-05
4.27349e-07
5.6039e-06
3.72598e-06
0
0
0
0
0
0
0
0
0
0
0
0
0
0
0
0
0
0
0
0
0
0
0
0
0
0
0
0
0
0
0
0
0
0
0
0
0
0
0
0
0
0
0
0
0
0
0
0
0
0
0
0
0
)
;

boundaryField
{
    inlet
    {
        type            zeroGradient;
    }
    outlet
    {
        type            zeroGradient;
    }
    walls
    {
        type            zeroGradient;
    }
}


// ************************************************************************* //
