/*--------------------------------*- C++ -*----------------------------------*\
| =========                 |                                                 |
| \\      /  F ield         | OpenFOAM: The Open Source CFD Toolbox           |
|  \\    /   O peration     | Version:  5.x                                   |
|   \\  /    A nd           | Web:      www.OpenFOAM.org                      |
|    \\/     M anipulation  |                                                 |
\*---------------------------------------------------------------------------*/
FoamFile
{
    version     2.0;
    format      ascii;
    class       volScalarField;
    location    "0.15";
    object      p;
}
// * * * * * * * * * * * * * * * * * * * * * * * * * * * * * * * * * * * * * //

dimensions      [0 2 -2 0 0 0 0];

internalField   nonuniform List<scalar> 
320
(
-5.7324e-07
5.3872e-07
-2.15689e-07
-7.3649e-07
-3.15111e-06
-4.15137e-07
-2.10812e-06
-3.41294e-06
-8.87809e-06
-6.92111e-06
-8.27158e-06
-8.35002e-06
-1.56343e-05
-1.77755e-05
-1.63767e-05
-1.4319e-05
-1.78951e-05
-2.00163e-05
-1.8186e-05
-1.72373e-05
-1.84963e-05
-1.92766e-05
-1.84817e-05
-1.83483e-05
-1.89789e-05
-1.94195e-05
-1.89582e-05
-1.90072e-05
-1.95925e-05
-1.99635e-05
-1.96248e-05
-1.9653e-05
-2.01183e-05
-2.04522e-05
-2.01729e-05
-2.01916e-05
-2.05697e-05
-2.08686e-05
-2.06708e-05
-2.06411e-05
-2.08424e-05
-2.10531e-05
-2.09483e-05
-2.09e-05
-2.09239e-05
-2.10301e-05
-2.09699e-05
-2.09654e-05
-2.10197e-05
-2.10818e-05
-2.10514e-05
-2.1045e-05
-2.10167e-05
-2.10434e-05
-2.10277e-05
-2.10321e-05
-2.10676e-05
-2.10851e-05
-2.1076e-05
-2.10762e-05
-2.10449e-05
-2.10513e-05
-2.10471e-05
-2.10495e-05
-2.10761e-05
-2.10809e-05
-2.10784e-05
-2.10787e-05
-2.1057e-05
-2.10587e-05
-2.10577e-05
-2.10585e-05
-2.10734e-05
-2.1075e-05
-2.10744e-05
-2.10745e-05
-2.10637e-05
-2.10656e-05
-2.10651e-05
-2.10645e-05
5.3872e-07
3.21624e-06
1.43419e-06
1.3675e-07
-4.15137e-07
1.26772e-05
5.10182e-06
-1.34265e-06
-6.92111e-06
1.53698e-06
-4.69379e-06
-6.44955e-06
-1.77755e-05
-2.85347e-05
-2.27052e-05
-1.54321e-05
-2.00163e-05
-2.73321e-05
-2.25055e-05
-1.92452e-05
-1.92766e-05
-2.10238e-05
-1.93361e-05
-1.93006e-05
-1.94195e-05
-2.04388e-05
-1.94808e-05
-1.95069e-05
-1.99635e-05
-2.04945e-05
-1.99379e-05
-2.00161e-05
-2.04522e-05
-2.07508e-05
-2.03815e-05
-2.0501e-05
-2.08686e-05
-2.10372e-05
-2.07965e-05
-2.09153e-05
-2.10531e-05
-2.1149e-05
-2.10135e-05
-2.10984e-05
-2.10301e-05
-2.11254e-05
-2.10382e-05
-2.10735e-05
-2.10818e-05
-2.11226e-05
-2.10853e-05
-2.11036e-05
-2.10434e-05
-2.10746e-05
-2.10492e-05
-2.10609e-05
-2.10851e-05
-2.10973e-05
-2.10874e-05
-2.10927e-05
-2.10513e-05
-2.10597e-05
-2.1053e-05
-2.10559e-05
-2.10809e-05
-2.10842e-05
-2.10817e-05
-2.10832e-05
-2.10587e-05
-2.10611e-05
-2.10594e-05
-2.10603e-05
-2.1075e-05
-2.10763e-05
-2.10758e-05
-2.10765e-05
-2.10656e-05
-2.10679e-05
-2.10673e-05
-2.10664e-05
-2.15689e-07
1.43419e-06
6.84277e-07
-4.10022e-07
-2.10812e-06
5.10182e-06
2.1288e-06
-2.39289e-06
-8.27158e-06
-4.69379e-06
-6.58061e-06
-7.75893e-06
-1.63767e-05
-2.27052e-05
-2.03419e-05
-1.50293e-05
-1.8186e-05
-2.25055e-05
-2.06788e-05
-1.78203e-05
-1.84817e-05
-1.93361e-05
-1.85413e-05
-1.84959e-05
-1.89582e-05
-1.94808e-05
-1.90129e-05
-1.90295e-05
-1.96248e-05
-1.99379e-05
-1.96421e-05
-1.96759e-05
-2.01729e-05
-2.03815e-05
-2.01657e-05
-2.0218e-05
-2.06708e-05
-2.07965e-05
-2.06627e-05
-2.07137e-05
-2.09483e-05
-2.10135e-05
-2.09501e-05
-2.09886e-05
-2.09699e-05
-2.10382e-05
-2.09746e-05
-2.10007e-05
-2.10514e-05
-2.10853e-05
-2.10652e-05
-2.10695e-05
-2.10277e-05
-2.10492e-05
-2.10305e-05
-2.10398e-05
-2.1076e-05
-2.10874e-05
-2.10821e-05
-2.10827e-05
-2.10471e-05
-2.1053e-05
-2.10474e-05
-2.1051e-05
-2.10784e-05
-2.10817e-05
-2.10806e-05
-2.10807e-05
-2.10577e-05
-2.10594e-05
-2.10577e-05
-2.10589e-05
-2.10744e-05
-2.10758e-05
-2.10754e-05
-2.10754e-05
-2.10651e-05
-2.10673e-05
-2.10668e-05
-2.10657e-05
-7.3649e-07
1.3675e-07
-4.10022e-07
-8.26695e-07
-3.41294e-06
-1.34265e-06
-2.39289e-06
-3.51728e-06
-8.35002e-06
-6.44955e-06
-7.75893e-06
-8.06715e-06
-1.4319e-05
-1.54321e-05
-1.50293e-05
-1.36607e-05
-1.72373e-05
-1.92452e-05
-1.78203e-05
-1.6914e-05
-1.83483e-05
-1.93006e-05
-1.84959e-05
-1.82642e-05
-1.90072e-05
-1.95069e-05
-1.90295e-05
-1.90275e-05
-1.9653e-05
-2.00161e-05
-1.96759e-05
-1.96957e-05
-2.01916e-05
-2.0501e-05
-2.0218e-05
-2.02455e-05
-2.06411e-05
-2.09153e-05
-2.07137e-05
-2.06909e-05
-2.09e-05
-2.10984e-05
-2.09886e-05
-2.09398e-05
-2.09654e-05
-2.10735e-05
-2.10007e-05
-2.09952e-05
-2.1045e-05
-2.11036e-05
-2.10695e-05
-2.10626e-05
-2.10321e-05
-2.10609e-05
-2.10398e-05
-2.1044e-05
-2.10762e-05
-2.10927e-05
-2.10827e-05
-2.10831e-05
-2.10495e-05
-2.10559e-05
-2.1051e-05
-2.10534e-05
-2.10787e-05
-2.10832e-05
-2.10807e-05
-2.10814e-05
-2.10585e-05
-2.10603e-05
-2.10589e-05
-2.10594e-05
-2.10745e-05
-2.10765e-05
-2.10754e-05
-2.10755e-05
-2.10645e-05
-2.10664e-05
-2.10657e-05
-2.10648e-05
)
;

boundaryField
{
    inlet
    {
        type            zeroGradient;
    }
    outlet
    {
        type            totalPressure;
        rho             rho;
        psi             none;
        gamma           1;
        p0              uniform 0;
        value           nonuniform List<scalar> 
16
(
-4.69698e-11
0
-3.54924e-11
-6.04736e-11
0
0
0
-6.37988e-12
-3.54924e-11
0
0
-4.47035e-11
-6.04736e-11
-6.37988e-12
-4.47035e-11
-7.53938e-11
)
;
    }
    walls
    {
        type            zeroGradient;
    }
}


// ************************************************************************* //
