/*--------------------------------*- C++ -*----------------------------------*\
| =========                 |                                                 |
| \\      /  F ield         | OpenFOAM: The Open Source CFD Toolbox           |
|  \\    /   O peration     | Version:  5.x                                   |
|   \\  /    A nd           | Web:      www.OpenFOAM.org                      |
|    \\/     M anipulation  |                                                 |
\*---------------------------------------------------------------------------*/
FoamFile
{
    version     2.0;
    format      ascii;
    class       surfaceScalarField;
    location    "0.15";
    object      phi;
}
// * * * * * * * * * * * * * * * * * * * * * * * * * * * * * * * * * * * * * //

dimensions      [0 3 -1 0 0 0 0];

internalField   nonuniform List<scalar> 
784
(
-1.62363e-11
8.51001e-11
-1.62363e-11
1.33489e-11
-7.15437e-12
-3.97897e-11
1.55577e-11
6.19662e-11
-2.81648e-11
9.45727e-11
-1.41194e-11
-4.37964e-11
1.72693e-10
-4.37964e-11
3.26289e-11
7.56477e-11
-1.59227e-10
4.41622e-11
1.43108e-10
-9.26753e-11
1.76367e-10
-3.76319e-11
-1.03449e-10
3.79591e-10
-1.03449e-10
6.91216e-11
3.36445e-10
-4.33369e-10
1.02171e-10
3.71804e-10
-2.61745e-10
3.69235e-10
-9.06979e-11
-7.99892e-11
5.3957e-10
-7.99892e-11
5.46605e-11
4.97735e-10
-2.95939e-10
8.95338e-11
5.25432e-10
-1.88502e-10
5.35358e-10
-7.65886e-11
-1.62759e-11
5.72122e-10
-1.62759e-11
1.47414e-11
4.41827e-10
2.48909e-11
2.859e-11
5.20641e-10
-9.0572e-12
5.79279e-10
-1.53312e-11
1.68193e-11
5.38483e-10
1.68193e-11
-5.17638e-12
3.48945e-10
1.14878e-10
-9.18681e-12
4.72042e-10
5.2609e-11
5.56773e-10
1.33191e-11
2.27952e-11
4.92893e-10
2.27952e-11
-2.10007e-11
2.82249e-10
1.10492e-10
-1.99663e-11
4.21193e-10
4.98147e-11
5.17411e-10
1.93963e-11
3.37512e-11
4.2539e-10
3.37512e-11
-3.20262e-11
2.2629e-10
1.21736e-10
-3.51589e-11
3.62322e-10
6.20046e-11
4.53129e-10
2.91223e-11
4.01351e-11
3.4512e-10
4.01351e-11
-5.75541e-11
1.81965e-10
1.42014e-10
-5.36055e-11
3.06424e-10
5.19493e-11
3.68971e-10
3.05524e-11
6.59457e-11
2.13228e-10
6.59457e-11
-5.54175e-11
1.00161e-10
2.03168e-10
-8.15007e-11
1.88896e-10
1.43611e-10
2.28002e-10
5.94682e-11
5.93179e-11
9.45927e-11
5.93179e-11
-2.71652e-11
2.43948e-11
1.62249e-10
-6.68979e-11
7.16254e-11
1.57003e-10
1.01856e-10
5.92487e-11
2.34252e-11
4.77423e-11
2.34252e-11
-1.60023e-11
6.09218e-12
5.77301e-11
-2.75223e-11
3.06691e-11
5.24764e-11
5.12033e-11
2.31303e-11
1.46275e-11
1.84874e-11
1.46275e-11
-7.22351e-12
-3.74317e-14
2.79806e-11
-1.63258e-11
1.15658e-11
2.82055e-11
2.03109e-11
1.45667e-11
4.56185e-12
9.36369e-12
4.56185e-12
-3.74761e-12
-1.2815e-12
9.55354e-12
-5.51623e-12
4.82801e-12
8.50641e-12
1.02875e-11
4.50714e-12
3.0528e-12
3.25809e-12
3.0528e-12
-1.80401e-12
-7.44825e-13
4.32014e-12
-3.50576e-12
1.99416e-12
4.5356e-12
3.72523e-12
3.0565e-12
7.60237e-13
1.73761e-12
7.60237e-13
-8.982e-13
-6.20692e-13
1.5343e-12
-1.00149e-12
7.78208e-13
1.31924e-12
2.0143e-12
7.09437e-13
6.16643e-13
5.0432e-13
6.16643e-13
-4.24648e-13
-2.6851e-13
6.89105e-13
-7.53532e-13
3.56309e-13
7.50781e-13
6.22182e-13
6.38588e-13
1.27619e-13
2.49079e-13
1.27619e-13
-2.29061e-13
-1.68555e-13
2.56724e-13
-1.89073e-13
1.09837e-13
2.06486e-13
3.27987e-13
1.05123e-13
1.39171e-13
-2.92638e-14
1.39171e-13
-1.06692e-13
-7.08771e-14
1.48189e-13
-1.89444e-13
3.87999e-14
1.53793e-13
-5.86133e-15
1.44406e-13
-1.46304e-14
-1.46304e-14
-6.82634e-14
-1.72379e-14
-1.01413e-14
-1.93189e-14
-1.60026e-14
-3.97897e-11
-7.15437e-12
1.33489e-11
2.78853e-11
-3.62908e-10
2.78853e-11
3.84663e-11
-1.40402e-10
1.31329e-11
2.33748e-11
1.04507e-11
-1.59227e-10
7.56477e-11
3.26289e-11
1.0008e-10
-8.81522e-10
1.0008e-10
1.38326e-10
-3.21567e-10
5.02436e-11
9.7769e-11
2.62996e-11
-4.33369e-10
3.36445e-10
6.91216e-11
2.44823e-10
-2.23791e-09
2.44823e-10
4.1631e-10
-8.57324e-10
1.02526e-10
3.68809e-10
5.45716e-11
-2.95939e-10
4.97735e-10
5.46605e-11
1.76963e-10
-3.18371e-09
1.76963e-10
3.47474e-10
-1.29798e-09
8.16388e-11
5.91255e-10
4.84399e-11
2.48909e-11
4.41827e-10
1.47414e-11
1.75183e-11
-3.16897e-09
1.75183e-11
1.63377e-11
-1.32696e-09
2.11042e-11
5.79104e-10
1.31578e-11
1.14878e-10
3.48945e-10
-5.17638e-12
-3.77285e-11
-2.86375e-09
-3.77285e-11
-7.63064e-11
-1.23211e-09
-3.66345e-12
5.20473e-10
-4.35653e-12
1.10492e-10
2.82249e-10
-2.10007e-11
-6.26718e-11
-2.51743e-09
-6.26718e-11
-8.90495e-11
-1.12852e-09
-2.73902e-11
4.70696e-10
-1.9876e-11
1.21736e-10
2.2629e-10
-3.20262e-11
-8.6419e-11
-2.10112e-09
-8.6419e-11
-1.21093e-10
-9.84815e-10
-4.70314e-11
4.08224e-10
-2.94981e-11
1.42014e-10
1.81965e-10
-5.75541e-11
-1.54988e-10
-1.50711e-09
-1.54988e-10
-1.83175e-10
-7.95353e-10
-1.09325e-10
3.08419e-10
-5.28175e-11
2.03168e-10
1.00161e-10
-5.54175e-11
-1.51431e-10
-7.97916e-10
-1.51431e-10
-2.54184e-10
-4.66493e-10
-8.24965e-11
1.58595e-10
-4.48923e-11
1.62249e-10
2.43948e-11
-2.71652e-11
-7.11432e-11
-3.31132e-10
-7.11432e-11
-1.85059e-10
-1.82815e-10
-1.27587e-11
5.02977e-11
-1.75123e-11
5.77301e-11
6.09218e-12
-1.60023e-11
-3.54628e-11
-1.44746e-10
-3.54628e-11
-6.89109e-11
-8.18046e-11
-1.50861e-11
1.77138e-11
-1.31968e-11
2.79806e-11
-3.74317e-14
-7.22351e-12
-1.4842e-11
-5.91008e-11
-1.4842e-11
-3.31155e-11
-3.05836e-11
-4.74204e-12
4.84725e-12
-5.68225e-12
9.55354e-12
-1.2815e-12
-3.74761e-12
-7.28694e-12
-2.54199e-11
-7.28694e-12
-1.17087e-11
-1.36836e-11
-3.97187e-12
1.13907e-12
-3.49335e-12
4.32014e-12
-7.44825e-13
-1.80401e-12
-2.94858e-12
-1.08824e-11
-2.94858e-12
-5.39632e-12
-5.18811e-12
-1.51212e-12
4.49408e-13
-1.65016e-12
1.5343e-12
-6.20692e-13
-8.982e-13
-1.63398e-12
-4.5459e-12
-1.63398e-12
-2.11906e-12
-2.35083e-12
-1.03295e-12
-1.3792e-13
-8.22291e-13
6.89105e-13
-2.6851e-13
-4.24648e-13
-5.6256e-13
-2.04257e-12
-5.6256e-13
-8.93349e-13
-8.61351e-13
-4.07912e-13
5.92022e-14
-4.51883e-13
2.56724e-13
-1.68555e-13
-2.29061e-13
-4.00423e-13
-7.28273e-13
-4.00423e-13
-4.29548e-13
-3.4516e-13
-2.80578e-13
-7.3308e-14
-1.91914e-13
1.48189e-13
-7.08771e-14
-1.06692e-13
-1.26998e-13
-1.77892e-13
-1.26998e-13
-2.05401e-13
1.45418e-14
-1.27502e-13
-8.13506e-15
-1.26169e-13
-1.72379e-14
-6.82634e-14
-1.06182e-13
-1.06182e-13
-3.7551e-14
-7.34076e-14
-6.16911e-14
-2.81648e-11
6.19662e-11
1.55577e-11
1.31329e-11
-1.40402e-10
3.84663e-11
3.01942e-11
-4.28714e-11
3.01942e-11
7.65201e-11
1.40384e-11
-9.26753e-11
1.43108e-10
4.41622e-11
5.02436e-11
-3.21567e-10
1.38326e-10
8.68286e-11
-1.16042e-10
8.68286e-11
1.50641e-10
3.90072e-11
-2.61745e-10
3.71804e-10
1.02171e-10
1.02526e-10
-8.57324e-10
4.1631e-10
2.63583e-10
-4.38156e-10
2.63583e-10
3.78093e-10
9.07029e-11
-1.88502e-10
5.25432e-10
8.95338e-11
8.16388e-11
-1.29798e-09
3.47474e-10
2.1171e-10
-6.98299e-10
2.1171e-10
5.56461e-10
8.17826e-11
-9.0572e-12
5.20641e-10
2.859e-11
2.11042e-11
-1.32696e-09
1.63377e-11
2.31054e-11
-7.02301e-10
2.31054e-11
5.67606e-10
2.51178e-11
5.2609e-11
4.72042e-10
-9.18681e-12
-3.66345e-12
-1.23211e-09
-7.63064e-11
-3.46082e-11
-6.40411e-10
-3.46082e-11
5.3655e-10
-7.90809e-12
4.98147e-11
4.21193e-10
-1.99663e-11
-2.73902e-11
-1.12852e-09
-8.90495e-11
-4.19904e-11
-6.11211e-10
-4.19904e-11
4.93139e-10
-1.84555e-11
6.20046e-11
3.62322e-10
-3.51589e-11
-4.70314e-11
-9.84815e-10
-1.21093e-10
-6.55636e-11
-5.74147e-10
-6.55636e-11
4.29844e-10
-3.17673e-11
5.19493e-11
3.06424e-10
-5.36055e-11
-1.09325e-10
-7.95353e-10
-1.83175e-10
-8.91905e-11
-6.14416e-10
-8.91905e-11
3.31959e-10
-4.41227e-11
1.43611e-10
1.88896e-10
-8.15007e-11
-8.24965e-11
-4.66493e-10
-2.54184e-10
-1.71126e-10
-4.37157e-10
-1.71126e-10
1.86654e-10
-7.07132e-11
1.57003e-10
7.16254e-11
-6.68979e-11
-1.27587e-11
-1.82815e-10
-1.85059e-10
-1.55877e-10
-1.50921e-10
-1.55877e-10
7.56133e-11
-6.23486e-11
5.24764e-11
3.06691e-11
-2.75223e-11
-1.50861e-11
-8.18046e-11
-6.89109e-11
-5.5442e-11
-7.0209e-11
-5.5442e-11
3.28988e-11
-2.59242e-11
2.82055e-11
1.15658e-11
-1.63258e-11
-4.74204e-12
-3.05836e-11
-3.31155e-11
-2.93234e-11
-2.10462e-11
-2.93234e-11
1.36745e-11
-1.57814e-11
8.50641e-12
4.82801e-12
-5.51623e-12
-3.97187e-12
-1.36836e-11
-1.17087e-11
-9.5816e-12
-9.82681e-12
-9.5816e-12
5.99337e-12
-5.39377e-12
4.5356e-12
1.99416e-12
-3.50576e-12
-1.51212e-12
-5.18811e-12
-5.39632e-12
-5.18137e-12
-2.48832e-12
-5.18137e-12
2.67908e-12
-3.51723e-12
1.31924e-12
7.78208e-13
-1.00149e-12
-1.03295e-12
-2.35083e-12
-2.11906e-12
-1.62004e-12
-1.31415e-12
-1.62004e-12
1.19829e-12
-9.61546e-13
7.50781e-13
3.56309e-13
-7.53532e-13
-4.07912e-13
-8.61351e-13
-8.93349e-13
-1.0058e-12
-1.18377e-13
-1.0058e-12
5.3661e-13
-7.95996e-13
2.06486e-13
1.09837e-13
-1.89073e-13
-2.80578e-13
-3.4516e-13
-4.29548e-13
-2.80387e-13
-1.1876e-13
-2.80387e-13
2.35578e-13
-1.71271e-13
1.53793e-13
3.87999e-14
-1.89444e-13
-1.27502e-13
1.45418e-14
-2.05401e-13
-2.44742e-13
1.15719e-13
-2.44742e-13
6.59158e-14
-2.01253e-13
-1.93189e-14
-1.01413e-14
-7.34076e-14
-3.7551e-14
-1.55502e-14
-1.55502e-14
-1.13288e-14
-1.41194e-11
9.45727e-11
1.04507e-11
2.33748e-11
1.40384e-11
7.65201e-11
1.02926e-10
-3.76319e-11
1.76367e-10
2.62996e-11
9.7769e-11
3.90072e-11
1.50641e-10
1.8094e-10
-9.06979e-11
3.69235e-10
5.45716e-11
3.68809e-10
9.07029e-11
3.78093e-10
3.62346e-10
-7.65886e-11
5.35358e-10
4.84399e-11
5.91255e-10
8.17826e-11
5.56461e-10
5.25911e-10
-1.53312e-11
5.79279e-10
1.31578e-11
5.79104e-10
2.51178e-11
5.67606e-10
5.76147e-10
1.33191e-11
5.56773e-10
-4.35653e-12
5.20473e-10
-7.90809e-12
5.3655e-10
5.60331e-10
1.93963e-11
5.17411e-10
-1.9876e-11
4.70696e-10
-1.84555e-11
4.93139e-10
5.2342e-10
2.91223e-11
4.53129e-10
-2.94981e-11
4.08224e-10
-3.17673e-11
4.29844e-10
4.59885e-10
3.05524e-11
3.68971e-10
-5.28175e-11
3.08419e-10
-4.41227e-11
3.31959e-10
3.7164e-10
5.94682e-11
2.28002e-10
-4.48923e-11
1.58595e-10
-7.07132e-11
1.86654e-10
2.30213e-10
5.92487e-11
1.01856e-10
-1.75123e-11
5.02977e-11
-6.23486e-11
7.56133e-11
1.05516e-10
2.31303e-11
5.12033e-11
-1.31968e-11
1.77138e-11
-2.59242e-11
3.28988e-11
5.36676e-11
1.45667e-11
2.03109e-11
-5.68225e-12
4.84725e-12
-1.57814e-11
1.36745e-11
2.21048e-11
4.50714e-12
1.02875e-11
-3.49335e-12
1.13907e-12
-5.39377e-12
5.99337e-12
1.13173e-11
3.0565e-12
3.72523e-12
-1.65016e-12
4.49408e-13
-3.51723e-12
2.67908e-12
4.2828e-12
7.09437e-13
2.0143e-12
-8.22291e-13
-1.3792e-13
-9.61546e-13
1.19829e-12
2.35971e-12
6.38588e-13
6.22182e-13
-4.51883e-13
5.92022e-14
-7.95996e-13
5.3661e-13
7.67712e-13
1.05123e-13
3.27987e-13
-1.91914e-13
-7.3308e-14
-1.71271e-13
2.35578e-13
4.25167e-13
1.44406e-13
-5.86133e-15
-1.26169e-13
-8.13506e-15
-2.01253e-13
6.59158e-14
2.26579e-14
-1.60026e-14
-6.16911e-14
-1.13288e-14
)
;

boundaryField
{
    inlet
    {
        type            calculated;
        value           uniform 0;
    }
    outlet
    {
        type            calculated;
        value           nonuniform List<scalar> 
16
(
-5.26274e-11
1.73588e-11
-3.60101e-11
-6.48956e-11
1.73588e-11
2.27558e-10
8.85237e-11
-9.47865e-12
-3.60101e-11
8.85237e-11
8.74869e-12
-4.99136e-11
-6.48956e-11
-9.47865e-12
-4.99136e-11
-7.48492e-11
)
;
    }
    walls
    {
        type            calculated;
        value           nonuniform List<scalar> 
320
(
1.40478e-22
8.49334e-20
1.18651e-17
1.50377e-20
4.64039e-24
1.27193e-27
3.28393e-31
0
0
0
0
0
0
0
0
0
0
0
0
0
7.12947e-20
2.05517e-17
8.14426e-16
7.81119e-18
3.36704e-21
9.63386e-25
2.69163e-28
0
0
0
0
0
0
0
0
0
0
0
0
0
2.44367e-20
8.62877e-18
3.91809e-16
4.1138e-18
1.61277e-21
4.35281e-25
1.11916e-28
0
0
0
0
0
0
0
0
0
0
0
0
0
3.00461e-23
2.81167e-20
5.82553e-18
7.71065e-21
3.44817e-24
1.3936e-27
5.07679e-31
0
0
0
0
0
0
0
0
0
0
0
0
0
-3.00461e-23
-2.81167e-20
-5.82553e-18
-7.71065e-21
-3.44817e-24
-1.3936e-27
-5.07679e-31
0
0
0
0
0
0
0
0
0
0
0
0
0
-3.71889e-20
-9.80149e-18
-3.85911e-16
-4.03402e-18
-2.05737e-21
-7.3344e-25
-2.38482e-28
0
0
0
0
0
0
0
0
0
0
0
0
0
-9.88691e-21
-5.64311e-18
-2.59753e-16
-2.812e-18
-1.53056e-21
-5.33883e-25
-1.66853e-28
0
0
0
0
0
0
0
0
0
0
0
0
0
-1.21948e-23
-1.84952e-20
-3.9427e-18
-8.08262e-21
-4.79518e-24
-2.41236e-27
0
0
0
0
0
0
0
0
0
0
0
0
0
0
1.40478e-22
8.49334e-20
1.18651e-17
1.50377e-20
4.64039e-24
1.27193e-27
3.28393e-31
0
0
0
0
0
0
0
0
0
0
0
0
0
7.12947e-20
2.05517e-17
8.14426e-16
7.81119e-18
3.36704e-21
9.63386e-25
2.69163e-28
0
0
0
0
0
0
0
0
0
0
0
0
0
2.44367e-20
8.62877e-18
3.91809e-16
4.1138e-18
1.61277e-21
4.35281e-25
1.11916e-28
0
0
0
0
0
0
0
0
0
0
0
0
0
3.00461e-23
2.81167e-20
5.82553e-18
7.71065e-21
3.44817e-24
1.3936e-27
5.07679e-31
0
0
0
0
0
0
0
0
0
0
0
0
0
-3.00461e-23
-2.81167e-20
-5.82553e-18
-7.71065e-21
-3.44817e-24
-1.3936e-27
-5.07679e-31
0
0
0
0
0
0
0
0
0
0
0
0
0
-3.71889e-20
-9.80149e-18
-3.85911e-16
-4.03402e-18
-2.05737e-21
-7.3344e-25
-2.38482e-28
0
0
0
0
0
0
0
0
0
0
0
0
0
-9.88691e-21
-5.64311e-18
-2.59753e-16
-2.812e-18
-1.53056e-21
-5.33883e-25
-1.66853e-28
0
0
0
0
0
0
0
0
0
0
0
0
0
-1.21948e-23
-1.84952e-20
-3.9427e-18
-8.08262e-21
-4.79518e-24
-2.41236e-27
0
0
0
0
0
0
0
0
0
0
0
0
0
0
)
;
    }
}


// ************************************************************************* //
