/*--------------------------------*- C++ -*----------------------------------*\
| =========                 |                                                 |
| \\      /  F ield         | OpenFOAM: The Open Source CFD Toolbox           |
|  \\    /   O peration     | Version:  5.x                                   |
|   \\  /    A nd           | Web:      www.OpenFOAM.org                      |
|    \\/     M anipulation  |                                                 |
\*---------------------------------------------------------------------------*/
FoamFile
{
    version     2.0;
    format      ascii;
    class       volVectorField;
    location    "0.15";
    object      U;
}
// * * * * * * * * * * * * * * * * * * * * * * * * * * * * * * * * * * * * * //

dimensions      [0 1 -1 0 0 0 0];

internalField   nonuniform List<vector> 
320
(
(-2.87766e-06 9.67038e-06 -2.87766e-06)
(-6.96155e-07 -1.67325e-06 -6.87905e-06)
(3.72509e-06 6.93008e-06 -4.45828e-06)
(1.19014e-06 1.15207e-05 -2.46951e-06)
(-7.95434e-06 1.77553e-05 -7.95434e-06)
(-2.35444e-06 -3.20777e-07 -2.6341e-05)
(1.01945e-05 1.22967e-05 -1.50005e-05)
(3.32555e-06 1.92376e-05 -6.95134e-06)
(-1.99216e-05 4.07277e-05 -1.99216e-05)
(-6.6894e-06 2.65342e-05 -8.06008e-05)
(2.40144e-05 3.69071e-05 -4.50382e-05)
(7.98913e-06 4.06809e-05 -1.68237e-05)
(-1.91387e-05 7.34866e-05 -1.91387e-05)
(-6.67322e-06 6.60186e-05 -7.30761e-05)
(2.37306e-05 7.09745e-05 -4.15906e-05)
(6.70759e-06 7.19348e-05 -1.70259e-05)
(-5.58631e-06 9.2605e-05 -5.58631e-06)
(-2.23117e-06 8.3527e-05 1.61628e-06)
(9.16904e-06 8.91896e-05 -4.47547e-06)
(7.94128e-07 9.21365e-05 -5.43834e-06)
(3.40922e-06 9.14873e-05 3.40922e-06)
(3.16468e-07 6.67481e-05 2.15564e-05)
(-1.16446e-06 8.24683e-05 8.75327e-06)
(-2.23482e-06 9.32309e-05 2.38112e-06)
(5.86906e-06 8.4832e-05 5.86906e-06)
(-6.30822e-08 5.08765e-05 2.43763e-05)
(-5.24394e-06 7.39288e-05 1.10336e-05)
(-1.8037e-06 8.83406e-05 4.97361e-06)
(8.37206e-06 7.4859e-05 8.37206e-06)
(8.75145e-07 4.02241e-05 2.85655e-05)
(-9.65027e-06 6.26619e-05 1.49267e-05)
(-2.3834e-06 7.91212e-05 7.39113e-06)
(1.14992e-05 6.32361e-05 1.14992e-05)
(-2.00902e-07 3.26624e-05 3.82432e-05)
(-1.64148e-05 5.51738e-05 1.99762e-05)
(-1.68672e-06 6.78163e-05 1.00405e-05)
(1.41094e-05 4.72715e-05 1.41094e-05)
(5.19802e-06 2.45764e-05 4.51979e-05)
(-2.14277e-05 4.1889e-05 2.90947e-05)
(-5.43392e-06 5.04091e-05 1.25615e-05)
(1.0183e-05 2.14487e-05 1.0183e-05)
(7.42513e-06 7.88653e-06 3.00094e-05)
(-1.53332e-05 1.87357e-05 2.30643e-05)
(-6.02645e-06 2.31409e-05 9.34866e-06)
(4.48768e-06 9.81582e-06 4.48768e-06)
(2.38816e-06 5.56232e-07 1.1626e-05)
(-7.04003e-06 5.31543e-06 8.60224e-06)
(-2.05493e-06 1.04925e-05 4.22833e-06)
(2.58489e-06 4.9059e-06 2.58489e-06)
(1.72769e-06 1.14412e-06 5.37975e-06)
(-3.81261e-06 3.94816e-06 4.35185e-06)
(-1.51716e-06 5.3328e-06 2.4401e-06)
(9.11742e-07 1.42023e-06 9.11742e-07)
(4.10748e-07 -1.12242e-06 2.02978e-06)
(-1.48988e-06 1.06614e-07 1.4982e-06)
(-3.63692e-07 1.5935e-06 8.81416e-07)
(5.68162e-07 1.30501e-06 5.68162e-07)
(3.19134e-07 5.99846e-07 8.85805e-07)
(-8.33691e-07 1.22736e-06 7.6207e-07)
(-3.29333e-07 1.41339e-06 5.5527e-07)
(1.71376e-07 -1.02515e-07 1.71376e-07)
(4.41312e-08 -7.57198e-07 3.56428e-07)
(-3.00716e-07 -4.58842e-07 2.62492e-07)
(-4.29267e-08 -5.05268e-08 1.54308e-07)
(1.19343e-07 5.5256e-07 1.19343e-07)
(5.68001e-08 4.91241e-07 1.50405e-07)
(-1.76342e-07 6.34345e-07 1.3793e-07)
(-7.60519e-08 5.80058e-07 1.25663e-07)
(3.5001e-08 -3.39372e-07 3.5001e-08)
(-9.47789e-12 -5.37926e-07 6.77106e-08)
(-6.5203e-08 -4.75754e-07 5.06281e-08)
(-6.75194e-10 -3.2322e-07 2.6877e-08)
(2.60164e-08 3.88186e-07 2.60164e-08)
(1.28525e-08 4.57774e-07 3.08683e-08)
(-4.25562e-08 4.90112e-07 2.97353e-08)
(-1.90082e-08 3.92371e-07 2.86371e-08)
(-1.59032e-08 -3.89304e-07 -1.59032e-08)
(9.20271e-09 -4.67858e-07 -1.87206e-08)
(-2.80337e-08 -4.68398e-07 -2.22299e-08)
(2.56433e-08 -3.87147e-07 -1.68411e-08)
(-6.87905e-06 -1.67325e-06 -6.96155e-07)
(-2.04695e-06 -3.63449e-05 -2.04695e-06)
(8.32001e-06 -1.30785e-05 -2.17931e-06)
(3.18325e-06 2.18062e-06 -7.17669e-07)
(-2.6341e-05 -3.20777e-07 -2.35444e-06)
(-8.70668e-06 -8.07855e-05 -8.70668e-06)
(3.04118e-05 -3.1414e-05 -6.13706e-06)
(1.13624e-05 4.75003e-06 -2.19034e-06)
(-8.06008e-05 2.65342e-05 -6.6894e-06)
(-3.04025e-05 -0.000170594 -3.04025e-05)
(9.06154e-05 -6.05712e-05 -2.42581e-05)
(3.60707e-05 3.03005e-05 -6.41247e-06)
(-7.30761e-05 6.60186e-05 -6.67322e-06)
(-2.688e-05 -0.000581307 -2.688e-05)
(8.51902e-05 -0.000242769 -2.16783e-05)
(3.08633e-05 7.55893e-05 -6.3446e-06)
(1.61628e-06 8.3527e-05 -2.23117e-06)
(1.49497e-06 -0.000471023 1.49497e-06)
(7.76358e-06 -0.000194224 -6.30513e-07)
(-7.90595e-07 0.000100703 -1.8527e-06)
(2.15564e-05 6.67481e-05 3.16468e-07)
(7.73693e-06 -0.000467892 7.73693e-06)
(-1.60709e-05 -0.000197054 4.54779e-06)
(-9.04798e-06 9.21102e-05 3.63647e-07)
(2.43763e-05 5.08765e-05 -6.30822e-08)
(5.91463e-06 -0.000431755 5.91463e-06)
(-2.23603e-05 -0.000188687 2.44506e-06)
(-7.96165e-06 8.14619e-05 -1.64248e-07)
(2.85655e-05 4.02241e-05 8.75145e-07)
(6.64362e-06 -0.000375296 6.64362e-06)
(-3.11716e-05 -0.00017353 2.90202e-06)
(-9.6249e-06 7.12194e-05 5.09585e-07)
(3.82432e-05 3.26624e-05 -2.00902e-07)
(4.10057e-06 -0.000299529 4.10057e-06)
(-5.02618e-05 -0.000141925 -4.81461e-06)
(-1.08411e-05 6.0649e-05 -1.57322e-06)
(4.51979e-05 2.45764e-05 5.19802e-06)
(1.69076e-05 -0.000186811 1.69076e-05)
(-6.2603e-05 -0.000115219 1.49208e-05)
(-2.13628e-05 3.73974e-05 4.81747e-06)
(3.00094e-05 7.88653e-06 7.42513e-06)
(1.99645e-05 -7.02161e-05 1.99645e-05)
(-4.12978e-05 -3.50711e-05 2.57002e-05)
(-1.96531e-05 1.39674e-05 8.27203e-06)
(1.1626e-05 5.56232e-07 2.38816e-06)
(5.84032e-06 -3.60043e-05 5.84032e-06)
(-1.63641e-05 -2.23374e-05 7.37941e-06)
(-6.46831e-06 2.97539e-06 2.53968e-06)
(5.37975e-06 1.14412e-06 1.72769e-06)
(3.11439e-06 -1.09779e-05 3.11439e-06)
(-7.51302e-06 -4.55773e-06 4.27981e-06)
(-3.44492e-06 2.33061e-06 1.85894e-06)
(2.02978e-06 -1.12242e-06 4.10748e-07)
(8.00616e-07 -7.29352e-06 8.00616e-07)
(-2.92637e-06 -4.68474e-06 1.04556e-06)
(-1.00252e-06 -5.69668e-07 4.15234e-07)
(8.85805e-07 5.99846e-07 3.19134e-07)
(4.01172e-07 -1.30115e-06 4.01172e-07)
(-1.2626e-06 -5.07896e-08 6.01097e-07)
(-5.4237e-07 8.33073e-07 3.33784e-07)
(3.56428e-07 -7.57198e-07 4.41312e-08)
(8.7737e-08 -1.89112e-06 8.7737e-08)
(-5.60296e-07 -1.39884e-06 1.2245e-07)
(-1.58477e-07 -6.2773e-07 4.47182e-08)
(1.50405e-07 4.91241e-07 5.68001e-08)
(5.0701e-08 2.59062e-07 5.0701e-08)
(-2.12295e-07 5.16392e-07 8.33789e-08)
(-9.09088e-08 5.53003e-07 5.69612e-08)
(6.77106e-08 -5.37926e-07 -9.47787e-12)
(4.50338e-09 -8.0733e-07 4.50338e-09)
(-1.20099e-07 -7.22124e-07 7.36149e-09)
(-2.60145e-08 -5.13499e-07 1.46718e-09)
(3.08683e-08 4.57774e-07 1.28525e-08)
(1.13284e-08 5.2099e-07 1.13284e-08)
(-4.74899e-08 5.74394e-07 1.40234e-08)
(-2.12428e-08 4.73824e-07 1.17031e-08)
(-1.87206e-08 -4.67858e-07 9.20271e-09)
(1.07796e-08 -5.5888e-07 1.07796e-08)
(-4.07057e-08 -5.63115e-07 1.36017e-08)
(3.06079e-08 -4.69244e-07 9.58272e-09)
(-4.45828e-06 6.93008e-06 3.72509e-06)
(-2.17931e-06 -1.30785e-05 8.32001e-06)
(5.33455e-06 -1.23038e-06 5.33455e-06)
(2.77124e-06 9.17879e-06 3.10904e-06)
(-1.50005e-05 1.22967e-05 1.01945e-05)
(-6.13706e-06 -3.1414e-05 3.04118e-05)
(1.76296e-05 -1.0667e-05 1.76296e-05)
(7.56817e-06 1.44158e-05 8.71758e-06)
(-4.50382e-05 3.69071e-05 2.40144e-05)
(-2.42581e-05 -6.05712e-05 9.06154e-05)
(5.0208e-05 -2.34729e-05 5.0208e-05)
(2.62251e-05 3.78726e-05 1.99322e-05)
(-4.15906e-05 7.09745e-05 2.37306e-05)
(-2.16783e-05 -0.000242769 8.51902e-05)
(4.80346e-05 -0.000136365 4.80346e-05)
(2.24133e-05 7.36552e-05 2.0511e-05)
(-4.47547e-06 8.91896e-05 9.16904e-06)
(-6.30513e-07 -0.000194224 7.76358e-06)
(1.00801e-05 -9.97647e-05 1.00801e-05)
(2.54728e-08 9.49183e-05 7.9336e-06)
(8.75327e-06 8.24683e-05 -1.16446e-06)
(4.54779e-06 -0.000197054 -1.60709e-05)
(-5.02437e-06 -0.000103494 -5.02437e-06)
(-6.00255e-06 9.13426e-05 -1.00805e-06)
(1.10336e-05 7.39288e-05 -5.24394e-06)
(2.44506e-06 -0.000188687 -2.23603e-05)
(-9.49921e-06 -9.81152e-05 -9.49921e-06)
(-4.4783e-06 8.5533e-05 -4.81537e-06)
(1.49267e-05 6.26619e-05 -9.65027e-06)
(2.90202e-06 -0.00017353 -3.11716e-05)
(-1.62575e-05 -9.90962e-05 -1.62575e-05)
(-5.56085e-06 7.43135e-05 -8.55141e-06)
(1.99762e-05 5.51738e-05 -1.64148e-05)
(-4.81461e-06 -0.000141925 -5.02618e-05)
(-2.79606e-05 -8.38266e-05 -2.79606e-05)
(-1.75156e-06 6.53322e-05 -1.36151e-05)
(2.90947e-05 4.1889e-05 -2.14277e-05)
(1.49208e-05 -0.000115219 -6.2603e-05)
(-3.9805e-05 -0.000115294 -3.9805e-05)
(-1.6213e-05 3.99903e-05 -1.78411e-05)
(2.30643e-05 1.87357e-05 -1.53332e-05)
(2.57002e-05 -3.50711e-05 -4.12978e-05)
(-2.93732e-05 -2.5406e-05 -2.93732e-05)
(-2.11737e-05 1.98642e-05 -1.32498e-05)
(8.60224e-06 5.31543e-06 -7.04003e-06)
(7.37941e-06 -2.23374e-05 -1.63641e-05)
(-1.17518e-05 -2.11996e-05 -1.17518e-05)
(-6.56612e-06 5.50712e-06 -6.31239e-06)
(4.35185e-06 3.94816e-06 -3.81261e-06)
(4.27981e-06 -4.55773e-06 -7.51302e-06)
(-5.64751e-06 -2.18581e-06 -5.64751e-06)
(-3.82391e-06 4.46677e-06 -3.47394e-06)
(1.4982e-06 1.06614e-07 -1.48988e-06)
(1.04556e-06 -4.68474e-06 -2.92637e-06)
(-2.18714e-06 -4.02082e-06 -2.18714e-06)
(-1.02189e-06 2.88438e-07 -1.40609e-06)
(7.6207e-07 1.22736e-06 -8.33691e-07)
(6.01097e-07 -5.07896e-08 -1.2626e-06)
(-1.03916e-06 5.47006e-07 -1.03916e-06)
(-6.36403e-07 1.39529e-06 -8.00685e-07)
(2.62492e-07 -4.58842e-07 -3.00716e-07)
(1.2245e-07 -1.39884e-06 -5.60296e-07)
(-4.1657e-07 -1.18742e-06 -4.1657e-07)
(-1.37244e-07 -3.87241e-07 -2.76665e-07)
(1.3793e-07 6.34345e-07 -1.76342e-07)
(8.33789e-08 5.16392e-07 -2.12295e-07)
(-2.01901e-07 6.65075e-07 -2.01901e-07)
(-1.20328e-07 6.78758e-07 -1.84083e-07)
(5.06281e-08 -4.75754e-07 -6.5203e-08)
(7.36149e-09 -7.22124e-07 -1.20099e-07)
(-8.65276e-08 -6.75816e-07 -8.65276e-08)
(-1.16776e-08 -4.52056e-07 -5.55339e-08)
(2.97353e-08 4.90112e-07 -4.25562e-08)
(1.40234e-08 5.74394e-07 -4.74899e-08)
(-5.07238e-08 6.15146e-07 -5.07238e-08)
(-2.66949e-08 4.96576e-07 -4.70722e-08)
(-2.22299e-08 -4.68398e-07 -2.80337e-08)
(1.36017e-08 -5.63115e-07 -4.07057e-08)
(-3.41633e-08 -5.62237e-07 -3.41633e-08)
(3.06016e-08 -4.6318e-07 -2.65515e-08)
(-2.46951e-06 1.15207e-05 1.19014e-06)
(-7.17669e-07 2.18062e-06 3.18325e-06)
(3.10904e-06 9.17879e-06 2.77124e-06)
(1.128e-06 1.30493e-05 1.128e-06)
(-6.95134e-06 1.92376e-05 3.32555e-06)
(-2.19034e-06 4.75003e-06 1.13624e-05)
(8.71758e-06 1.44158e-05 7.56817e-06)
(3.11088e-06 2.05425e-05 3.11088e-06)
(-1.68237e-05 4.06809e-05 7.98913e-06)
(-6.41247e-06 3.03005e-05 3.60707e-05)
(1.99322e-05 3.78726e-05 2.62251e-05)
(7.71745e-06 4.08556e-05 7.71745e-06)
(-1.70259e-05 7.19348e-05 6.70759e-06)
(-6.3446e-06 7.55893e-05 3.08633e-05)
(2.0511e-05 7.36552e-05 2.24133e-05)
(6.94887e-06 7.04386e-05 6.94887e-06)
(-5.43834e-06 9.21365e-05 7.94128e-07)
(-1.8527e-06 0.000100703 -7.90595e-07)
(7.9336e-06 9.49183e-05 2.54728e-08)
(1.13823e-06 9.067e-05 1.13823e-06)
(2.38112e-06 9.32309e-05 -2.23482e-06)
(3.63647e-07 9.21102e-05 -9.04798e-06)
(-1.00805e-06 9.13426e-05 -6.00255e-06)
(-1.78418e-06 9.30133e-05 -1.78418e-06)
(4.97361e-06 8.83406e-05 -1.8037e-06)
(-1.64248e-07 8.14619e-05 -7.96165e-06)
(-4.81537e-06 8.5533e-05 -4.4783e-06)
(-1.64667e-06 8.91397e-05 -1.64667e-06)
(7.39113e-06 7.91212e-05 -2.3834e-06)
(5.09585e-07 7.12194e-05 -9.6249e-06)
(-8.55141e-06 7.43135e-05 -5.56085e-06)
(-2.34354e-06 8.01084e-05 -2.34354e-06)
(1.00405e-05 6.78163e-05 -1.68672e-06)
(-1.57322e-06 6.0649e-05 -1.08411e-05)
(-1.36151e-05 6.53322e-05 -1.75156e-06)
(-1.39815e-06 6.88852e-05 -1.39815e-06)
(1.25615e-05 5.04091e-05 -5.43392e-06)
(4.81747e-06 3.73974e-05 -2.13628e-05)
(-1.78411e-05 3.99903e-05 -1.6213e-05)
(-5.54434e-06 5.03228e-05 -5.54434e-06)
(9.34866e-06 2.31409e-05 -6.02645e-06)
(8.27203e-06 1.39674e-05 -1.96531e-05)
(-1.32498e-05 1.98642e-05 -2.11737e-05)
(-6.59416e-06 2.39498e-05 -6.59416e-06)
(4.22833e-06 1.04925e-05 -2.05493e-06)
(2.53968e-06 2.97539e-06 -6.46831e-06)
(-6.31239e-06 5.50712e-06 -6.56612e-06)
(-2.28372e-06 1.08858e-05 -2.28372e-06)
(2.4401e-06 5.3328e-06 -1.51716e-06)
(1.85894e-06 2.33061e-06 -3.44492e-06)
(-3.47394e-06 4.46677e-06 -3.82391e-06)
(-1.67927e-06 5.73074e-06 -1.67927e-06)
(8.81416e-07 1.5935e-06 -3.63692e-07)
(4.15234e-07 -5.69668e-07 -1.00252e-06)
(-1.40609e-06 2.88438e-07 -1.02189e-06)
(-4.14765e-07 1.78247e-06 -4.14765e-07)
(5.5527e-07 1.41339e-06 -3.29333e-07)
(3.33784e-07 8.33073e-07 -5.4237e-07)
(-8.00685e-07 1.39529e-06 -6.36403e-07)
(-3.67937e-07 1.54021e-06 -3.67937e-07)
(1.54308e-07 -5.05268e-08 -4.29267e-08)
(4.47182e-08 -6.2773e-07 -1.58477e-07)
(-2.76665e-07 -3.87241e-07 -1.37244e-07)
(-5.41626e-08 1.41554e-08 -5.41626e-08)
(1.25663e-07 5.80058e-07 -7.60519e-08)
(5.69612e-08 5.53003e-07 -9.09088e-08)
(-1.84083e-07 6.78758e-07 -1.20328e-07)
(-8.40301e-08 6.14559e-07 -8.40301e-08)
(2.6877e-08 -3.2322e-07 -6.75194e-10)
(1.46718e-09 -5.13499e-07 -2.60145e-08)
(-5.55339e-08 -4.52056e-07 -1.16776e-08)
(-4.04893e-09 -3.03743e-07 -4.04893e-09)
(2.86371e-08 3.92371e-07 -1.90082e-08)
(1.17031e-08 4.73824e-07 -2.12428e-08)
(-4.70722e-08 4.96576e-07 -2.66949e-08)
(-2.0349e-08 3.98168e-07 -2.0349e-08)
(-1.68411e-08 -3.87147e-07 2.56433e-08)
(9.58272e-09 -4.69244e-07 3.06079e-08)
(-2.65515e-08 -4.6318e-07 3.06016e-08)
(2.38857e-08 -3.83526e-07 2.38857e-08)
)
;

boundaryField
{
    inlet
    {
        type            fixedValue;
        value           uniform (0 0 0);
    }
    outlet
    {
        type            zeroGradient;
    }
    walls
    {
        type            fixedValue;
        value           uniform (0 0 0);
    }
}


// ************************************************************************* //
