/*--------------------------------*- C++ -*----------------------------------*\
| =========                 |                                                 |
| \\      /  F ield         | OpenFOAM: The Open Source CFD Toolbox           |
|  \\    /   O peration     | Version:  5.x                                   |
|   \\  /    A nd           | Web:      www.OpenFOAM.org                      |
|    \\/     M anipulation  |                                                 |
\*---------------------------------------------------------------------------*/
FoamFile
{
    version     2.0;
    format      ascii;
    class       volVectorField;
    location    "0.15";
    object      Us;
}
// * * * * * * * * * * * * * * * * * * * * * * * * * * * * * * * * * * * * * //

dimensions      [0 1 -1 0 0 0 0];

internalField   nonuniform List<vector> 
320
(
(-1.30701e-11 -5.44789e-08 -1.30701e-11)
(-2.3881e-10 -9.95408e-07 -2.3881e-10)
(-2.3269e-10 -9.699e-07 -2.3269e-10)
(-6.48195e-12 -2.70181e-08 -6.48195e-12)
(-4.69237e-10 -1.95588e-06 -4.69237e-10)
(-1.14837e-08 -4.78666e-05 -1.14837e-08)
(-1.13366e-08 -4.72533e-05 -1.13366e-08)
(-3.11938e-10 -1.30022e-06 -3.11938e-10)
(-1.14889e-08 -4.78882e-05 -1.14889e-08)
(-4.21665e-07 -0.00175759 -4.21665e-07)
(-4.2174e-07 -0.0017579 -4.2174e-07)
(-1.14899e-08 -4.78924e-05 -1.14899e-08)
(-3.1084e-10 -1.29565e-06 -3.1084e-10)
(-1.14105e-08 -4.75615e-05 -1.14105e-08)
(-1.14106e-08 -4.75618e-05 -1.14106e-08)
(-3.10885e-10 -1.29583e-06 -3.10885e-10)
(-4.15169e-12 -1.73051e-08 -4.15169e-12)
(-1.52403e-10 -6.35249e-07 -1.52403e-10)
(-1.54399e-10 -6.43568e-07 -1.54399e-10)
(-6.30942e-12 -2.6299e-08 -6.30942e-12)
(-5.54537e-14 -2.31143e-10 -5.54537e-14)
(-2.03564e-12 -8.48495e-09 -2.03564e-12)
(-2.08894e-12 -8.70714e-09 -2.08894e-12)
(-1.13824e-13 -4.74443e-10 -1.13824e-13)
(-7.4072e-16 -3.08747e-12 -7.4072e-16)
(-2.71909e-14 -1.13337e-10 -2.71909e-14)
(-2.82589e-14 -1.17789e-10 -2.82589e-14)
(-1.92509e-15 -8.02419e-12 -1.92509e-15)
(-9.89452e-18 -4.12424e-14 -9.89452e-18)
(-3.63215e-16 -1.51396e-12 -3.63215e-16)
(-3.82237e-16 -1.59324e-12 -3.82237e-16)
(-3.12563e-17 -1.30283e-13 -3.12563e-17)
(-1.32176e-19 -5.50938e-16 -1.32176e-19)
(-4.85203e-18 -2.02243e-14 -4.85203e-18)
(-5.16967e-18 -2.15482e-14 -5.16967e-18)
(-4.93386e-19 -2.05653e-15 -4.93386e-19)
(-1.76496e-21 -7.35671e-18 -1.76496e-21)
(-6.48011e-20 -2.70105e-16 -6.48011e-20)
(-6.98922e-20 -2.91325e-16 -6.98922e-20)
(-7.62684e-21 -3.17903e-17 -7.62684e-21)
(0 0 0)
(0 0 0)
(0 0 0)
(0 0 0)
(0 0 0)
(0 0 0)
(0 0 0)
(0 0 0)
(0 0 0)
(0 0 0)
(0 0 0)
(0 0 0)
(0 0 0)
(0 0 0)
(0 0 0)
(0 0 0)
(0 0 0)
(0 0 0)
(0 0 0)
(0 0 0)
(0 0 0)
(0 0 0)
(0 0 0)
(0 0 0)
(0 0 0)
(0 0 0)
(0 0 0)
(0 0 0)
(0 0 0)
(0 0 0)
(0 0 0)
(0 0 0)
(0 0 0)
(0 0 0)
(0 0 0)
(0 0 0)
(0 0 0)
(0 0 0)
(0 0 0)
(0 0 0)
(-2.3881e-10 -9.95408e-07 -2.3881e-10)
(-5.81952e-09 -2.4257e-05 -5.81952e-09)
(-5.74352e-09 -2.39402e-05 -5.74352e-09)
(-1.57555e-10 -6.5672e-07 -1.57555e-10)
(-1.14837e-08 -4.78666e-05 -1.14837e-08)
(-4.21585e-07 -0.00175725 -4.21585e-07)
(-4.21589e-07 -0.00175727 -4.21589e-07)
(-1.14117e-08 -4.75663e-05 -1.14117e-08)
(-4.21665e-07 -0.00175759 -4.21665e-07)
(-3.09407e-05 -0.128967 -3.09407e-05)
(-3.09407e-05 -0.128967 -3.09407e-05)
(-4.21818e-07 -0.00175822 -4.21818e-07)
(-1.14105e-08 -4.75615e-05 -1.14105e-08)
(-4.21735e-07 -0.00175788 -4.21735e-07)
(-4.21665e-07 -0.00175759 -4.21665e-07)
(-1.13397e-08 -4.72661e-05 -1.13397e-08)
(-1.52403e-10 -6.35249e-07 -1.52403e-10)
(-5.59702e-09 -2.33295e-05 -5.59702e-09)
(-5.66836e-09 -2.36269e-05 -5.66836e-09)
(-2.28647e-10 -9.53047e-07 -2.28647e-10)
(-2.03564e-12 -8.48495e-09 -2.03564e-12)
(-7.42804e-11 -3.09616e-07 -7.42804e-11)
(-7.61861e-11 -3.17559e-07 -7.61861e-11)
(-4.09796e-12 -1.70811e-08 -4.09796e-12)
(-2.71909e-14 -1.13337e-10 -2.71909e-14)
(-9.85812e-13 -4.10907e-09 -9.85812e-13)
(-1.02382e-12 -4.26751e-09 -1.02382e-12)
(-6.88532e-14 -2.86994e-10 -6.88532e-14)
(-3.63215e-16 -1.51396e-12 -3.63215e-16)
(-1.30833e-14 -5.45337e-11 -1.30833e-14)
(-1.37565e-14 -5.73399e-11 -1.37565e-14)
(-1.11054e-15 -4.62894e-12 -1.11054e-15)
(-4.85203e-18 -2.02243e-14 -4.85203e-18)
(-1.73636e-16 -7.23751e-13 -1.73636e-16)
(-1.8481e-16 -7.70327e-13 -1.8481e-16)
(-1.74135e-17 -7.25832e-14 -1.74135e-17)
(-6.48011e-20 -2.70105e-16 -6.48011e-20)
(-2.30402e-18 -9.60365e-15 -2.30402e-18)
(-2.482e-18 -1.03455e-14 -2.482e-18)
(-2.67409e-19 -1.11462e-15 -2.67409e-19)
(0 0 0)
(0 0 0)
(0 0 0)
(0 0 0)
(0 0 0)
(0 0 0)
(0 0 0)
(0 0 0)
(0 0 0)
(0 0 0)
(0 0 0)
(0 0 0)
(0 0 0)
(0 0 0)
(0 0 0)
(0 0 0)
(0 0 0)
(0 0 0)
(0 0 0)
(0 0 0)
(0 0 0)
(0 0 0)
(0 0 0)
(0 0 0)
(0 0 0)
(0 0 0)
(0 0 0)
(0 0 0)
(0 0 0)
(0 0 0)
(0 0 0)
(0 0 0)
(0 0 0)
(0 0 0)
(0 0 0)
(0 0 0)
(0 0 0)
(0 0 0)
(0 0 0)
(0 0 0)
(-2.3269e-10 -9.699e-07 -2.3269e-10)
(-5.74352e-09 -2.39402e-05 -5.74352e-09)
(-5.6713e-09 -2.36392e-05 -5.6713e-09)
(-1.55509e-10 -6.48192e-07 -1.55509e-10)
(-1.13366e-08 -4.72533e-05 -1.13366e-08)
(-4.21589e-07 -0.00175727 -4.21589e-07)
(-4.21734e-07 -0.00175787 -4.21734e-07)
(-1.14127e-08 -4.75706e-05 -1.14127e-08)
(-4.2174e-07 -0.0017579 -4.2174e-07)
(-3.09407e-05 -0.128967 -3.09407e-05)
(-3.09407e-05 -0.128967 -3.09407e-05)
(-4.2182e-07 -0.00175823 -4.2182e-07)
(-1.14106e-08 -4.75618e-05 -1.14106e-08)
(-4.21665e-07 -0.00175759 -4.21665e-07)
(-4.21737e-07 -0.00175789 -4.21737e-07)
(-1.1488e-08 -4.78842e-05 -1.1488e-08)
(-1.54399e-10 -6.43568e-07 -1.54399e-10)
(-5.66836e-09 -2.36269e-05 -5.66836e-09)
(-5.74341e-09 -2.39397e-05 -5.74341e-09)
(-2.34625e-10 -9.77966e-07 -2.34625e-10)
(-2.08894e-12 -8.70714e-09 -2.08894e-12)
(-7.61861e-11 -3.17559e-07 -7.61861e-11)
(-7.819e-11 -3.25912e-07 -7.819e-11)
(-4.25864e-12 -1.77509e-08 -4.25864e-12)
(-2.82589e-14 -1.17789e-10 -2.82589e-14)
(-1.02382e-12 -4.26751e-09 -1.02382e-12)
(-1.06412e-12 -4.43547e-09 -1.06412e-12)
(-7.24521e-14 -3.01995e-10 -7.24521e-14)
(-3.82237e-16 -1.59324e-12 -3.82237e-16)
(-1.37565e-14 -5.73399e-11 -1.37565e-14)
(-1.44774e-14 -6.03448e-11 -1.44774e-14)
(-1.18308e-15 -4.93131e-12 -1.18308e-15)
(-5.16967e-18 -2.15482e-14 -5.16967e-18)
(-1.8481e-16 -7.70327e-13 -1.8481e-16)
(-1.96904e-16 -8.20738e-13 -1.96904e-16)
(-1.87782e-17 -7.82713e-14 -1.87782e-17)
(-6.98922e-20 -2.91325e-16 -6.98922e-20)
(-2.482e-18 -1.03455e-14 -2.482e-18)
(-2.67676e-18 -1.11573e-14 -2.67676e-18)
(-2.91852e-19 -1.2165e-15 -2.91852e-19)
(0 0 0)
(0 0 0)
(0 0 0)
(0 0 0)
(0 0 0)
(0 0 0)
(0 0 0)
(0 0 0)
(0 0 0)
(0 0 0)
(0 0 0)
(0 0 0)
(0 0 0)
(0 0 0)
(0 0 0)
(0 0 0)
(0 0 0)
(0 0 0)
(0 0 0)
(0 0 0)
(0 0 0)
(0 0 0)
(0 0 0)
(0 0 0)
(0 0 0)
(0 0 0)
(0 0 0)
(0 0 0)
(0 0 0)
(0 0 0)
(0 0 0)
(0 0 0)
(0 0 0)
(0 0 0)
(0 0 0)
(0 0 0)
(0 0 0)
(0 0 0)
(0 0 0)
(0 0 0)
(-6.48195e-12 -2.70181e-08 -6.48195e-12)
(-1.57555e-10 -6.5672e-07 -1.57555e-10)
(-1.55509e-10 -6.48192e-07 -1.55509e-10)
(-4.32147e-12 -1.80128e-08 -4.32147e-12)
(-3.11938e-10 -1.30022e-06 -3.11938e-10)
(-1.14117e-08 -4.75663e-05 -1.14117e-08)
(-1.14127e-08 -4.75706e-05 -1.14127e-08)
(-3.12949e-10 -1.30444e-06 -3.12949e-10)
(-1.14899e-08 -4.78924e-05 -1.14899e-08)
(-4.21818e-07 -0.00175822 -4.21818e-07)
(-4.2182e-07 -0.00175823 -4.2182e-07)
(-1.14932e-08 -4.79061e-05 -1.14932e-08)
(-3.10885e-10 -1.29583e-06 -3.10885e-10)
(-1.13397e-08 -4.72661e-05 -1.13397e-08)
(-1.1488e-08 -4.78842e-05 -1.1488e-08)
(-4.69411e-10 -1.9566e-06 -4.69411e-10)
(-6.30942e-12 -2.6299e-08 -6.30942e-12)
(-2.28647e-10 -9.53047e-07 -2.28647e-10)
(-2.34625e-10 -9.77966e-07 -2.34625e-10)
(-1.27829e-11 -5.3282e-08 -1.27829e-11)
(-1.13824e-13 -4.74443e-10 -1.13824e-13)
(-4.09796e-12 -1.70811e-08 -4.09796e-12)
(-4.25864e-12 -1.77509e-08 -4.25864e-12)
(-2.90072e-13 -1.20908e-09 -2.90072e-13)
(-1.92509e-15 -8.02419e-12 -1.92509e-15)
(-6.88532e-14 -2.86994e-10 -6.88532e-14)
(-7.24521e-14 -3.01995e-10 -7.24521e-14)
(-5.92363e-15 -2.46909e-11 -5.92363e-15)
(-3.12563e-17 -1.30283e-13 -3.12563e-17)
(-1.11054e-15 -4.62894e-12 -1.11054e-15)
(-1.18308e-15 -4.93131e-12 -1.18308e-15)
(-1.12893e-16 -4.70559e-13 -1.12893e-16)
(-4.93386e-19 -2.05653e-15 -4.93386e-19)
(-1.74135e-17 -7.25832e-14 -1.74135e-17)
(-1.87782e-17 -7.82713e-14 -1.87782e-17)
(-2.04885e-18 -8.54004e-15 -2.04885e-18)
(-7.62684e-21 -3.17903e-17 -7.62684e-21)
(-2.67409e-19 -1.11462e-15 -2.67409e-19)
(-2.91852e-19 -1.2165e-15 -2.91852e-19)
(-3.58442e-20 -1.49406e-16 -3.58442e-20)
(0 0 0)
(0 0 0)
(0 0 0)
(0 0 0)
(0 0 0)
(0 0 0)
(0 0 0)
(0 0 0)
(0 0 0)
(0 0 0)
(0 0 0)
(0 0 0)
(0 0 0)
(0 0 0)
(0 0 0)
(0 0 0)
(0 0 0)
(0 0 0)
(0 0 0)
(0 0 0)
(0 0 0)
(0 0 0)
(0 0 0)
(0 0 0)
(0 0 0)
(0 0 0)
(0 0 0)
(0 0 0)
(0 0 0)
(0 0 0)
(0 0 0)
(0 0 0)
(0 0 0)
(0 0 0)
(0 0 0)
(0 0 0)
(0 0 0)
(0 0 0)
(0 0 0)
(0 0 0)
)
;

boundaryField
{
    inlet
    {
        type            zeroGradient;
    }
    outlet
    {
        type            zeroGradient;
    }
    walls
    {
        type            zeroGradient;
    }
}


// ************************************************************************* //
