/*--------------------------------*- C++ -*----------------------------------*\
| =========                 |                                                 |
| \\      /  F ield         | OpenFOAM: The Open Source CFD Toolbox           |
|  \\    /   O peration     | Version:  5.x                                   |
|   \\  /    A nd           | Web:      www.OpenFOAM.org                      |
|    \\/     M anipulation  |                                                 |
\*---------------------------------------------------------------------------*/
FoamFile
{
    version     2.0;
    format      ascii;
    class       volScalarField;
    location    "0.15";
    object      p;
}
// * * * * * * * * * * * * * * * * * * * * * * * * * * * * * * * * * * * * * //

dimensions      [0 2 -2 0 0 0 0];

internalField   nonuniform List<scalar> 
160
(
-7.04845e-06
-7.26198e-06
-7.23672e-06
-7.07987e-06
-7.13878e-06
-7.25128e-06
-7.23714e-06
-7.18116e-06
-7.26295e-06
-7.33692e-06
-7.34077e-06
-7.28976e-06
-7.28246e-06
-7.32181e-06
-7.32434e-06
-7.31726e-06
-7.33456e-06
-7.36244e-06
-7.36719e-06
-7.35592e-06
-7.34302e-06
-7.35986e-06
-7.36232e-06
-7.36503e-06
-7.36338e-06
-7.37546e-06
-7.37737e-06
-7.37979e-06
-7.36805e-06
-7.37679e-06
-7.37805e-06
-7.38219e-06
-7.37492e-06
-7.38188e-06
-7.38295e-06
-7.38701e-06
-7.37734e-06
-7.3828e-06
-7.38367e-06
-7.38757e-06
-7.26198e-06
-7.84899e-06
-7.59347e-06
-7.64246e-06
-7.25128e-06
-7.66127e-06
-7.51691e-06
-7.58257e-06
-7.33692e-06
-7.58737e-06
-7.51678e-06
-7.55144e-06
-7.32181e-06
-7.48044e-06
-7.44438e-06
-7.48704e-06
-7.36244e-06
-7.46269e-06
-7.43871e-06
-7.47004e-06
-7.35986e-06
-7.41951e-06
-7.41096e-06
-7.43643e-06
-7.37546e-06
-7.41387e-06
-7.40813e-06
-7.42699e-06
-7.37679e-06
-7.40057e-06
-7.39887e-06
-7.41254e-06
-7.38188e-06
-7.39823e-06
-7.39795e-06
-7.40864e-06
-7.3828e-06
-7.39344e-06
-7.39413e-06
-7.40163e-06
-7.23672e-06
-7.59347e-06
-7.51309e-06
-7.53578e-06
-7.23714e-06
-7.51691e-06
-7.429e-06
-7.48858e-06
-7.34077e-06
-7.51678e-06
-7.48045e-06
-7.49047e-06
-7.32434e-06
-7.44438e-06
-7.41521e-06
-7.45433e-06
-7.36719e-06
-7.43871e-06
-7.42356e-06
-7.44391e-06
-7.36232e-06
-7.41096e-06
-7.40177e-06
-7.42491e-06
-7.37737e-06
-7.40813e-06
-7.40282e-06
-7.41914e-06
-7.37805e-06
-7.39887e-06
-7.39629e-06
-7.40989e-06
-7.38295e-06
-7.39795e-06
-7.39707e-06
-7.40765e-06
-7.38367e-06
-7.39413e-06
-7.39445e-06
-7.40232e-06
-7.07987e-06
-7.64246e-06
-7.53578e-06
-7.63387e-06
-7.18116e-06
-7.58257e-06
-7.48858e-06
-7.6063e-06
-7.28976e-06
-7.55144e-06
-7.49047e-06
-7.57494e-06
-7.31726e-06
-7.48704e-06
-7.45433e-06
-7.52589e-06
-7.35592e-06
-7.47004e-06
-7.44391e-06
-7.50146e-06
-7.36503e-06
-7.43643e-06
-7.42491e-06
-7.46599e-06
-7.37979e-06
-7.42699e-06
-7.41914e-06
-7.45027e-06
-7.38219e-06
-7.41254e-06
-7.40989e-06
-7.43093e-06
-7.38701e-06
-7.40864e-06
-7.40765e-06
-7.42412e-06
-7.38757e-06
-7.40163e-06
-7.40232e-06
-7.41324e-06
)
;

boundaryField
{
    inlet
    {
        type            zeroGradient;
    }
    outlet
    {
        type            totalPressure;
        rho             rho;
        psi             none;
        gamma           1;
        p0              nonuniform 0();
        value           nonuniform 0();
    }
    walls
    {
        type            zeroGradient;
    }
    procBoundary1to0
    {
        type            processor;
        value           nonuniform List<scalar> 
16
(
-6.79132e-06
-7.03445e-06
-6.94636e-06
-6.79666e-06
-7.03445e-06
-7.87098e-06
-7.46682e-06
-7.53546e-06
-6.94636e-06
-7.46682e-06
-7.24626e-06
-7.34346e-06
-6.79666e-06
-7.53546e-06
-7.34346e-06
-7.52004e-06
)
;
    }
}


// ************************************************************************* //
