/*--------------------------------*- C++ -*----------------------------------*\
| =========                 |                                                 |
| \\      /  F ield         | OpenFOAM: The Open Source CFD Toolbox           |
|  \\    /   O peration     | Version:  5.x                                   |
|   \\  /    A nd           | Web:      www.OpenFOAM.org                      |
|    \\/     M anipulation  |                                                 |
\*---------------------------------------------------------------------------*/
FoamFile
{
    version     2.0;
    format      ascii;
    class       surfaceScalarField;
    location    "0.15";
    object      phi;
}
// * * * * * * * * * * * * * * * * * * * * * * * * * * * * * * * * * * * * * //

dimensions      [0 3 -1 0 0 0 0];

internalField   nonuniform List<scalar> 
384
(
5.55785e-11
2.25535e-11
5.55785e-11
1.7353e-12
-3.95496e-11
3.29903e-10
-5.01878e-11
-2.31707e-11
2.76962e-10
2.17259e-11
1.22367e-10
2.43077e-11
1.74347e-11
2.43077e-11
3.35867e-12
-1.32671e-11
1.51788e-10
-1.6824e-11
-1.03255e-11
1.23795e-10
1.55996e-11
7.5606e-11
1.63743e-11
1.10978e-11
1.63743e-11
3.01679e-12
-1.30108e-12
8.63713e-11
-1.33641e-11
-1.65624e-12
7.4291e-11
1.08757e-11
5.12701e-11
7.38094e-12
7.9123e-12
7.38094e-12
2.60909e-12
1.29016e-12
4.08164e-11
-3.1955e-12
-1.30823e-14
3.62831e-11
7.49709e-12
3.0768e-11
5.41284e-12
5.22444e-12
5.41284e-12
2.16485e-12
2.5022e-12
2.30683e-11
-2.52967e-12
1.7129e-12
2.10297e-11
4.90518e-12
1.99841e-11
2.925e-12
3.61342e-12
2.925e-12
1.74709e-12
2.04196e-12
1.21247e-11
2.23982e-14
1.40137e-12
1.17912e-11
3.09535e-12
1.21958e-11
2.19229e-12
2.39772e-12
2.19229e-12
1.42228e-12
1.62789e-12
7.02386e-12
1.90201e-13
1.25425e-12
7.03631e-12
1.84726e-12
7.69189e-12
1.45913e-12
1.51766e-12
1.45913e-12
1.17559e-12
1.03862e-12
4.127e-12
6.40206e-13
7.92867e-13
4.33574e-12
1.01682e-12
4.81028e-12
1.14386e-12
8.18659e-13
1.14386e-12
9.80424e-13
5.64589e-13
2.62772e-12
6.2099e-13
4.32597e-13
2.82855e-12
4.59077e-13
3.17194e-12
7.47594e-13
7.47594e-13
7.18098e-13
1.49046e-12
5.62121e-13
1.6431e-12
1.81102e-12
3.29903e-10
-3.95496e-11
1.7353e-12
-1.17337e-11
-5.43215e-10
-1.17337e-11
-2.36056e-10
-3.75238e-10
2.70191e-11
-7.89093e-11
2.56103e-11
1.51788e-10
-1.32671e-11
3.35867e-12
9.72287e-12
-2.59085e-10
9.72287e-12
-7.4042e-11
-1.88634e-10
2.09558e-11
-5.13504e-11
2.49818e-11
8.63713e-11
-1.30108e-12
3.01679e-12
1.23935e-11
-1.11129e-10
1.23935e-11
-3.73836e-11
-8.17277e-11
1.71618e-11
-3.1226e-11
2.07011e-11
4.08164e-11
1.29016e-12
2.60909e-12
1.15341e-11
-5.25648e-11
1.15341e-11
-6.93403e-12
-4.02625e-11
1.32861e-11
-1.87366e-11
1.63703e-11
2.30683e-11
2.5022e-12
2.16485e-12
8.0556e-12
-2.25394e-11
8.0556e-12
-2.07618e-12
-1.82757e-11
9.17466e-12
-1.07738e-11
1.17758e-11
1.21247e-11
2.04196e-12
1.74709e-12
6.07359e-12
-1.04372e-11
6.07359e-12
1.73296e-12
-8.9685e-12
6.82461e-12
-6.41788e-12
8.38748e-12
7.02386e-12
1.62789e-12
1.42228e-12
4.06618e-12
-4.52185e-12
4.06618e-12
1.78737e-12
-4.25806e-12
4.60468e-12
-3.73981e-12
5.69585e-12
4.127e-12
1.03862e-12
1.17559e-12
2.90151e-12
-2.07087e-12
2.90151e-12
1.81511e-12
-2.14469e-12
3.30878e-12
-2.20537e-12
3.90844e-12
2.62772e-12
5.64589e-13
9.80424e-13
2.05681e-12
-9.29055e-13
2.05681e-12
1.44051e-12
-1.05255e-12
2.35271e-12
-1.24282e-12
2.74265e-12
1.49046e-12
7.18098e-13
1.30651e-12
1.30651e-12
1.03515e-12
1.48959e-12
1.66372e-12
2.76962e-10
-2.31707e-11
-5.01878e-11
2.70191e-11
-3.75238e-10
-2.36056e-10
-2.0402e-10
-3.44105e-10
-2.0402e-10
-5.62179e-11
-3.40831e-11
1.23795e-10
-1.03255e-11
-1.6824e-11
2.09558e-11
-1.88634e-10
-7.4042e-11
-6.08048e-11
-1.80584e-10
-6.08048e-11
-3.62895e-11
-2.20991e-12
7.4291e-11
-1.65624e-12
-1.33641e-11
1.71618e-11
-8.17277e-11
-3.73836e-11
-3.49329e-11
-7.63946e-11
-3.49329e-11
-2.22387e-11
3.70294e-12
3.62831e-11
-1.30823e-14
-3.1955e-12
1.32861e-11
-4.02625e-11
-6.93403e-12
-5.2955e-12
-3.92313e-11
-5.2955e-12
-1.42047e-11
8.86835e-12
2.10297e-11
1.7129e-12
-2.52967e-12
9.17466e-12
-1.82757e-11
-2.07618e-12
-1.43659e-12
-1.80088e-11
-1.43659e-12
-9.13976e-12
7.45953e-12
1.17912e-11
1.40137e-12
2.23982e-14
6.82461e-12
-8.9685e-12
1.73296e-12
2.47384e-12
-9.30729e-12
2.47384e-12
-5.96403e-12
6.21087e-12
7.03631e-12
1.25425e-12
1.90201e-13
4.60468e-12
-4.25806e-12
1.78737e-12
2.28772e-12
-4.67339e-12
2.28772e-12
-3.89346e-12
4.49894e-12
4.33574e-12
7.92867e-13
6.40206e-13
3.30878e-12
-2.14469e-12
1.81511e-12
2.22525e-12
-2.50634e-12
2.22525e-12
-2.46219e-12
3.20877e-12
2.82855e-12
4.32597e-13
6.2099e-13
2.35271e-12
-1.05255e-12
1.44051e-12
1.73763e-12
-1.27619e-12
1.73763e-12
-1.46291e-12
2.33395e-12
1.6431e-12
5.62121e-13
1.48959e-12
1.03515e-12
1.21608e-12
1.21608e-12
1.44223e-12
1.22367e-10
2.17259e-11
2.56103e-11
-7.89093e-11
-3.40831e-11
-5.62179e-11
-3.16644e-12
7.5606e-11
1.55996e-11
2.49818e-11
-5.13504e-11
-2.20991e-12
-3.62895e-11
-1.27115e-11
5.12701e-11
1.08757e-11
2.07011e-11
-3.1226e-11
3.70294e-12
-2.22387e-11
-1.56713e-11
3.0768e-11
7.49709e-12
1.63703e-11
-1.87366e-11
8.86835e-12
-1.42047e-11
-1.36256e-11
1.99841e-11
4.90518e-12
1.17758e-11
-1.07738e-11
7.45953e-12
-9.13976e-12
-1.0809e-11
1.21958e-11
3.09535e-12
8.38748e-12
-6.41788e-12
6.21087e-12
-5.96403e-12
-7.88823e-12
7.69189e-12
1.84726e-12
5.69585e-12
-3.73981e-12
4.49894e-12
-3.89346e-12
-5.48423e-12
4.81028e-12
1.01682e-12
3.90844e-12
-2.20537e-12
3.20877e-12
-2.46219e-12
-3.61973e-12
3.17194e-12
4.59077e-13
2.74265e-12
-1.24282e-12
2.33395e-12
-1.46291e-12
-2.15127e-12
1.81102e-12
1.66372e-12
1.44223e-12
)
;

boundaryField
{
    inlet
    {
        type            calculated;
        value           nonuniform List<scalar> 
16
(
3.35752e-13
1.74597e-13
1.1353e-13
1.38607e-13
1.74597e-13
-5.61176e-13
-6.27676e-13
-7.27399e-13
1.1353e-13
-6.27676e-13
-7.29185e-13
-8.37698e-13
1.38607e-13
-7.27399e-13
-8.37698e-13
-1.20687e-12
)
;
    }
    outlet
    {
        type            calculated;
        value           nonuniform 0();
    }
    walls
    {
        type            calculated;
        value           nonuniform List<scalar> 
160
(
-5.00393e-11
-2.17484e-11
-1.32058e-11
-5.78818e-12
-4.06891e-12
-2.11949e-12
-1.58444e-12
-1.01909e-12
-7.94357e-13
-5.06142e-13
-3.43645e-10
-1.57122e-10
-8.49798e-11
-3.86358e-11
-2.10324e-11
-1.04865e-11
-5.83976e-12
-3.25419e-12
-1.99026e-12
-1.07097e-12
-2.52951e-10
-1.16458e-10
-6.65794e-11
-3.21217e-11
-1.80612e-11
-9.75495e-12
-5.6571e-12
-3.33897e-12
-2.10885e-12
-1.16806e-12
-1.16637e-10
-7.13079e-11
-4.69931e-11
-2.7111e-11
-1.70853e-11
-9.99669e-12
-6.12289e-12
-3.67566e-12
-2.34605e-12
-1.28509e-12
-4.33983e-11
-1.49956e-11
-1.29172e-11
-3.47385e-12
-2.83662e-12
-3.66826e-13
-1.30705e-13
3.36029e-13
3.52841e-13
3.56661e-13
-1.65235e-10
-5.09767e-11
-2.69389e-11
-5.02573e-12
-1.8306e-12
1.18528e-12
1.10534e-12
1.1825e-12
9.07249e-13
6.67027e-13
-1.79653e-10
-5.35415e-11
-3.19856e-11
-5.8276e-12
-2.18526e-12
1.47471e-12
1.41405e-12
1.49366e-12
1.14704e-12
8.12358e-13
-2.44069e-11
2.56264e-12
5.18283e-12
7.84551e-12
6.05122e-12
4.75048e-12
3.29694e-12
2.27653e-12
1.59972e-12
9.70028e-13
-5.00393e-11
-2.17484e-11
-1.32058e-11
-5.78818e-12
-4.06891e-12
-2.11949e-12
-1.58444e-12
-1.01909e-12
-7.94357e-13
-5.06142e-13
-3.43645e-10
-1.57122e-10
-8.49798e-11
-3.86358e-11
-2.10324e-11
-1.04865e-11
-5.83976e-12
-3.25419e-12
-1.99026e-12
-1.07097e-12
-2.52951e-10
-1.16458e-10
-6.65794e-11
-3.21217e-11
-1.80612e-11
-9.75495e-12
-5.6571e-12
-3.33897e-12
-2.10885e-12
-1.16806e-12
-1.16637e-10
-7.13079e-11
-4.69931e-11
-2.7111e-11
-1.70853e-11
-9.99669e-12
-6.12289e-12
-3.67566e-12
-2.34605e-12
-1.28509e-12
-4.33983e-11
-1.49956e-11
-1.29172e-11
-3.47385e-12
-2.83662e-12
-3.66825e-13
-1.30705e-13
3.36029e-13
3.52841e-13
3.56661e-13
-1.65235e-10
-5.09767e-11
-2.69389e-11
-5.02573e-12
-1.8306e-12
1.18528e-12
1.10534e-12
1.1825e-12
9.07249e-13
6.67027e-13
-1.79653e-10
-5.35415e-11
-3.19856e-11
-5.8276e-12
-2.18526e-12
1.47471e-12
1.41405e-12
1.49366e-12
1.14704e-12
8.12358e-13
-2.44069e-11
2.56264e-12
5.18283e-12
7.84551e-12
6.05122e-12
4.75048e-12
3.29694e-12
2.27653e-12
1.59972e-12
9.70028e-13
)
;
    }
    procBoundary1to0
    {
        type            processor;
        value           nonuniform List<scalar> 
16
(
-3.36318e-11
1.07134e-10
5.1083e-11
-3.42452e-11
1.07134e-10
1.22649e-09
8.49503e-10
1.04845e-10
5.1083e-11
8.49503e-10
8.06184e-10
9.15442e-11
-3.42452e-11
1.04845e-10
9.15442e-11
-1.6186e-11
)
;
    }
}


// ************************************************************************* //
