/*--------------------------------*- C++ -*----------------------------------*\
| =========                 |                                                 |
| \\      /  F ield         | OpenFOAM: The Open Source CFD Toolbox           |
|  \\    /   O peration     | Version:  5.x                                   |
|   \\  /    A nd           | Web:      www.OpenFOAM.org                      |
|    \\/     M anipulation  |                                                 |
\*---------------------------------------------------------------------------*/
FoamFile
{
    version     2.0;
    format      ascii;
    class       volVectorField;
    location    "0.15";
    object      U;
}
// * * * * * * * * * * * * * * * * * * * * * * * * * * * * * * * * * * * * * //

dimensions      [0 1 -1 0 0 0 0];

internalField   nonuniform List<vector> 
160
(
(8.04845e-06 4.2789e-06 8.04845e-06)
(8.39992e-06 -8.62099e-06 5.50992e-05)
(-7.80136e-06 -3.80462e-06 4.05427e-05)
(-6.97469e-06 4.117e-06 1.8773e-05)
(3.50196e-06 2.53466e-06 3.50196e-06)
(3.80833e-06 -4.72254e-06 2.52205e-05)
(-2.63749e-06 -3.90429e-06 1.86886e-05)
(-2.41036e-06 2.37297e-06 1.14885e-05)
(2.12754e-06 2.46149e-06 2.12754e-06)
(2.731e-06 -8.81357e-08 1.36463e-05)
(-1.79456e-06 1.22955e-07 1.06875e-05)
(-2.07683e-06 2.09126e-06 7.57058e-06)
(9.3388e-07 1.16011e-06 9.3388e-07)
(1.27236e-06 -3.26053e-07 6.2131e-06)
(-3.88574e-07 -5.53559e-07 5.16322e-06)
(-5.57212e-07 1.18605e-06 4.37128e-06)
(6.5653e-07 1.11886e-06 6.5653e-07)
(9.37962e-07 6.33312e-07 3.38501e-06)
(-2.59649e-07 5.2821e-07 2.90393e-06)
(-4.56084e-07 9.74384e-07 2.75618e-06)
(3.42444e-07 5.60276e-07 3.42444e-07)
(5.20236e-07 2.05399e-07 1.68964e-06)
(6.55837e-08 7.95429e-08 1.57041e-06)
(-5.81587e-08 5.07649e-07 1.61357e-06)
(2.55897e-07 4.90324e-07 2.55897e-07)
(3.85801e-07 3.69279e-07 9.41958e-07)
(8.61938e-08 3.07556e-07 9.11219e-07)
(-2.0436e-08 3.86247e-07 9.88983e-07)
(1.6478e-07 2.54396e-07 1.6478e-07)
(2.61121e-07 1.57419e-07 5.25373e-07)
(1.34056e-07 1.11478e-07 5.38355e-07)
(5.45816e-08 1.76581e-07 5.94101e-07)
(1.28472e-07 1.91934e-07 1.28472e-07)
(2.03797e-07 1.45549e-07 3.21676e-07)
(1.24795e-07 1.17582e-07 3.40382e-07)
(5.72568e-08 1.17015e-07 3.79639e-07)
(8.20585e-08 5.41979e-08 8.20585e-08)
(1.31876e-07 2.81165e-08 1.73458e-07)
(1.03759e-07 1.83068e-08 1.88956e-07)
(5.78355e-08 2.22877e-08 2.08386e-07)
(5.50992e-05 -8.62099e-06 8.39992e-06)
(4.18315e-05 -0.000108078 4.18315e-05)
(-4.45943e-05 -7.30601e-05 4.16237e-05)
(-2.64279e-05 -1.37758e-05 1.66125e-05)
(2.52205e-05 -4.72254e-06 3.80833e-06)
(1.94382e-05 -5.74411e-05 1.94382e-05)
(-1.56479e-05 -4.32946e-05 1.8223e-05)
(-8.14329e-06 -1.05381e-05 1.02955e-05)
(1.36463e-05 -8.81357e-08 2.731e-06)
(1.16858e-05 -2.17952e-05 1.16858e-05)
(-7.15851e-06 -1.56041e-05 1.13543e-05)
(-4.30337e-06 -5.45069e-06 7.19613e-06)
(6.2131e-06 -3.26053e-07 1.27236e-06)
(5.73273e-06 -1.19986e-05 5.73273e-06)
(-1.62474e-06 -9.5931e-06 5.57575e-06)
(-7.9568e-07 -3.94758e-06 4.48507e-06)
(3.38501e-06 6.33312e-07 9.37962e-07)
(3.33199e-06 -4.30927e-06 3.33199e-06)
(-4.69448e-07 -3.44556e-06 3.31006e-06)
(-2.867e-07 -1.87184e-06 2.97962e-06)
(1.68964e-06 2.05399e-07 5.20236e-07)
(1.84236e-06 -2.48194e-06 1.84236e-06)
(2.8073e-07 -2.15265e-06 1.90164e-06)
(1.94683e-07 -1.33982e-06 1.89138e-06)
(9.41958e-07 3.69279e-07 3.85801e-07)
(1.09812e-06 -8.58612e-07 1.09812e-06)
(3.23983e-07 -7.96137e-07 1.15818e-06)
(1.80585e-07 -6.58338e-07 1.21798e-06)
(5.25373e-07 1.57419e-07 2.61121e-07)
(6.74593e-07 -4.95404e-07 6.74593e-07)
(3.30847e-07 -5.00983e-07 7.34205e-07)
(1.91903e-07 -4.53347e-07 7.87781e-07)
(3.21676e-07 1.45549e-07 2.03797e-07)
(4.41425e-07 -1.82325e-07 4.41425e-07)
(2.69077e-07 -2.12572e-07 4.87653e-07)
(1.47275e-07 -2.4498e-07 5.29567e-07)
(1.73458e-07 2.81165e-08 1.31876e-07)
(2.54616e-07 -9.0736e-08 2.54616e-07)
(1.89403e-07 -1.01184e-07 2.85327e-07)
(1.08206e-07 -1.17769e-07 3.05685e-07)
(4.05427e-05 -3.80462e-06 -7.80136e-06)
(4.16237e-05 -7.30601e-05 -4.45943e-05)
(-3.22107e-05 -6.36201e-05 -3.22107e-05)
(-2.874e-05 -9.70384e-06 -7.33932e-06)
(1.86886e-05 -3.90429e-06 -2.63749e-06)
(1.8223e-05 -4.32946e-05 -1.56479e-05)
(-1.07207e-05 -4.23494e-05 -1.07207e-05)
(-8.55486e-06 -8.31047e-06 -1.36317e-06)
(1.06875e-05 1.22955e-07 -1.79456e-06)
(1.13543e-05 -1.56041e-05 -7.15851e-06)
(-5.36513e-06 -1.40071e-05 -5.36513e-06)
(-5.11571e-06 -3.81662e-06 1.03009e-07)
(5.16322e-06 -5.53559e-07 -3.88574e-07)
(5.57575e-06 -9.5931e-06 -1.62474e-06)
(-9.18331e-07 -9.42844e-06 -9.18331e-07)
(-9.2468e-07 -3.10077e-06 1.21747e-06)
(2.90393e-06 5.2821e-07 -2.59649e-07)
(3.31006e-06 -3.44556e-06 -4.69448e-07)
(-1.19357e-07 -3.31887e-06 -1.19357e-07)
(-3.45616e-07 -1.56361e-06 1.12531e-06)
(1.57041e-06 7.95429e-08 6.55837e-08)
(1.90164e-06 -2.15265e-06 2.8073e-07)
(4.66279e-07 -2.2058e-06 4.66279e-07)
(2.40531e-07 -1.24042e-06 1.00391e-06)
(9.11219e-07 3.07556e-07 8.61938e-08)
(1.15818e-06 -7.96137e-07 3.23983e-07)
(4.37162e-07 -8.67563e-07 4.37162e-07)
(2.29476e-07 -6.84701e-07 7.49596e-07)
(5.38355e-07 1.11478e-07 1.34056e-07)
(7.34205e-07 -5.00983e-07 3.30847e-07)
(4.0813e-07 -5.69203e-07 4.0813e-07)
(2.41673e-07 -4.98291e-07 5.52087e-07)
(3.40382e-07 1.17582e-07 1.24795e-07)
(4.87653e-07 -2.12572e-07 2.69077e-07)
(3.226e-07 -2.68012e-07 3.226e-07)
(1.8562e-07 -2.98255e-07 4.08844e-07)
(1.88956e-07 1.83068e-08 1.03759e-07)
(2.85327e-07 -1.01184e-07 1.89403e-07)
(2.20292e-07 -1.17187e-07 2.20292e-07)
(1.31531e-07 -1.35085e-07 2.528e-07)
(1.8773e-05 4.117e-06 -6.97469e-06)
(1.66125e-05 -1.37758e-05 -2.64279e-05)
(-7.33932e-06 -9.70384e-06 -2.874e-05)
(-3.88573e-06 5.97395e-07 -3.88573e-06)
(1.14885e-05 2.37297e-06 -2.41036e-06)
(1.02955e-05 -1.05381e-05 -8.14329e-06)
(-1.36317e-06 -8.31047e-06 -8.55486e-06)
(4.33269e-07 -1.66157e-06 4.33269e-07)
(7.57058e-06 2.09126e-06 -2.07683e-06)
(7.19613e-06 -5.45069e-06 -4.30337e-06)
(1.03009e-07 -3.81662e-06 -5.11571e-06)
(8.45933e-07 -2.28055e-06 8.45933e-07)
(4.37128e-06 1.18605e-06 -5.57212e-07)
(4.48507e-06 -3.94758e-06 -7.9568e-07)
(1.21747e-06 -3.10077e-06 -9.2468e-07)
(1.26941e-06 -2.37953e-06 1.26941e-06)
(2.75618e-06 9.74384e-07 -4.56084e-07)
(2.97962e-06 -1.87184e-06 -2.867e-07)
(1.12531e-06 -1.56361e-06 -3.45616e-07)
(9.7956e-07 -1.7545e-06 9.7956e-07)
(1.61357e-06 5.07649e-07 -5.81587e-08)
(1.89138e-06 -1.33982e-06 1.94683e-07)
(1.00391e-06 -1.24042e-06 2.40531e-07)
(7.68188e-07 -1.44307e-06 7.68188e-07)
(9.88983e-07 3.86247e-07 -2.0436e-08)
(1.21798e-06 -6.58338e-07 1.80585e-07)
(7.49596e-07 -6.84701e-07 2.29476e-07)
(5.33657e-07 -9.46181e-07 5.33657e-07)
(5.94101e-07 1.76581e-07 5.45816e-08)
(7.87781e-07 -4.53347e-07 1.91903e-07)
(5.52087e-07 -4.98291e-07 2.41673e-07)
(3.68401e-07 -6.75269e-07 3.68401e-07)
(3.79639e-07 1.17015e-07 5.72568e-08)
(5.29567e-07 -2.4498e-07 1.47275e-07)
(4.08844e-07 -2.98255e-07 1.8562e-07)
(2.59206e-07 -4.29503e-07 2.59206e-07)
(2.08386e-07 2.22877e-08 5.78355e-08)
(3.05685e-07 -1.17769e-07 1.08206e-07)
(2.528e-07 -1.35085e-07 1.31531e-07)
(1.57358e-07 -1.95242e-07 1.57358e-07)
)
;

boundaryField
{
    inlet
    {
        type            fixedValue;
        value           uniform (0 0 0);
    }
    outlet
    {
        type            zeroGradient;
    }
    walls
    {
        type            fixedValue;
        value           uniform (0 0 0);
    }
    procBoundary1to0
    {
        type            processor;
        value           nonuniform List<vector> 
16
(
(9.00797e-06 5.32724e-06 9.00797e-06)
(6.6082e-06 -2.82803e-05 7.56356e-05)
(-7.69877e-06 -1.43685e-05 4.88142e-05)
(-4.23252e-06 5.76253e-06 2.29895e-05)
(7.56356e-05 -2.82803e-05 6.6082e-06)
(4.57697e-05 -0.00026362 4.57697e-05)
(-6.12158e-05 -0.000187476 3.53942e-05)
(-2.56042e-05 -2.15181e-05 1.69049e-05)
(4.88142e-05 -1.43685e-05 -7.69877e-06)
(3.53942e-05 -0.000187476 -6.12158e-05)
(-3.71654e-05 -0.000182486 -3.71654e-05)
(-1.96179e-05 -2.14974e-05 -9.98747e-06)
(2.29895e-05 5.76253e-06 -4.23252e-06)
(1.69049e-05 -2.15181e-05 -2.56042e-05)
(-9.98747e-06 -2.14974e-05 -1.96179e-05)
(-2.68924e-06 3.86292e-06 -2.68924e-06)
)
;
    }
}


// ************************************************************************* //
