/*--------------------------------*- C++ -*----------------------------------*\
| =========                 |                                                 |
| \\      /  F ield         | OpenFOAM: The Open Source CFD Toolbox           |
|  \\    /   O peration     | Version:  5.x                                   |
|   \\  /    A nd           | Web:      www.OpenFOAM.org                      |
|    \\/     M anipulation  |                                                 |
\*---------------------------------------------------------------------------*/
FoamFile
{
    version     2.0;
    format      ascii;
    class       volVectorField;
    location    "0.15";
    object      Us;
}
// * * * * * * * * * * * * * * * * * * * * * * * * * * * * * * * * * * * * * //

dimensions      [0 1 -1 0 0 0 0];

internalField   uniform (0 0 0);

boundaryField
{
    inlet
    {
        type            zeroGradient;
    }
    outlet
    {
        type            zeroGradient;
    }
    walls
    {
        type            zeroGradient;
    }
    procBoundary1to0
    {
        type            processor;
        value           nonuniform List<vector> 
16
(
(-3.54584e-21 -7.35978e-18 -3.54584e-21)
(-1.30187e-19 -2.70217e-16 -1.30187e-19)
(-1.40415e-19 -2.91447e-16 -1.40415e-19)
(-1.53225e-20 -3.18035e-17 -1.53225e-20)
(-1.30187e-19 -2.70217e-16 -1.30187e-19)
(-4.62883e-18 -9.60766e-15 -4.62883e-18)
(-4.98638e-18 -1.03498e-14 -4.98638e-18)
(-5.3723e-19 -1.11508e-15 -5.3723e-19)
(-1.40415e-19 -2.91447e-16 -1.40415e-19)
(-4.98638e-18 -1.03498e-14 -4.98638e-18)
(-5.37767e-18 -1.1162e-14 -5.37767e-18)
(-5.86337e-19 -1.21701e-15 -5.86337e-19)
(-1.53225e-20 -3.18035e-17 -1.53225e-20)
(-5.3723e-19 -1.11508e-15 -5.3723e-19)
(-5.86337e-19 -1.21701e-15 -5.86337e-19)
(-7.20117e-20 -1.49468e-16 -7.20117e-20)
)
;
    }
}


// ************************************************************************* //
