/*--------------------------------*- C++ -*----------------------------------*\
| =========                 |                                                 |
| \\      /  F ield         | OpenFOAM: The Open Source CFD Toolbox           |
|  \\    /   O peration     | Version:  5.x                                   |
|   \\  /    A nd           | Web:      www.OpenFOAM.org                      |
|    \\/     M anipulation  |                                                 |
\*---------------------------------------------------------------------------*/
FoamFile
{
    version     2.0;
    format      ascii;
    class       volScalarField;
    location    "0.03";
    object      Ksl;
}
// * * * * * * * * * * * * * * * * * * * * * * * * * * * * * * * * * * * * * //

dimensions      [1 -3 -1 0 0 0 0];

internalField   nonuniform List<scalar> 
160
(
0
0
0
0
0
0
0
0
0
0
0
0
0
0
0
0
0
0
0
0
0.000153588
0.000496209
0.000284263
5.36166e-05
0.00165986
0.00979245
0.00615013
0.000693577
0.106068
0.415056
0.251021
0.0395436
0.669148
2.09808
1.14783
0.284465
2.77249
3.12806
1.50767
1.33784
0
0
0
0
0
0
0
0
0
0
0
0
0
0
0
0
0
0.000117938
6.72559e-05
0
0.000496209
0.00226215
0.00132615
0.000272523
0.00979245
0.128135
0.0630949
0.00592979
0.415056
3.07105
2.26123
0.242218
2.09808
3.11592
1.50756
1.11723
3.12806
3.16384
1.49595
1.47926
0
0
0
0
0
0
0
0
0
0
0
0
0
0
0
0
0
6.72559e-05
4.30401e-05
0
0.000284263
0.00132615
0.000800062
0.000175285
0.00615013
0.0630949
0.0439632
0.00331748
0.251021
2.26123
0.978619
0.135128
1.14783
1.50756
1.01319
0.679801
1.50767
1.49595
1.00103
1.00326
0
0
0
0
0
0
0
0
0
0
0
0
0
0
0
0
0
0
0
0
5.36166e-05
0.000272523
0.000175285
0
0.000693577
0.00592979
0.00331748
0.000524283
0.0395436
0.242218
0.135128
0.0321409
0.284465
1.11723
0.679801
0.217843
1.33784
1.47926
1.00326
0.895028
)
;

boundaryField
{
    inlet
    {
        type            zeroGradient;
    }
    outlet
    {
        type            zeroGradient;
    }
    walls
    {
        type            zeroGradient;
    }
    procBoundary0to1
    {
        type            processor;
        value           nonuniform List<scalar> 
16
(
0.669045
2.09861
1.14802
0.284308
2.09861
3.11574
1.50751
1.11737
1.14802
1.50751
1.01313
0.679902
0.284308
1.11737
0.679902
0.217804
)
;
    }
}


// ************************************************************************* //
