/*--------------------------------*- C++ -*----------------------------------*\
| =========                 |                                                 |
| \\      /  F ield         | OpenFOAM: The Open Source CFD Toolbox           |
|  \\    /   O peration     | Version:  5.x                                   |
|   \\  /    A nd           | Web:      www.OpenFOAM.org                      |
|    \\/     M anipulation  |                                                 |
\*---------------------------------------------------------------------------*/
FoamFile
{
    version     2.0;
    format      ascii;
    class       volScalarField;
    location    "0.03";
    object      p;
}
// * * * * * * * * * * * * * * * * * * * * * * * * * * * * * * * * * * * * * //

dimensions      [0 2 -2 0 0 0 0];

internalField   nonuniform List<scalar> 
160
(
3.55071e-09
4.1563e-09
2.05226e-09
-2.06824e-09
1.38439e-08
1.45175e-08
7.70905e-09
-6.80252e-09
2.98963e-08
3.57081e-08
2.19795e-08
-1.32012e-08
5.01677e-08
5.02478e-08
3.21048e-08
-2.90929e-08
1.04794e-07
1.48704e-07
1.23637e-07
-3.32784e-08
1.01569e-07
1.22163e-07
8.8458e-08
-1.22055e-07
2.42975e-07
5.16962e-07
5.32619e-07
-8.06887e-08
3.53484e-08
1.37578e-07
1.36439e-08
-3.69643e-07
3.55914e-07
1.95635e-06
1.7964e-06
-3.12375e-07
-7.8213e-07
-7.83872e-07
-7.83741e-07
-7.81555e-07
4.1563e-09
5.79707e-09
3.54744e-09
-9.01337e-10
1.45175e-08
2.2866e-08
1.47476e-08
-2.41991e-09
3.57081e-08
5.90359e-08
3.98618e-08
-5.91733e-10
5.02478e-08
1.19228e-07
8.24495e-08
-9.93243e-09
1.48704e-07
3.26778e-07
2.5888e-07
4.57711e-08
1.22163e-07
4.66972e-07
3.22408e-07
-7.93802e-08
5.16962e-07
2.1896e-06
1.73536e-06
3.54902e-07
1.37578e-07
2.04705e-06
9.92942e-07
-2.73898e-07
1.95635e-06
1.85368e-05
1.18037e-05
1.18469e-06
-7.83872e-07
-7.88597e-07
-7.85931e-07
-7.83701e-07
2.05226e-09
3.54744e-09
1.62494e-09
-2.97579e-09
7.70905e-09
1.47476e-08
8.04113e-09
-1.04363e-08
2.19795e-08
3.98618e-08
2.73249e-08
-1.82753e-08
3.21048e-08
8.24495e-08
6.38759e-08
-4.78448e-08
1.23637e-07
2.5888e-07
2.39646e-07
-1.65202e-08
8.8458e-08
3.22408e-07
2.92449e-07
-2.25473e-07
5.32619e-07
1.73536e-06
1.89304e-06
1.54795e-07
1.36439e-08
9.92942e-07
5.85706e-07
-6.01711e-07
1.7964e-06
1.18037e-05
1.19498e-05
5.4727e-08
-7.83741e-07
-7.85931e-07
-7.88743e-07
-7.83937e-07
-2.06824e-09
-9.01337e-10
-2.97579e-09
-6.1013e-09
-6.80252e-09
-2.41991e-09
-1.04363e-08
-2.15643e-08
-1.32012e-08
-5.91733e-10
-1.82753e-08
-4.33552e-08
-2.90929e-08
-9.93243e-09
-4.78448e-08
-8.37962e-08
-3.32784e-08
4.57711e-08
-1.65202e-08
-1.20118e-07
-1.22055e-07
-7.93802e-08
-2.25473e-07
-2.67017e-07
-8.06887e-08
3.54902e-07
1.54795e-07
-2.23903e-07
-3.69643e-07
-2.73898e-07
-6.01711e-07
-5.87591e-07
-3.12375e-07
1.18469e-06
5.4727e-08
-5.69493e-07
-7.81555e-07
-7.83701e-07
-7.83937e-07
-7.82081e-07
)
;

boundaryField
{
    inlet
    {
        type            zeroGradient;
    }
    outlet
    {
        type            totalPressure;
        rho             rho;
        psi             none;
        gamma           1;
        p0              uniform 0;
        value           nonuniform List<scalar> 
16
(
-2.55025e-16
0
0
-2.57265e-16
0
0
0
0
0
0
0
0
-2.57265e-16
0
0
-1.22061e-16
)
;
    }
    walls
    {
        type            zeroGradient;
    }
    procBoundary0to1
    {
        type            processor;
        value           nonuniform List<scalar> 
16
(
-1.91967e-06
-3.52351e-06
-3.36309e-06
-1.24924e-06
-3.52351e-06
-2.01073e-05
-1.3372e-05
-2.75118e-06
-3.36309e-06
-1.3372e-05
-1.35202e-05
-1.62189e-06
-1.24924e-06
-2.75118e-06
-1.62189e-06
-9.94194e-07
)
;
    }
}


// ************************************************************************* //
