/*--------------------------------*- C++ -*----------------------------------*\
| =========                 |                                                 |
| \\      /  F ield         | OpenFOAM: The Open Source CFD Toolbox           |
|  \\    /   O peration     | Version:  5.x                                   |
|   \\  /    A nd           | Web:      www.OpenFOAM.org                      |
|    \\/     M anipulation  |                                                 |
\*---------------------------------------------------------------------------*/
FoamFile
{
    version     2.0;
    format      ascii;
    class       volVectorField;
    location    "0.03";
    object      U;
}
// * * * * * * * * * * * * * * * * * * * * * * * * * * * * * * * * * * * * * //

dimensions      [0 1 -1 0 0 0 0];

internalField   nonuniform List<vector> 
160
(
(-6.67341e-09 2.0536e-08 -6.67341e-09)
(-6.75911e-09 -8.30038e-09 -9.6512e-09)
(6.29739e-09 -8.61956e-09 -9.22879e-09)
(6.1431e-09 2.05532e-08 -7.39759e-09)
(-2.25553e-08 2.63278e-08 -2.25553e-08)
(-2.3436e-08 -2.38139e-08 -3.97532e-08)
(2.30764e-08 -2.36771e-08 -3.72499e-08)
(2.30805e-08 3.05197e-08 -2.77333e-08)
(-5.67416e-08 4.75506e-08 -5.67416e-08)
(-5.75416e-08 -2.44451e-08 -1.02541e-07)
(6.11128e-08 -3.21016e-08 -9.40897e-08)
(6.00352e-08 6.08485e-08 -6.67063e-08)
(-9.44339e-08 6.11195e-08 -9.44339e-08)
(-1.04977e-07 -1.68312e-07 -2.67855e-07)
(1.0967e-07 -1.7914e-07 -2.35308e-07)
(1.15295e-07 9.12798e-08 -1.29914e-07)
(-2.85758e-07 2.26099e-07 -2.85758e-07)
(-3.0041e-07 2.81565e-08 -6.55331e-07)
(3.22521e-07 -3.00322e-08 -5.61722e-07)
(3.29196e-07 2.91441e-07 -3.39086e-07)
(-2.93244e-07 1.69355e-07 -2.93244e-07)
(-3.6977e-07 -8.89384e-07 -1.50669e-06)
(3.80563e-07 -1.02904e-06 -1.23472e-06)
(4.35525e-07 2.89582e-07 -4.42294e-07)
(-1.33681e-06 9.79503e-07 -1.33681e-06)
(-1.50443e-06 5.99189e-07 -5.15389e-06)
(1.50553e-06 4.89742e-07 -4.13917e-06)
(1.63611e-06 1.15166e-06 -1.64372e-06)
(-6.96564e-07 9.98009e-07 -6.96564e-07)
(-9.0051e-07 -2.79612e-06 -6.83115e-06)
(9.73064e-07 -3.44504e-06 -5.23362e-06)
(1.1152e-06 1.23377e-06 -9.86606e-07)
(-5.08325e-06 3.34621e-06 -5.08325e-06)
(-5.95288e-06 3.65072e-06 -4.71731e-05)
(5.54119e-06 3.9953e-06 -3.56448e-05)
(6.25602e-06 3.10406e-06 -6.08741e-06)
(2.49042e-09 6.14343e-06 2.49042e-09)
(2.31626e-09 2.60518e-06 5.78497e-09)
(-3.10822e-09 8.34064e-06 2.14266e-09)
(-2.738e-09 5.54535e-06 2.85385e-09)
(-9.6512e-09 -8.30038e-09 -6.75911e-09)
(-9.27445e-09 -5.82153e-08 -9.27445e-09)
(8.36827e-09 -5.5739e-08 -9.43846e-09)
(7.92095e-09 -1.4601e-08 -7.33669e-09)
(-3.97532e-08 -2.38139e-08 -2.3436e-08)
(-3.81376e-08 -1.18575e-07 -3.81376e-08)
(3.46327e-08 -1.10455e-07 -3.82927e-08)
(3.2423e-08 -2.94015e-08 -2.67467e-08)
(-1.02541e-07 -2.44451e-08 -5.75416e-08)
(-9.45474e-08 -2.57708e-07 -9.45474e-08)
(9.579e-08 -2.35203e-07 -9.70163e-08)
(8.70092e-08 -4.24752e-08 -6.25288e-08)
(-2.67855e-07 -1.68312e-07 -1.04977e-07)
(-2.46677e-07 -7.3211e-07 -2.46677e-07)
(2.4672e-07 -6.56576e-07 -2.49231e-07)
(2.19579e-07 -1.82898e-07 -1.13123e-07)
(-6.55331e-07 2.81565e-08 -3.0041e-07)
(-5.74649e-07 -1.23844e-06 -5.74649e-07)
(6.35983e-07 -1.05488e-06 -6.1621e-07)
(5.50646e-07 -2.30351e-08 -3.04353e-07)
(-1.50669e-06 -8.89384e-07 -3.6977e-07)
(-1.31988e-06 -5.48362e-06 -1.31988e-06)
(1.4509e-06 -4.68912e-06 -1.42246e-06)
(1.2239e-06 -1.02843e-06 -3.4008e-07)
(-5.15389e-06 5.99189e-07 -1.50443e-06)
(-4.31317e-06 -4.83652e-06 -4.31317e-06)
(5.03051e-06 -3.60329e-06 -4.9618e-06)
(4.12547e-06 6.24349e-07 -1.4313e-06)
(-6.83115e-06 -2.79612e-06 -9.0051e-07)
(-5.46603e-06 -4.59199e-05 -5.46603e-06)
(6.86278e-06 -3.58645e-05 -6.44628e-06)
(5.3548e-06 -3.27183e-06 -6.43724e-07)
(-4.71731e-05 3.65072e-06 -5.95288e-06)
(-3.66851e-05 -3.91994e-06 -3.66851e-05)
(4.70181e-05 -1.18662e-06 -4.65844e-05)
(3.57873e-05 3.86998e-06 -5.08605e-06)
(5.78497e-09 2.60518e-06 2.31626e-09)
(1.93547e-08 -0.000361828 1.93547e-08)
(-2.15055e-08 -0.000249884 2.17894e-08)
(-1.96526e-09 8.03072e-06 3.2451e-09)
(-9.22879e-09 -8.61956e-09 6.29739e-09)
(-9.43846e-09 -5.5739e-08 8.36827e-09)
(8.10006e-09 -5.65016e-08 8.10006e-09)
(8.20886e-09 -1.29381e-08 5.74016e-09)
(-3.72499e-08 -2.36771e-08 2.30764e-08)
(-3.82927e-08 -1.10455e-07 3.46327e-08)
(3.40222e-08 -1.12716e-07 3.40222e-08)
(3.43867e-08 -2.4421e-08 2.25761e-08)
(-9.40897e-08 -3.21016e-08 6.11128e-08)
(-9.70163e-08 -2.35203e-07 9.579e-08)
(9.23509e-08 -2.45394e-07 9.23509e-08)
(9.43364e-08 -2.44401e-08 5.7551e-08)
(-2.35308e-07 -1.7914e-07 1.0967e-07)
(-2.49231e-07 -6.56576e-07 2.4672e-07)
(2.41745e-07 -7.06267e-07 2.41745e-07)
(2.49519e-07 -1.49027e-07 1.19165e-07)
(-5.61722e-07 -3.00322e-08 3.22521e-07)
(-6.1621e-07 -1.05488e-06 6.35983e-07)
(5.9103e-07 -1.21271e-06 5.9103e-07)
(6.4056e-07 7.15844e-08 3.2023e-07)
(-1.23472e-06 -1.02904e-06 3.80563e-07)
(-1.42246e-06 -4.68912e-06 1.4509e-06)
(1.35746e-06 -5.43147e-06 1.35746e-06)
(1.50542e-06 -8.34435e-07 4.40974e-07)
(-4.13917e-06 4.89742e-07 1.50553e-06)
(-4.9618e-06 -3.60329e-06 5.03051e-06)
(4.38416e-06 -4.58144e-06 4.38416e-06)
(5.14361e-06 8.87521e-07 1.62006e-06)
(-5.23362e-06 -3.44504e-06 9.73064e-07)
(-6.44628e-06 -3.58645e-05 6.86278e-06)
(5.79396e-06 -4.57113e-05 5.79396e-06)
(6.86431e-06 -2.41663e-06 1.0873e-06)
(-3.56448e-05 3.9953e-06 5.54119e-06)
(-4.65844e-05 -1.18662e-06 4.70181e-05)
(3.715e-05 -3.75875e-06 3.715e-05)
(4.73557e-05 3.35175e-06 6.13793e-06)
(2.14266e-09 8.34064e-06 -3.10822e-09)
(2.17894e-08 -0.000249884 -2.15055e-08)
(-1.94223e-08 -0.000342481 -1.94223e-08)
(-5.63044e-09 2.15569e-06 -2.24e-09)
(-7.39759e-09 2.05532e-08 6.1431e-09)
(-7.33669e-09 -1.4601e-08 7.92095e-09)
(5.74016e-09 -1.29381e-08 8.20886e-09)
(5.46408e-09 1.3575e-08 5.46408e-09)
(-2.77333e-08 3.05197e-08 2.30805e-08)
(-2.67467e-08 -2.94015e-08 3.2423e-08)
(2.25761e-08 -2.4421e-08 3.43867e-08)
(2.07686e-08 2.2449e-08 2.07686e-08)
(-6.67063e-08 6.08485e-08 6.00352e-08)
(-6.25288e-08 -4.24752e-08 8.70092e-08)
(5.7551e-08 -2.44401e-08 9.43364e-08)
(5.16285e-08 5.35171e-08 5.16285e-08)
(-1.29914e-07 9.12798e-08 1.15295e-07)
(-1.13123e-07 -1.82898e-07 2.19579e-07)
(1.19165e-07 -1.49027e-07 2.49519e-07)
(9.74472e-08 7.89638e-08 9.74472e-08)
(-3.39086e-07 2.91441e-07 3.29196e-07)
(-3.04353e-07 -2.30351e-08 5.50646e-07)
(3.2023e-07 7.15844e-08 6.4056e-07)
(2.77815e-07 2.92139e-07 2.77815e-07)
(-4.42294e-07 2.89582e-07 4.35525e-07)
(-3.4008e-07 -1.02843e-06 1.2239e-06)
(4.40974e-07 -8.34435e-07 1.50542e-06)
(3.1664e-07 2.69076e-07 3.1664e-07)
(-1.64372e-06 1.15166e-06 1.63611e-06)
(-1.4313e-06 6.24349e-07 4.12547e-06)
(1.62006e-06 8.87521e-07 5.14361e-06)
(1.37041e-06 1.23047e-06 1.37041e-06)
(-9.86606e-07 1.23377e-06 1.1152e-06)
(-6.43724e-07 -3.27183e-06 5.3548e-06)
(1.0873e-06 -2.41663e-06 6.86431e-06)
(6.80455e-07 1.24225e-06 6.80455e-07)
(-6.08741e-06 3.10406e-06 6.25602e-06)
(-5.08605e-06 3.86998e-06 3.57873e-05)
(6.13793e-06 3.35175e-06 4.73557e-05)
(4.97746e-06 3.03079e-06 4.97746e-06)
(2.85385e-09 5.54535e-06 -2.738e-09)
(3.2451e-09 8.03072e-06 -1.96526e-09)
(-2.24e-09 2.15569e-06 -5.63044e-09)
(-2.46739e-09 5.46299e-06 -2.46739e-09)
)
;

boundaryField
{
    inlet
    {
        type            fixedValue;
        value           nonuniform 0();
    }
    outlet
    {
        type            zeroGradient;
    }
    walls
    {
        type            fixedValue;
        value           uniform (0 0 0);
    }
    procBoundary0to1
    {
        type            processor;
        value           nonuniform List<vector> 
16
(
(5.08701e-06 3.34064e-06 5.08701e-06)
(5.95339e-06 3.64031e-06 4.71669e-05)
(-5.53973e-06 3.98513e-06 3.56381e-05)
(-6.26145e-06 3.09898e-06 6.09291e-06)
(4.71669e-05 3.64031e-06 5.95339e-06)
(3.66937e-05 -3.79979e-06 3.66937e-05)
(-4.70335e-05 -1.13241e-06 4.66002e-05)
(-3.57805e-05 3.8597e-06 5.08453e-06)
(3.56381e-05 3.98513e-06 -5.53973e-06)
(4.66002e-05 -1.13241e-06 -4.70335e-05)
(-3.71586e-05 -3.63411e-06 -3.71586e-05)
(-4.73499e-05 3.34136e-06 -6.1383e-06)
(6.09291e-06 3.09898e-06 -6.26145e-06)
(5.08453e-06 3.8597e-06 -3.57805e-05)
(-6.1383e-06 3.34136e-06 -4.73499e-05)
(-4.98099e-06 3.02525e-06 -4.98099e-06)
)
;
    }
}


// ************************************************************************* //
