/*--------------------------------*- C++ -*----------------------------------*\
| =========                 |                                                 |
| \\      /  F ield         | OpenFOAM: The Open Source CFD Toolbox           |
|  \\    /   O peration     | Version:  5.x                                   |
|   \\  /    A nd           | Web:      www.OpenFOAM.org                      |
|    \\/     M anipulation  |                                                 |
\*---------------------------------------------------------------------------*/
FoamFile
{
    version     2.0;
    format      ascii;
    class       volVectorField;
    location    "0.03";
    object      Us;
}
// * * * * * * * * * * * * * * * * * * * * * * * * * * * * * * * * * * * * * //

dimensions      [0 1 -1 0 0 0 0];

internalField   nonuniform List<vector> 
160
(
(1.57937e-28 -4.01715e-20 1.57937e-28)
(1.05959e-27 -2.69507e-19 1.05959e-27)
(1.05815e-27 -2.69141e-19 1.05815e-27)
(1.50445e-28 -3.82658e-20 1.50445e-28)
(9.32251e-27 -2.37119e-18 9.32251e-27)
(6.88069e-26 -1.75011e-17 6.8807e-26)
(6.874e-26 -1.74841e-17 6.87401e-26)
(8.94718e-27 -2.27572e-18 8.94718e-27)
(5.46916e-25 -1.39108e-16 5.46916e-25)
(4.48028e-24 -1.13956e-15 4.48028e-24)
(4.47729e-24 -1.1388e-15 4.47729e-24)
(5.28684e-25 -1.34471e-16 5.28684e-25)
(3.11981e-23 -7.93524e-15 3.11981e-23)
(2.87238e-22 -7.3059e-14 2.87238e-22)
(2.87114e-22 -7.30275e-14 2.87114e-22)
(3.03678e-23 -7.72407e-15 3.03678e-23)
(1.7163e-21 -4.36543e-13 1.7163e-21)
(1.80437e-20 -4.58942e-12 1.80437e-20)
(1.80391e-20 -4.58824e-12 1.80391e-20)
(1.68173e-21 -4.27749e-13 1.68173e-21)
(8.99345e-20 -2.28749e-11 8.99345e-20)
(1.10225e-18 -2.80357e-10 1.10225e-18)
(1.1021e-18 -2.80319e-10 1.1021e-18)
(8.86742e-20 -2.25543e-11 8.86743e-20)
(4.39898e-18 -1.11888e-09 4.39898e-18)
(6.46562e-17 -1.64453e-08 6.46562e-17)
(6.46524e-17 -1.64444e-08 6.46524e-17)
(4.36218e-18 -1.10952e-09 4.36218e-18)
(1.93679e-16 -4.92622e-08 1.93679e-16)
(3.55648e-15 -9.04593e-07 3.55648e-15)
(3.55642e-15 -9.04577e-07 3.55642e-15)
(1.93002e-16 -4.90903e-08 1.93003e-16)
(7.10726e-15 -1.80773e-06 7.10726e-15)
(1.73937e-13 -4.4241e-05 1.73937e-13)
(1.73937e-13 -4.42408e-05 1.73937e-13)
(7.10685e-15 -1.80763e-06 7.10685e-15)
(1.73921e-13 -4.42369e-05 1.73921e-13)
(6.38203e-12 -0.00162327 6.38203e-12)
(6.38201e-12 -0.00162327 6.38201e-12)
(1.73904e-13 -4.42326e-05 1.73904e-13)
(1.05959e-27 -2.69507e-19 1.05959e-27)
(7.79943e-27 -1.98379e-18 7.79944e-27)
(7.78485e-27 -1.98008e-18 7.78486e-27)
(1.00882e-27 -2.56594e-19 1.00882e-27)
(6.88069e-26 -1.75011e-17 6.8807e-26)
(5.62973e-25 -1.43192e-16 5.62973e-25)
(5.62241e-25 -1.43006e-16 5.62241e-25)
(6.61048e-26 -1.68138e-17 6.61048e-26)
(4.48028e-24 -1.13956e-15 4.48028e-24)
(4.12052e-23 -1.04806e-14 4.12052e-23)
(4.11699e-23 -1.04716e-14 4.11699e-23)
(4.34092e-24 -1.10411e-15 4.34092e-24)
(2.87238e-22 -7.3059e-14 2.87238e-22)
(3.01694e-21 -7.67359e-13 3.01694e-21)
(3.01536e-21 -7.66957e-13 3.01536e-21)
(2.80524e-22 -7.13513e-14 2.80524e-22)
(1.80437e-20 -4.58942e-12 1.80437e-20)
(2.20969e-19 -5.62036e-11 2.20969e-19)
(2.20906e-19 -5.61875e-11 2.20906e-19)
(1.77519e-20 -4.5152e-12 1.77519e-20)
(1.10225e-18 -2.80357e-10 1.10225e-18)
(1.61902e-17 -4.11798e-09 1.61902e-17)
(1.6188e-17 -4.11744e-09 1.61881e-17)
(1.09161e-18 -2.77651e-10 1.09161e-18)
(6.46562e-17 -1.64453e-08 6.46562e-17)
(1.18667e-15 -3.01829e-07 1.18667e-15)
(1.18661e-15 -3.01816e-07 1.18661e-15)
(6.43901e-17 -1.63777e-08 6.43901e-17)
(3.55648e-15 -9.04593e-07 3.55648e-15)
(8.70089e-14 -2.21307e-05 8.70089e-14)
(8.70083e-14 -2.21306e-05 8.70084e-14)
(3.55565e-15 -9.04381e-07 3.55565e-15)
(1.73937e-13 -4.4241e-05 1.73937e-13)
(6.38203e-12 -0.00162327 6.38203e-12)
(6.38203e-12 -0.00162327 6.38203e-12)
(1.73937e-13 -4.4241e-05 1.73937e-13)
(6.38203e-12 -0.00162327 6.38203e-12)
(4.68245e-10 -0.119098 4.68246e-10)
(4.68245e-10 -0.119098 4.68246e-10)
(6.38201e-12 -0.00162327 6.38201e-12)
(1.05815e-27 -2.69141e-19 1.05815e-27)
(7.78485e-27 -1.98008e-18 7.78486e-27)
(7.71387e-27 -1.96203e-18 7.71387e-27)
(9.44402e-28 -2.40209e-19 9.44403e-28)
(6.874e-26 -1.74841e-17 6.87401e-26)
(5.62241e-25 -1.43006e-16 5.62241e-25)
(5.58366e-25 -1.42021e-16 5.58366e-25)
(6.2553e-26 -1.59104e-17 6.2553e-26)
(4.47729e-24 -1.1388e-15 4.47729e-24)
(4.11699e-23 -1.04716e-14 4.11699e-23)
(4.09651e-23 -1.04195e-14 4.09651e-23)
(4.15137e-24 -1.0559e-15 4.15137e-24)
(2.87114e-22 -7.30275e-14 2.87114e-22)
(3.01536e-21 -7.66957e-13 3.01536e-21)
(3.00526e-21 -7.64389e-13 3.00526e-21)
(2.71091e-22 -6.8952e-14 2.71091e-22)
(1.80391e-20 -4.58824e-12 1.80391e-20)
(2.20906e-19 -5.61875e-11 2.20906e-19)
(2.20458e-19 -5.60736e-11 2.20458e-19)
(1.73302e-20 -4.40793e-12 1.73302e-20)
(1.1021e-18 -2.80319e-10 1.1021e-18)
(1.6188e-17 -4.11744e-09 1.61881e-17)
(1.61715e-17 -4.11324e-09 1.61715e-17)
(1.07597e-18 -2.73672e-10 1.07597e-18)
(6.46524e-17 -1.64444e-08 6.46524e-17)
(1.18661e-15 -3.01816e-07 1.18661e-15)
(1.18621e-15 -3.01713e-07 1.18621e-15)
(6.40104e-17 -1.62811e-08 6.40104e-17)
(3.55642e-15 -9.04577e-07 3.55642e-15)
(8.70083e-14 -2.21306e-05 8.70084e-14)
(8.70086e-14 -2.21307e-05 8.70086e-14)
(3.55644e-15 -9.04582e-07 3.55644e-15)
(1.73937e-13 -4.42408e-05 1.73937e-13)
(6.38203e-12 -0.00162327 6.38203e-12)
(6.38203e-12 -0.00162327 6.38203e-12)
(1.73937e-13 -4.4241e-05 1.73937e-13)
(6.38201e-12 -0.00162327 6.38201e-12)
(4.68245e-10 -0.119098 4.68246e-10)
(4.68245e-10 -0.119098 4.68246e-10)
(6.38203e-12 -0.00162327 6.38203e-12)
(1.50445e-28 -3.82658e-20 1.50445e-28)
(1.00882e-27 -2.56594e-19 1.00882e-27)
(9.44402e-28 -2.40209e-19 9.44403e-28)
(7.28551e-29 -1.85307e-20 7.28552e-29)
(8.94718e-27 -2.27572e-18 8.94718e-27)
(6.61048e-26 -1.68138e-17 6.61048e-26)
(6.2553e-26 -1.59104e-17 6.2553e-26)
(4.7194e-27 -1.20038e-18 4.7194e-27)
(5.28684e-25 -1.34471e-16 5.28684e-25)
(4.34092e-24 -1.10411e-15 4.34092e-24)
(4.15137e-24 -1.0559e-15 4.15137e-24)
(3.05594e-25 -7.77279e-17 3.05594e-25)
(3.03678e-23 -7.72407e-15 3.03678e-23)
(2.80524e-22 -7.13513e-14 2.80524e-22)
(2.71091e-22 -6.8952e-14 2.71091e-22)
(1.93835e-23 -4.9302e-15 1.93835e-23)
(1.68173e-21 -4.27749e-13 1.68173e-21)
(1.77519e-20 -4.5152e-12 1.77519e-20)
(1.73302e-20 -4.40793e-12 1.73302e-20)
(1.19522e-21 -3.04006e-13 1.19522e-21)
(8.86742e-20 -2.25543e-11 8.86743e-20)
(1.09161e-18 -2.77651e-10 1.09161e-18)
(1.07597e-18 -2.73672e-10 1.07597e-18)
(7.07395e-20 -1.79926e-11 7.07395e-20)
(4.36218e-18 -1.10952e-09 4.36218e-18)
(6.43901e-17 -1.63777e-08 6.43901e-17)
(6.40104e-17 -1.62811e-08 6.40104e-17)
(3.92354e-18 -9.97954e-10 3.92354e-18)
(1.93002e-16 -4.90903e-08 1.93003e-16)
(3.55565e-15 -9.04381e-07 3.55565e-15)
(3.55644e-15 -9.04582e-07 3.55644e-15)
(1.93239e-16 -4.91505e-08 1.93239e-16)
(7.10685e-15 -1.80763e-06 7.10685e-15)
(1.73937e-13 -4.4241e-05 1.73937e-13)
(1.73937e-13 -4.4241e-05 1.73937e-13)
(7.10775e-15 -1.80786e-06 7.10775e-15)
(1.73904e-13 -4.42326e-05 1.73904e-13)
(6.38201e-12 -0.00162327 6.38201e-12)
(6.38203e-12 -0.00162327 6.38203e-12)
(1.73921e-13 -4.42369e-05 1.73921e-13)
)
;

boundaryField
{
    inlet
    {
        type            zeroGradient;
    }
    outlet
    {
        type            zeroGradient;
    }
    walls
    {
        type            zeroGradient;
    }
    procBoundary0to1
    {
        type            processor;
        value           nonuniform List<vector> 
16
(
(7.1043e-15 -1.80698e-06 7.10431e-15)
(1.73907e-13 -4.42333e-05 1.73907e-13)
(1.73938e-13 -4.42413e-05 1.73938e-13)
(7.10561e-15 -1.80732e-06 7.10562e-15)
(1.73907e-13 -4.42333e-05 1.73907e-13)
(6.38199e-12 -0.00162326 6.382e-12)
(6.38203e-12 -0.00162327 6.38203e-12)
(1.73954e-13 -4.42454e-05 1.73954e-13)
(1.73938e-13 -4.42413e-05 1.73938e-13)
(6.38203e-12 -0.00162327 6.38203e-12)
(6.382e-12 -0.00162326 6.382e-12)
(1.73939e-13 -4.42415e-05 1.73939e-13)
(7.10561e-15 -1.80732e-06 7.10562e-15)
(1.73954e-13 -4.42454e-05 1.73954e-13)
(1.73939e-13 -4.42415e-05 1.73939e-13)
(7.10651e-15 -1.80754e-06 7.10651e-15)
)
;
    }
}


// ************************************************************************* //
