/*--------------------------------*- C++ -*----------------------------------*\
| =========                 |                                                 |
| \\      /  F ield         | OpenFOAM: The Open Source CFD Toolbox           |
|  \\    /   O peration     | Version:  5.x                                   |
|   \\  /    A nd           | Web:      www.OpenFOAM.org                      |
|    \\/     M anipulation  |                                                 |
\*---------------------------------------------------------------------------*/
FoamFile
{
    version     2.0;
    format      ascii;
    class       volScalarField;
    location    "0.039";
    object      phiIB;
}
// * * * * * * * * * * * * * * * * * * * * * * * * * * * * * * * * * * * * * //

dimensions      [0 2 -1 0 0 0 0];

internalField   nonuniform List<scalar> 
1553
(
-1.55602e-05
-1.55579e-05
-1.55656e-05
-1.55615e-05
-1.5576e-05
-1.55579e-05
-1.55555e-05
-1.55632e-05
-1.55591e-05
-1.55737e-05
-1.55656e-05
-1.55632e-05
-1.55709e-05
-1.55668e-05
-1.55814e-05
-1.55614e-05
-1.55591e-05
-1.55668e-05
-1.55627e-05
-1.55773e-05
-1.5576e-05
-1.55736e-05
-1.55813e-05
-1.55772e-05
-1.55917e-05
-3.37493e-05
-3.37491e-05
-3.37513e-05
-3.3752e-05
-3.37574e-05
-3.37491e-05
-3.3749e-05
-3.37513e-05
-3.37519e-05
-3.37574e-05
-3.37513e-05
-3.37512e-05
-3.37535e-05
-3.37542e-05
-3.37596e-05
-3.37519e-05
-3.37519e-05
-3.37542e-05
-3.37549e-05
-3.37603e-05
-3.37574e-05
-3.37574e-05
-3.37596e-05
-3.37603e-05
-3.37656e-05
-7.05182e-05
-7.05167e-05
-7.05257e-05
-7.05247e-05
-7.05424e-05
-7.05167e-05
-7.05153e-05
-7.05243e-05
-7.05234e-05
-7.0541e-05
-7.05256e-05
-7.05242e-05
-7.05332e-05
-7.05323e-05
-7.05499e-05
-7.05247e-05
-7.05233e-05
-7.05323e-05
-7.05314e-05
-7.0549e-05
-7.05423e-05
-7.05409e-05
-7.05498e-05
-7.05489e-05
-7.05662e-05
-9.85829e-05
-9.85821e-05
-9.85909e-05
-9.85917e-05
-9.86094e-05
-9.85821e-05
-9.85814e-05
-9.85902e-05
-9.85911e-05
-9.86087e-05
-9.85909e-05
-9.85902e-05
-9.85989e-05
-9.85997e-05
-9.86171e-05
-9.85917e-05
-9.8591e-05
-9.85997e-05
-9.86005e-05
-9.86178e-05
-9.86093e-05
-9.86086e-05
-9.86171e-05
-9.86178e-05
-9.86347e-05
-0.000130262
-0.000130261
-0.000130276
-0.000130276
-0.000130304
-0.000130261
-0.00013026
-0.000130274
-0.000130274
-0.000130302
-0.000130276
-0.000130274
-0.000130289
-0.000130289
-0.000130316
-0.000130276
-0.000130274
-0.000130289
-0.000130288
-0.000130316
-0.000130304
-0.000130302
-0.000130316
-0.000130316
-0.000130343
-0.000161873
-0.000161872
-0.00016189
-0.000161891
-0.000161928
-0.000161872
-0.00016187
-0.000161889
-0.00016189
-0.000161927
-0.00016189
-0.000161889
-0.000161907
-0.000161908
-0.000161944
-0.000161891
-0.00016189
-0.000161908
-0.000161909
-0.000161945
-0.000161928
-0.000161926
-0.000161944
-0.000161944
-0.000161979
-0.000191364
-0.000191361
-0.000191387
-0.000191387
-0.000191439
-0.000191361
-0.000191358
-0.000191384
-0.000191384
-0.000191435
-0.000191387
-0.000191384
-0.000191409
-0.000191409
-0.000191459
-0.000191387
-0.000191384
-0.000191409
-0.000191408
-0.000191458
-0.000191439
-0.000191435
-0.000191459
-0.000191458
-0.000191506
-0.00022376
-0.000223754
-0.000223786
-0.000223785
-0.000223857
-0.000223754
-0.000223749
-0.000223782
-0.00022378
-0.000223853
-0.000223786
-0.000223782
-0.000223814
-0.000223814
-0.000223884
-0.000223785
-0.00022378
-0.000223814
-0.000223814
-0.000223884
-0.000223857
-0.000223853
-0.000223884
-0.000223884
-0.000223951
-0.000252685
-0.000252677
-0.000252724
-0.000252723
-0.000252822
-0.000252677
-0.00025267
-0.000252717
-0.000252716
-0.000252815
-0.000252724
-0.000252717
-0.000252762
-0.000252761
-0.000252857
-0.000252722
-0.000252716
-0.000252761
-0.00025276
-0.000252856
-0.000252822
-0.000252815
-0.000252857
-0.000252855
-0.000252946
-0.000284618
-0.000284611
-0.000284677
-0.000284674
-0.000284819
-0.000284611
-0.000284603
-0.000284669
-0.000284667
-0.000284812
-0.000284677
-0.000284669
-0.000284734
-0.000284733
-0.000284873
-0.000284674
-0.000284667
-0.000284733
-0.000284735
-0.000284875
-0.000284819
-0.000284811
-0.000284873
-0.000284875
-0.000285007
-0.000313166
-0.000313162
-0.000313275
-0.000313264
-0.000313451
-0.000313162
-0.000313155
-0.000313265
-0.000313254
-0.000313443
-0.000313275
-0.000313264
-0.000313356
-0.000313348
-0.00031353
-0.000313264
-0.000313254
-0.000313348
-0.000313344
-0.000313526
-0.00031345
-0.000313443
-0.00031353
-0.000313526
-0.000313695
-0.000344381
-0.000344294
-0.00034431
-0.000344257
-0.000344488
-0.000344294
-0.000344222
-0.000344268
-0.00034423
-0.00034447
-0.000344309
-0.000344268
-0.000344382
-0.000344348
-0.000344588
-0.000344257
-0.00034423
-0.000344348
-0.000344314
-0.000344563
-0.000344487
-0.000344469
-0.000344588
-0.000344563
-0.000344792
-0.000372934
-0.000372515
-0.000371848
-0.000371468
-0.000371749
-0.000372515
-0.000372155
-0.000371644
-0.00037138
-0.000371672
-0.000371848
-0.000371644
-0.000371573
-0.000371468
-0.000371742
-0.000371468
-0.00037138
-0.000371468
-0.000371391
-0.000371664
-0.000371749
-0.000371672
-0.000371741
-0.000371664
-0.000371914
-0.000400739
-0.000400484
-0.000400309
-0.000399791
-0.000399857
-0.000400484
-0.000400235
-0.000400041
-0.000399559
-0.000399718
-0.000400309
-0.000400041
-0.000399703
-0.000399409
-0.000399745
-0.000399791
-0.000399559
-0.000399409
-0.000399197
-0.00039956
-0.000399856
-0.000399718
-0.000399744
-0.00039956
-0.000399925
-0.00042099
-0.000420894
-0.000421085
-0.000420721
-0.000420856
-0.000420894
-0.000420796
-0.000420976
-0.000420614
-0.00042079
-0.000421084
-0.000420975
-0.000421084
-0.000420713
-0.000420992
-0.00042072
-0.000420614
-0.000420713
-0.000420403
-0.000420816
-0.000420855
-0.00042079
-0.000420992
-0.000420816
-0.000421443
-0.000438166
-0.000438327
-0.000439061
-0.000439285
-0.000440413
-0.000438327
-0.000438454
-0.00043913
-0.000439274
-0.000440267
-0.00043906
-0.000439129
-0.000439727
-0.000439786
-0.000440641
-0.000439285
-0.000439273
-0.000439786
-0.000439816
-0.000440689
-0.000440413
-0.000440267
-0.000440641
-0.000440689
-0.000441769
-0.000445199
-0.000445846
-0.000447555
-0.00044873
-0.000450987
-0.000445845
-0.000446409
-0.000447972
-0.000448974
-0.000451035
-0.000447554
-0.000447971
-0.000449306
-0.000450031
-0.000451608
-0.000448728
-0.000448973
-0.000450031
-0.000450577
-0.000452039
-0.000450985
-0.000451034
-0.000451607
-0.000452039
-0.000453546
-0.000451943
-0.000453119
-0.000455942
-0.00045797
-0.000461228
-0.000453119
-0.000454166
-0.000456748
-0.000458498
-0.000461492
-0.000455941
-0.000456747
-0.000458896
-0.000460178
-0.000462738
-0.000457968
-0.000458497
-0.000460177
-0.0004611
-0.000463471
-0.000461226
-0.00046149
-0.000462737
-0.00046347
-0.000465907
-0.000450978
-0.000452262
-0.000455765
-0.000458781
-0.000463646
-0.000452262
-0.000453538
-0.000456944
-0.000459728
-0.000464288
-0.000455764
-0.000456943
-0.000460074
-0.000462354
-0.000466388
-0.000458779
-0.000459727
-0.000462354
-0.000464064
-0.000467545
-0.000463644
-0.000464286
-0.000466387
-0.000467544
-0.000470386
-0.000451641
-0.000453733
-0.000458303
-0.000462474
-0.00046975
-0.000453732
-0.00045561
-0.000460027
-0.000463897
-0.00047055
-0.000458301
-0.000460026
-0.000464362
-0.000467583
-0.000473277
-0.000462472
-0.000463895
-0.000467582
-0.000470059
-0.000475166
-0.000469747
-0.000470548
-0.000473275
-0.000475166
-0.000480051
-0.000452872
-0.0004543
-0.000458648
-0.000461979
-0.000470189
-0.000454298
-0.000455734
-0.000459811
-0.000463063
-0.000471042
-0.000458646
-0.00045981
-0.000463621
-0.000466801
-0.000474294
-0.000461976
-0.000463061
-0.0004668
-0.000469769
-0.000476363
-0.000470186
-0.00047104
-0.000474293
-0.000476363
-0.000481456
-0.000437854
-0.00044357
-0.000451224
-0.000458513
-0.000471559
-0.000443568
-0.000447844
-0.000454724
-0.000461003
-0.000473266
-0.000451222
-0.000454723
-0.000461141
-0.000466602
-0.000478029
-0.000458509
-0.000461001
-0.000466601
-0.000471117
-0.000481207
-0.000471555
-0.000473263
-0.000478027
-0.000481206
-0.000489738
-0.000445091
-0.00044851
-0.000456901
-0.000462126
-0.000475688
-0.000448508
-0.000452139
-0.000459042
-0.000463986
-0.000476284
-0.000456898
-0.000459041
-0.000465133
-0.000469003
-0.000480065
-0.000462122
-0.000463984
-0.000469002
-0.00047215
-0.00048167
-0.000475683
-0.000476281
-0.000480063
-0.00048167
-0.000489452
-0.00038656
-0.000408763
-0.000422722
-0.000441141
-0.000464807
-0.00040876
-0.000421981
-0.000433596
-0.000447165
-0.000468132
-0.000422718
-0.000433595
-0.000444819
-0.000455938
-0.00047455
-0.000441135
-0.000447161
-0.000455936
-0.000463799
-0.000478674
-0.0004648
-0.000468128
-0.000474547
-0.000478673
-0.000492416
-0.000406855
-0.000421258
-0.00044027
-0.000451142
-0.000477894
-0.000421255
-0.000435822
-0.000446342
-0.000456302
-0.000476702
-0.000440265
-0.000446341
-0.000456644
-0.000462586
-0.00048
-0.000451134
-0.000456298
-0.000462583
-0.000465341
-0.000480375
-0.000477886
-0.000476698
-0.000479997
-0.000480374
-0.000492156
-0.000234079
-0.000331819
-0.000352191
-0.000402067
-0.000443949
-0.000331813
-0.000373079
-0.000387096
-0.000416517
-0.000447995
-0.00035218
-0.000387094
-0.000403613
-0.000428624
-0.000455872
-0.000402055
-0.000416512
-0.00042862
-0.000438353
-0.000462966
-0.000443935
-0.000447987
-0.000455866
-0.000462964
-0.00048369
-0.000272213
-0.000346188
-0.000386262
-0.000410907
-0.000453128
-0.000346185
-0.000411295
-0.000409285
-0.000429818
-0.000458035
-0.000386252
-0.000409282
-0.000423343
-0.000432836
-0.000466396
-0.000410893
-0.000429812
-0.000432831
-0.000446113
-0.000470108
-0.00045311
-0.000458024
-0.000466389
-0.000470105
-0.000487484
0.000245309
-0.000199692
-0.000214376
-0.000334051
-0.000387594
-0.000199683
-0.000309056
-0.000312481
-0.000357851
-0.000408377
-0.00021435
-0.000312476
-0.000326019
-0.000374342
-0.000421907
-0.000334032
-0.00035784
-0.000374336
-0.000400542
-0.000437401
-0.000387557
-0.000408359
-0.000421892
-0.000437396
-0.000463716
0.000607704
-7.98051e-05
-0.000225855
-0.000345807
-0.000435051
-7.98149e-05
-0.000392653
-0.000328522
-0.000407104
-0.00044441
-0.000225825
-0.000328507
-0.000367705
-0.000414243
-0.000453214
-0.00034579
-0.000407093
-0.000414238
-0.000437588
-0.000458357
-0.000435016
-0.000444389
-0.0004532
-0.00045835
-0.000475208
0.00431977
0.00088599
-6.14001e-05
-0.00030141
-0.000349983
0.000886042
-4.35352e-05
-0.000212115
-0.000307467
-0.000376089
-6.13379e-05
-0.000212096
-0.000263604
-0.000345184
-0.000392732
-0.000301398
-0.000307452
-0.000345179
-0.000374944
-0.00041032
-0.000349915
-0.000376061
-0.000392706
-0.000410311
-0.000433366
6.8723e-05
-0.000887063
-0.000573698
-0.000491226
-0.000473565
-0.000887145
-0.000628289
-0.000518219
-0.000451731
-0.000468447
-0.000573609
-0.000518191
-0.000474603
-0.000462849
-0.000456216
-0.000491215
-0.000451719
-0.000462845
-0.000446069
-0.000453229
-0.000473486
-0.000468408
-0.000456188
-0.000453217
-0.000451956
-0.00122724
-0.000520051
-0.000313059
-0.000334377
-0.000362916
-0.000520048
-0.000328069
-0.000322175
-0.000347222
-0.000366336
-0.000313011
-0.000322161
-0.000334257
-0.000360346
-0.000380431
-0.000334359
-0.000347205
-0.000360337
-0.000376745
-0.000384815
-0.000362839
-0.000366295
-0.000380401
-0.000384802
-0.000395628
0.00130679
-4.34611e-05
-0.000280071
-0.000365994
-0.000408522
-4.34811e-05
-0.000322576
-0.000365984
-0.000394747
-0.000417766
-0.000279984
-0.000365987
-0.000383848
-0.000412123
-0.000411705
-0.00036599
-0.000394735
-0.000412115
-0.000412189
-0.000413981
-0.00040843
-0.000417733
-0.000411668
-0.000413967
-0.000408029
0.00222055
-0.000144677
-0.000639773
-0.00042573
-0.000391522
-0.000144624
-0.000325753
-0.000470922
-0.000409039
-0.000368899
-0.000639776
-0.000470901
-0.000440796
-0.000388388
-0.000366487
-0.000425705
-0.000409025
-0.000388383
-0.000374117
-0.00035518
-0.000391469
-0.000368867
-0.00036646
-0.000355169
-0.000354449
-0.00210376
-0.00126501
-0.000640931
-0.000459884
-0.000443086
-0.00126501
-0.000561811
-0.000534116
-0.000449439
-0.000420542
-0.000640884
-0.000534108
-0.000490061
-0.000434268
-0.000405805
-0.000459867
-0.000449424
-0.000434263
-0.000412696
-0.000393472
-0.000443028
-0.000420515
-0.000405782
-0.000393463
-0.00038109
-0.000695841
-0.000539286
-0.000415577
-0.0003746
-0.000320661
-0.000539283
-0.000483957
-0.000399171
-0.00036196
-0.00032444
-0.000415557
-0.000399157
-0.000358747
-0.000347325
-0.000316195
-0.000374581
-0.000361947
-0.000347321
-0.000336052
-0.000317704
-0.000320622
-0.000324414
-0.000316175
-0.000317693
-0.000307471
-0.000545073
-0.000539908
-0.000426025
-0.000408915
-0.000368522
-0.000539901
-0.000491742
-0.000420425
-0.000401377
-0.000362335
-0.000426008
-0.000420419
-0.000394564
-0.000380065
-0.000350806
-0.000408901
-0.000401368
-0.000380061
-0.000365454
-0.000343192
-0.000368493
-0.000362318
-0.000350793
-0.000343185
-0.000333322
-0.000362848
-0.000377981
-0.000329063
-0.000327332
-0.000301789
-0.000377979
-0.000363513
-0.000333388
-0.000327331
-0.000305443
-0.00032905
-0.000333379
-0.000312964
-0.000319384
-0.000296437
-0.00032732
-0.000327321
-0.000319383
-0.000314712
-0.000297192
-0.000301764
-0.000305423
-0.000296425
-0.000297183
-0.000284418
-0.000172637
-0.000197365
-0.000184292
-0.000193176
-0.000188258
-0.000197362
-0.000203173
-0.000193165
-0.000197137
-0.000193936
-0.000184286
-0.000193163
-0.000190428
-0.00019732
-0.000195553
-0.000193169
-0.000197133
-0.000197318
-0.000202126
-0.00019786
-0.000188249
-0.000193929
-0.000195547
-0.000197856
-0.000195563
-0.000217637
-0.00020887
-0.000162526
-0.000142379
-9.89554e-05
-0.000208874
-0.000192187
-0.00015457
-0.000135458
-0.000101417
-0.000162525
-0.000154565
-0.000126235
-0.000118871
-9.7073e-05
-0.00014238
-0.000135455
-0.000118873
-0.000119057
-0.000103786
-9.89508e-05
-0.000101409
-9.70701e-05
-0.000103781
-9.90798e-05
-0.00107506
-0.00107498
-0.000246645
-0.00182959
-0.00134013
-0.00134004
-0.000480869
-0.000542672
-0.000522764
-0.00048028
-0.00110797
-0.000499372
-0.000616753
-0.00044864
-0.000522929
-0.000542796
-0.000480295
-0.00110794
-0.000616737
-0.000499364
-0.000448671
-0.000879857
-0.000879804
-0.000270013
-7.71925e-05
-8.97158e-05
-8.96645e-05
-0.000287335
-0.000216662
-0.000426137
-0.000230446
-0.000299471
-0.000298024
-0.000372713
-0.000331872
-0.000426071
-0.00021669
-0.000230437
-0.000299428
-0.000372674
-0.000298022
-0.000331878
0.000556913
0.000557531
0.000188256
0.00507859
0.00091951
0.000919509
9.47024e-05
0.00139134
0.00139137
-0.000165122
-0.00169855
-0.00307279
-0.00307281
-0.00120404
-0.000488821
-0.000257246
-0.000204731
-0.00131848
-0.000890696
-0.000967888
-0.000760916
-0.000257118
-0.000488768
-0.000204682
-0.00131849
-0.000967835
-0.000890711
-0.00076089
-0.00222635
-0.00222636
-0.00101093
-0.000977791
-0.000579303
-0.0005793
-0.000449166
-0.000754068
-0.00107681
-0.000551391
-0.000878175
-0.000534074
-0.000618712
-0.000393395
-0.0010768
-0.000754065
-0.000551398
-0.000878168
-0.000618695
-0.000534075
-0.00039339
-0.000823832
-0.000823831
-0.00103282
-0.000472962
-0.000512956
-0.000512952
-0.000425365
-8.9527e-05
-0.00100137
-0.00100134
-0.000698992
-0.000837964
-0.000434231
-0.000434201
-0.00159142
-0.0021887
-0.00218868
-0.00221878
-0.00223006
-0.00191634
-0.00191634
-0.000799008
-0.00104949
-0.00127244
-0.00142408
-0.000957453
-0.00138013
-0.000941659
-0.000799008
-0.00127244
-0.00104951
-0.00142407
-0.000957472
-0.00138012
-0.000941656
-0.00171374
-0.00148914
-0.00173918
-0.00173914
-0.0014721
-0.00158024
-0.00158021
-0.00162003
-0.00212387
-0.00171706
-0.00106008
-0.00185075
-0.00151719
-0.00159114
-0.00162
-0.00212378
-0.00171702
-0.00106003
-0.00185062
-0.00151718
-0.00159106
-0.00222478
-0.000666443
-0.00108276
-0.00108275
-0.00113246
-0.00113237
-0.00170024
-0.000506272
-0.00115482
-0.00066747
-0.000146053
-0.00104402
9.88534e-05
-0.000713224
-0.000506248
-0.00115477
-0.000667408
-0.000146052
-0.001044
9.88497e-05
-0.000713175
-0.00077654
-0.000732654
-0.000732643
0.000265746
-0.00096961
-0.000380898
-0.000380889
-0.0015239
-0.000989438
-0.00184876
-0.00184875
-0.00201327
-0.00124944
-0.00124943
-0.00199839
-0.00250104
-0.00202647
-0.00282034
-0.00190511
-0.00212966
-0.00175101
-0.00199841
-0.00250102
-0.00202644
-0.00282036
-0.00190514
-0.00212965
-0.00175099
-0.00189623
-0.00214682
-0.00196579
-0.00147175
-0.00214886
-0.00129952
-0.00193412
-0.00189622
-0.0021468
-0.0019658
-0.00147175
-0.00214885
-0.00129953
-0.00193411
-0.00247828
-0.00148912
-0.00148913
-0.000340491
-0.00260057
-0.00123717
-0.00123719
-0.00135163
-0.0013867
-0.000863333
-0.000863331
-0.000704432
-0.00137053
-0.00137053
-0.00159545
-0.00111563
-0.000976772
-0.000331073
-0.00105802
-0.00108498
-0.00127083
-0.00159545
-0.00111562
-0.000976767
-0.000331075
-0.00105803
-0.00108498
-0.00127082
0.00112012
0.00112014
0.000429712
0.00178828
0.00189949
0.00189954
0.000167387
-0.00140467
-0.000288348
-0.00028838
-0.000936541
-0.000711313
-0.00116268
-0.00116267
-0.00172036
-0.000970362
-0.000745372
-0.00276025
-0.00154151
-0.00249092
-0.00159208
-0.00172033
-0.000970515
-0.000745027
-0.00276011
-0.00154223
-0.00249068
-0.00159203
-0.000628239
-0.000851643
-0.000552984
-0.00104563
-0.000848155
-0.000397649
-0.00072627
-0.000628145
-0.000851645
-0.00104566
-0.000552927
-0.00084817
-0.000397617
-0.000726214
-0.00282899
-0.000936924
-0.00158243
-0.00158246
-0.00155818
-0.00155819
-0.00287481
-0.00235227
-0.00109731
-0.00109685
-0.000823669
-0.00182083
-0.00127284
-0.00127285
-0.000521476
0.00175456
0.00175463
0.000241057
0.00155011
-0.000133378
-0.000133359
-0.000459352
-0.000459374
-0.00038765
-0.000479965
-0.000441147
-0.000441162
-0.000385868
-0.0014519
0.000752146
0.000293938
0.000675716
0.000892259
0.000164726
-0.000890477
-0.00145201
0.00075239
0.000293854
0.000675657
0.000892366
0.000164692
-0.000890468
-0.000766304
-0.00114381
-0.00116846
-0.00119785
-0.00111531
-0.00109392
-0.000940602
-0.000766357
-0.00114381
-0.00119782
-0.00116849
-0.00111529
-0.00109394
-0.000940646
0.00133418
0.00133412
0.000883501
0.00309886
0.00441519
0.0040767
0.00407669
0.000113663
0.000443555
-6.74855e-05
-0.000653527
-5.37826e-05
0.00015623
-0.000132953
0.00044352
0.000113617
-6.74983e-05
-0.000653759
0.000156167
-5.37141e-05
-0.000133065
-0.000632724
-0.000181922
-0.000963126
-0.000948964
-0.000152631
-0.000786588
-0.000756477
-0.000632605
-0.000963427
-0.000181845
-0.000948963
-0.000152539
-0.000786673
-0.000756411
0.000179633
0.00114535
6.17139e-05
0.00175313
0.00157728
0.000614141
0.00276409
0.00017933
0.00114614
6.18208e-05
0.00175401
0.00157722
0.000614536
0.00276387
-0.000807261
-0.000169993
-0.000170008
-0.000316789
0.00102913
-0.000952357
-0.000952395
-0.000309006
-0.000308796
0.00103489
0.00140309
0.000392977
0.000540654
0.000540247
-0.000488533
-0.000488547
-0.000333848
-0.000848585
-0.00069652
-0.000696521
-0.000564743
-0.000935994
-0.000960087
-0.00112931
-0.000879256
-0.000998732
-0.000702592
-0.00103184
-0.00093602
-0.000960032
-0.00112929
-0.000879256
-0.000998694
-0.000702603
-0.00103186
0.00290573
0.00337295
0.00402479
0.00402492
0.00256482
0.00304794
0.00304802
-0.000582822
-0.000697328
-0.000247393
-0.000564975
-0.000442957
-0.000765007
-0.000477164
-0.000582767
-0.000697346
-0.000247396
-0.000564982
-0.000442864
-0.000765012
-0.000477105
-7.36996e-05
-0.000120867
-0.000110528
0.000386574
-0.000167188
-0.000107766
-0.000256403
-0.000120733
-7.36757e-05
-0.000110517
0.000386713
-0.000107666
-0.000167116
-0.00025642
-0.000340083
-0.000142475
-0.000137428
-0.00115361
-0.000308626
-0.00106773
-0.000259515
-0.000340096
-0.000137268
-0.000142539
-0.00115352
-0.000308744
-0.00106765
-0.000259495
0.00207146
0.00087798
0.00247003
0.000542212
0.000464548
0.00231086
0.00305611
0.00207112
0.00087829
0.00247023
0.000542447
0.000465165
0.00231204
0.00305639
5.17343e-05
5.17719e-05
-0.000289074
0.00167828
0.000962114
0.000962151
0.000506379
0.00290397
0.00383644
0.00383641
0.00672344
0.00295157
0.00396803
0.0039681
0.00279664
0.00213118
0.000835868
0.00170252
0.00169937
0.00135045
0.00296032
0.00279683
0.00213125
0.000835911
0.00170258
0.00169962
0.00135064
0.00296022
0.000390575
-0.000272386
0.000185377
0.000514764
0.000486718
0.000153245
0.000349437
-0.000272023
0.000390629
0.000185666
0.000514831
0.000486939
0.000153172
0.000349451
0.00128047
-0.000105092
0.000400226
0.000400053
0.000392221
0.000392279
0.00157911
0.00180131
0.000623695
0.00062357
0.00066913
0.00112645
0.0010585
0.00105841
-0.000738359
0.000301449
-0.000381057
-0.000690179
-0.000514442
-0.000506563
-0.000447766
-0.000738401
0.00030153
-0.000381112
-0.000690071
-0.000514499
-0.000506511
-0.000447796
)
;

boundaryField
{
    inlet
    {
        type            fixedValue;
        value           uniform 0;
    }
    wall
    {
        type            zeroGradient;
    }
    outlet
    {
        type            fixedValue;
        value           uniform 0;
    }
    procBoundary3to1
    {
        type            processor;
        value           nonuniform List<scalar> 
320
(
-1.55605e-05
-1.55582e-05
-1.55659e-05
-1.55617e-05
-1.55763e-05
-3.37497e-05
-3.37495e-05
-3.37517e-05
-3.37523e-05
-3.37577e-05
-7.05188e-05
-7.05173e-05
-7.05262e-05
-7.05253e-05
-7.05429e-05
-9.85837e-05
-9.85829e-05
-9.85916e-05
-9.85924e-05
-9.861e-05
-0.000130263
-0.000130262
-0.000130277
-0.000130277
-0.000130305
-0.000161874
-0.000161873
-0.000161891
-0.000161892
-0.000161929
-0.000191365
-0.000191362
-0.000191389
-0.000191388
-0.00019144
-0.000223761
-0.000223755
-0.000223788
-0.000223786
-0.000223858
-0.000252686
-0.000252679
-0.000252725
-0.000252724
-0.000252823
-0.000284619
-0.000284612
-0.000284678
-0.000284676
-0.00028482
-0.000313167
-0.000313164
-0.000313277
-0.000313266
-0.000313453
-0.00034438
-0.000344294
-0.00034431
-0.000344258
-0.000344489
-0.000372928
-0.000372511
-0.000371845
-0.000371468
-0.00037175
-0.000400737
-0.000400483
-0.000400308
-0.000399789
-0.000399857
-0.000420996
-0.0004209
-0.000421091
-0.000420727
-0.000420862
-0.00043818
-0.000438343
-0.000439077
-0.000439302
-0.000440428
-0.000445225
-0.000445873
-0.000447583
-0.000448759
-0.000451019
-0.000451978
-0.000453157
-0.00045598
-0.000458009
-0.000461267
-0.000451018
-0.000452306
-0.000455815
-0.000458833
-0.000463696
-0.000451681
-0.000453777
-0.000458354
-0.000462534
-0.000469809
-0.000452925
-0.000454356
-0.000458709
-0.000462045
-0.000470268
-0.000437901
-0.000443619
-0.000451286
-0.000458585
-0.000471653
-0.000445183
-0.000448602
-0.000457001
-0.000462229
-0.000475802
-0.000386605
-0.000408798
-0.000422799
-0.000441227
-0.00046492
-0.000406992
-0.000421422
-0.000440434
-0.00045131
-0.000478083
-0.000234171
-0.000331815
-0.000352293
-0.000402171
-0.000444112
-0.000272009
-0.000346393
-0.000386476
-0.00041116
-0.000453382
0.000244604
-0.00019983
-0.000214584
-0.000334196
-0.00038781
0.000607989
-7.90066e-05
-0.000225851
-0.000346029
-0.000435287
0.0043235
0.00088388
-6.1608e-05
-0.000301648
-0.000350121
6.86642e-05
-0.000887161
-0.000573758
-0.000491617
-0.000473867
-0.00122587
-0.000522169
-0.000313145
-0.00033475
-0.000362948
0.00129256
-4.82063e-05
-0.000280595
-0.000366244
-0.000408936
0.00222026
-0.000143746
-0.000638958
-0.000426035
-0.000391982
-0.00210743
-0.0012647
-0.000641594
-0.000460084
-0.000443981
-0.000742026
-0.00053621
-0.000416045
-0.000374842
-0.000321195
-0.00054572
-0.000541378
-0.000426153
-0.000409487
-0.000368883
-0.000364276
-0.000377374
-0.000329907
-0.000327911
-0.000302572
-0.000172214
-0.000197698
-0.000183979
-0.000193269
-0.000188475
-0.000219066
-0.000209702
-0.000163644
-0.000143325
-9.98866e-05
-0.00182824
-0.00133966
-0.00107444
-0.00110808
-0.000498258
-0.000545411
-7.40426e-05
-9.45807e-05
-0.000878644
-0.000299468
-0.000298502
-0.000220281
0.00507307
0.000922533
0.000557266
-0.00170031
-0.00307569
0.00139227
-0.00131784
-0.000891663
-0.000490971
-0.000984148
-0.000562789
-0.00223058
-0.000875077
-0.000537981
-0.000752132
-0.000501023
-0.000484109
-0.000862628
-0.00070019
-0.000435972
-0.00100164
-0.00221924
-0.00195159
-0.002201
-0.00142197
-0.000941691
-0.00105042
-0.00173809
-0.00158014
-0.0014891
-0.00212413
-0.00159102
-0.001719
-0.00115514
-0.000715086
-0.000144025
-0.00185102
-0.00125014
-0.000990142
-0.00250093
-0.00175115
-0.00202621
-0.000880326
-0.00140644
-0.00139124
-0.00111962
-0.00127456
-0.000978858
-0.00214733
-0.00195088
-0.00148798
0.00178873
0.00190314
0.00112003
-0.000936745
-0.00116287
-0.000288629
-0.000970709
-0.00159188
-0.00276014
-0.000552641
-0.000726152
-0.000851622
0.000240981
-0.000133831
0.00175383
0.000750815
-0.000891217
0.000675186
-0.00116853
-0.000940317
-0.00114354
0.00133415
0.00407881
0.00441683
-0.000651642
-5.45965e-05
0.000113973
-0.000948259
-0.000755916
-0.000182428
0.00157459
0.00277127
0.000178901
0.0040216
0.00304362
0.00336429
0.000387764
-0.000167956
-7.81282e-05
-0.00115399
-0.000259087
-0.000141815
0.00087938
0.00305635
0.00247121
0.00167774
0.000960061
5.12174e-05
0.00672556
0.00396998
0.00383951
0.00213368
0.00295825
0.00170301
0.000390796
0.000345458
0.000515332
)
;
    }
    procBoundary3to2
    {
        type            processor;
        value           nonuniform List<scalar> 
320
(
-1.55605e-05
-1.55581e-05
-1.55658e-05
-1.55617e-05
-1.55762e-05
-3.37497e-05
-3.37495e-05
-3.37516e-05
-3.37522e-05
-3.37577e-05
-7.05188e-05
-7.05173e-05
-7.05262e-05
-7.05252e-05
-7.05428e-05
-9.85837e-05
-9.85829e-05
-9.85916e-05
-9.85924e-05
-9.86099e-05
-0.000130263
-0.000130262
-0.000130277
-0.000130277
-0.000130305
-0.000161874
-0.000161873
-0.000161891
-0.000161892
-0.000161929
-0.000191365
-0.000191362
-0.000191388
-0.000191388
-0.00019144
-0.000223761
-0.000223755
-0.000223787
-0.000223786
-0.000223858
-0.000252686
-0.000252679
-0.000252725
-0.000252724
-0.000252823
-0.000284619
-0.000284612
-0.000284678
-0.000284676
-0.00028482
-0.000313167
-0.000313164
-0.000313277
-0.000313266
-0.000313452
-0.00034438
-0.000344294
-0.00034431
-0.000344258
-0.000344489
-0.000372928
-0.000372511
-0.000371845
-0.000371468
-0.00037175
-0.000400737
-0.000400483
-0.000400308
-0.000399789
-0.000399856
-0.000420995
-0.0004209
-0.000421091
-0.000420727
-0.000420861
-0.00043818
-0.000438343
-0.000439076
-0.000439301
-0.000440427
-0.000445225
-0.000445872
-0.000447582
-0.000448757
-0.000451016
-0.000451977
-0.000453155
-0.000455978
-0.000458006
-0.000461264
-0.000451017
-0.000452305
-0.000455813
-0.00045883
-0.000463692
-0.00045168
-0.000453775
-0.000458352
-0.00046253
-0.000469805
-0.000452924
-0.000454354
-0.000458706
-0.000462041
-0.000470264
-0.0004379
-0.000443617
-0.000451283
-0.00045858
-0.000471648
-0.000445182
-0.000448599
-0.000456996
-0.000462224
-0.000475796
-0.000386604
-0.000408793
-0.000422794
-0.000441219
-0.000464912
-0.00040699
-0.000421417
-0.000440428
-0.000451301
-0.000478074
-0.00023417
-0.000331807
-0.000352282
-0.000402157
-0.000444096
-0.000272004
-0.000346385
-0.000386462
-0.000411144
-0.000453361
0.000244602
-0.000199816
-0.000214562
-0.000334173
-0.000387776
0.000607976
-7.89952e-05
-0.000225816
-0.000346004
-0.000435249
0.00432356
0.000883897
-6.15596e-05
-0.000301618
-0.000350066
6.86676e-05
-0.000887189
-0.00057368
-0.000491587
-0.000473796
-0.00122585
-0.000522099
-0.000313071
-0.000334711
-0.000362876
0.00129252
-4.82028e-05
-0.000280468
-0.000366212
-0.000408861
0.00222029
-0.000143657
-0.00063893
-0.000425995
-0.000391926
-0.00210742
-0.00126469
-0.000641553
-0.000460056
-0.000443929
-0.000742019
-0.000536186
-0.000416013
-0.000374813
-0.000321151
-0.000545705
-0.00054136
-0.000426131
-0.000409467
-0.000368854
-0.000364263
-0.000377359
-0.000329884
-0.000327889
-0.000302541
-0.000172213
-0.000197693
-0.000183972
-0.000193261
-0.000188466
-0.000219056
-0.000209696
-0.000163633
-0.000143317
-9.98744e-05
-0.00107436
-0.00133958
-0.00182821
-0.000545432
-0.000498228
-0.00110806
-0.000878565
-9.45936e-05
-7.40409e-05
-0.000220239
-0.000298479
-0.000299467
0.000557413
0.000922547
0.00507314
0.00139217
-0.00307569
-0.0017003
-0.000490917
-0.000891659
-0.00131785
-0.00223058
-0.000562774
-0.000984141
-0.000752118
-0.000537963
-0.000875055
-0.000862611
-0.000484093
-0.000501013
-0.0010016
-0.00043594
-0.000700159
-0.00220098
-0.00195157
-0.00221923
-0.00105043
-0.000941682
-0.00142196
-0.00171894
-0.00159092
-0.00212403
-0.00148907
-0.00158008
-0.00173803
-0.000143975
-0.000715024
-0.00115508
-0.00202618
-0.00175113
-0.00250093
-0.000990131
-0.00125012
-0.001851
-0.00148797
-0.00195087
-0.0021473
-0.000978844
-0.00127454
-0.00111961
-0.00139123
-0.00140643
-0.000880316
0.00111999
0.0019033
0.00178873
-0.000288624
-0.00116283
-0.000936726
-0.00276004
-0.0015918
-0.000970702
-0.000851587
-0.000726071
-0.000552586
0.00175388
-0.000133809
0.000240996
0.000675193
-0.000891203
0.000750913
-0.00114354
-0.000940358
-0.00116855
0.00441683
0.00407879
0.00133413
0.00011398
-5.46007e-05
-0.000651577
-0.000182368
-0.000755843
-0.000948255
0.000178839
0.00277124
0.00157448
0.00336437
0.00304359
0.00402166
-7.80048e-05
-0.000167924
0.000387813
-0.000141888
-0.000259057
-0.00115388
0.00247127
0.00305634
0.000879372
5.1236e-05
0.000960058
0.00167771
0.00383953
0.00396994
0.00672556
0.00170308
0.00295822
0.00213375
0.000515379
0.000345399
0.000390906
)
;
    }
}


// ************************************************************************* //
