/*--------------------------------*- C++ -*----------------------------------*\
| =========                 |                                                 |
| \\      /  F ield         | OpenFOAM: The Open Source CFD Toolbox           |
|  \\    /   O peration     | Version:  5.x                                   |
|   \\  /    A nd           | Web:      www.OpenFOAM.org                      |
|    \\/     M anipulation  |                                                 |
\*---------------------------------------------------------------------------*/
FoamFile
{
    version     2.0;
    format      ascii;
    class       volVectorField;
    location    "0.039";
    object      U;
}
// * * * * * * * * * * * * * * * * * * * * * * * * * * * * * * * * * * * * * //

dimensions      [0 1 -1 0 0 0 0];

internalField   nonuniform List<vector> 
1553
(
(-1.85148e-07 -1.97669e-07 0.000535967)
(3.28152e-06 -2.08861e-07 0.000535328)
(3.32544e-06 -1.98014e-07 0.00053702)
(5.59789e-06 -2.01115e-07 0.000535574)
(5.74257e-06 -1.8726e-07 0.000538811)
(-1.96356e-07 3.26909e-06 0.00053533)
(3.27414e-06 3.2617e-06 0.000534684)
(3.32152e-06 3.25769e-06 0.000536381)
(5.59496e-06 3.25306e-06 0.000534934)
(5.74222e-06 3.24032e-06 0.000538173)
(-1.85601e-07 3.31421e-06 0.000537019)
(3.27013e-06 3.31032e-06 0.000536378)
(3.3168e-06 3.3056e-06 0.000538075)
(5.58052e-06 3.30234e-06 0.000536629)
(5.7296e-06 3.28676e-06 0.000539858)
(-1.88749e-07 5.58627e-06 0.000535575)
(3.26553e-06 5.58336e-06 0.000534933)
(3.31355e-06 5.56891e-06 0.000536632)
(5.57612e-06 5.56449e-06 0.00053519)
(5.72633e-06 5.53335e-06 0.000538419)
(-1.74971e-07 5.73306e-06 0.000538807)
(3.25277e-06 5.73271e-06 0.000538167)
(3.29794e-06 5.72007e-06 0.000539856)
(5.54496e-06 5.71679e-06 0.000538414)
(5.69773e-06 5.68819e-06 0.000541617)
(2.43329e-07 2.32805e-07 0.000237112)
(2.00113e-06 2.57068e-07 0.000237358)
(2.51252e-06 2.77602e-07 0.000237787)
(3.44975e-06 2.87087e-07 0.000238289)
(2.6188e-06 2.9545e-07 0.000238869)
(2.67718e-07 1.99076e-06 0.000237357)
(2.01672e-06 2.0063e-06 0.000237605)
(2.52159e-06 2.01036e-06 0.000238032)
(3.45443e-06 2.0141e-06 0.000238533)
(2.61987e-06 2.00528e-06 0.00023911)
(2.8827e-07 2.50375e-06 0.000237786)
(2.02072e-06 2.51273e-06 0.000238032)
(2.52032e-06 2.5115e-06 0.000238447)
(3.44467e-06 2.51151e-06 0.000238946)
(2.60969e-06 2.4985e-06 0.000239508)
(2.9785e-07 3.44185e-06 0.000238288)
(2.02447e-06 3.44646e-06 0.000238533)
(2.52037e-06 3.43674e-06 0.000238945)
(3.44143e-06 3.43349e-06 0.000239442)
(2.60648e-06 3.4105e-06 0.000239999)
(3.06243e-07 2.6143e-06 0.000238868)
(2.01562e-06 2.61533e-06 0.00023911)
(2.50737e-06 2.60517e-06 0.000239508)
(3.41843e-06 2.60194e-06 0.000239999)
(2.58605e-06 2.58151e-06 0.000240537)
(7.17327e-08 5.81958e-08 0.000236412)
(4.01626e-06 4.92916e-08 0.000236355)
(4.32875e-06 5.09558e-08 0.000238715)
(6.77951e-06 4.72247e-08 0.000238631)
(6.42181e-06 5.10016e-08 0.000242553)
(6.28556e-08 4.00283e-06 0.000236355)
(4.00851e-06 3.99506e-06 0.000236294)
(4.32245e-06 3.97721e-06 0.000238651)
(6.7727e-06 3.96921e-06 0.000238564)
(6.4175e-06 3.93792e-06 0.000242482)
(6.44711e-08 4.31677e-06 0.000238712)
(3.99064e-06 4.31046e-06 0.000238648)
(4.3029e-06 4.29092e-06 0.000240987)
(6.7402e-06 4.28289e-06 0.000240895)
(6.38987e-06 4.24714e-06 0.000244783)
(6.07453e-08 6.76764e-06 0.000238628)
(3.98265e-06 6.76082e-06 0.000238562)
(4.29489e-06 6.72832e-06 0.000240895)
(6.72892e-06 6.71702e-06 0.000240801)
(6.38097e-06 6.66168e-06 0.000244681)
(6.44721e-08 6.41282e-06 0.000242547)
(3.95133e-06 6.40849e-06 0.000242477)
(4.25911e-06 6.38084e-06 0.00024478)
(6.67357e-06 6.37194e-06 0.000244678)
(6.33319e-06 6.32416e-06 0.000248508)
(1.52043e-07 1.38827e-07 0.000426188)
(4.30453e-06 1.57018e-07 0.000426442)
(4.78865e-06 1.79624e-07 0.000428951)
(7.28946e-06 1.87472e-07 0.000429484)
(6.63599e-06 1.97195e-07 0.000433521)
(1.70281e-07 4.29155e-06 0.00042644)
(4.31287e-06 4.29985e-06 0.000426694)
(4.79265e-06 4.28287e-06 0.000429198)
(7.28797e-06 4.27884e-06 0.000429729)
(6.63289e-06 4.23633e-06 0.000433757)
(1.92866e-07 4.77733e-06 0.000428948)
(4.29585e-06 4.78128e-06 0.000429196)
(4.76764e-06 4.7563e-06 0.000431672)
(7.24291e-06 4.74917e-06 0.000432193)
(6.59233e-06 4.69775e-06 0.000436175)
(2.00732e-07 7.27862e-06 0.00042948)
(4.29184e-06 7.27709e-06 0.000429727)
(4.76054e-06 7.23206e-06 0.000432192)
(7.22941e-06 7.21854e-06 0.000432711)
(6.58009e-06 7.13732e-06 0.000436677)
(2.10451e-07 6.62839e-06 0.000433516)
(4.2493e-06 6.62526e-06 0.000433754)
(4.70911e-06 6.5847e-06 0.000436173)
(7.14817e-06 6.57245e-06 0.000436675)
(6.50893e-06 6.50129e-06 0.000440565)
(2.95152e-07 2.78852e-07 0.000146257)
(6.77874e-06 2.70844e-07 0.000146537)
(7.37088e-06 2.65052e-07 0.000150841)
(1.13507e-05 2.59917e-07 0.000151449)
(1.05646e-05 2.51672e-07 0.000158414)
(2.87154e-07 6.76267e-06 0.000146536)
(6.76568e-06 6.74959e-06 0.000146813)
(7.35774e-06 6.69799e-06 0.000151107)
(1.13331e-05 6.67857e-06 0.000151713)
(1.05508e-05 6.59181e-06 0.000158661)
(2.81323e-07 7.35661e-06 0.000150837)
(6.71406e-06 7.34345e-06 0.000151104)
(7.29986e-06 7.28557e-06 0.000155338)
(1.12445e-05 7.26483e-06 0.000155926)
(1.04758e-05 7.16645e-06 0.000162787)
(2.76191e-07 1.13367e-05 0.000151444)
(6.69464e-06 1.13191e-05 0.000151709)
(7.27913e-06 1.12305e-05 0.000155925)
(1.12139e-05 1.11999e-05 0.00015651)
(1.04501e-05 1.10529e-05 0.00016334)
(2.67891e-07 1.05542e-05 0.000158406)
(6.60785e-06 1.05404e-05 0.000158654)
(7.18072e-06 1.04654e-05 0.000162783)
(1.10668e-05 1.04397e-05 0.000163337)
(1.03254e-05 1.0315e-05 0.000170034)
(3.96931e-07 3.79356e-07 0.000419232)
(8.8891e-06 3.90973e-07 0.000419719)
(9.70115e-06 4.01049e-07 0.000425472)
(1.48638e-05 4.05793e-07 0.000426495)
(1.37775e-05 4.00382e-07 0.00043577)
(4.08602e-07 8.87185e-06 0.000419717)
(8.88377e-06 8.86647e-06 0.000420203)
(9.69241e-06 8.77974e-06 0.000425939)
(1.48443e-05 8.75533e-06 0.000426958)
(1.37583e-05 8.6092e-06 0.000436209)
(4.18619e-07 9.68592e-06 0.000425467)
(8.79699e-06 9.67713e-06 0.000425936)
(9.59001e-06 9.57475e-06 0.000431585)
(1.46932e-05 9.54621e-06 0.000432573)
(1.36278e-05 9.37661e-06 0.000441692)
(4.23391e-07 1.4849e-05 0.000426489)
(8.7726e-06 1.48295e-05 0.000426954)
(9.56149e-06 1.46784e-05 0.000432572)
(1.46461e-05 1.46313e-05 0.000433554)
(1.35845e-05 1.43861e-05 0.000442629)
(4.17936e-07 1.37667e-05 0.000435761)
(8.62643e-06 1.37474e-05 0.000436201)
(9.39187e-06 1.3617e-05 0.000441688)
(1.44009e-05 1.35736e-05 0.000442626)
(1.3376e-05 1.33651e-05 0.000451493)
(7.21998e-07 7.007e-07 0.000161655)
(1.30186e-05 6.91792e-07 0.000162359)
(1.41466e-05 6.6828e-07 0.000170804)
(2.1651e-05 6.59498e-07 0.000172276)
(2.00816e-05 6.24942e-07 0.00018593)
(7.13096e-07 1.29977e-05 0.000162357)
(1.29874e-05 1.29664e-05 0.000163062)
(1.41132e-05 1.28107e-05 0.000171484)
(2.16047e-05 1.27564e-05 0.000172959)
(2.00425e-05 1.25143e-05 0.000186567)
(6.89523e-07 1.41281e-05 0.000170797)
(1.28316e-05 1.40946e-05 0.00017148)
(1.39366e-05 1.3918e-05 0.000179758)
(2.13545e-05 1.38606e-05 0.000181189)
(1.98338e-05 1.35871e-05 0.000194554)
(6.8072e-07 2.1633e-05 0.000172268)
(1.27773e-05 2.15867e-05 0.000172954)
(1.38791e-05 2.13365e-05 0.000181188)
(2.12737e-05 2.12557e-05 0.000182621)
(1.97627e-05 2.08554e-05 0.000195896)
(6.46075e-07 2.00684e-05 0.000185918)
(1.25351e-05 2.00292e-05 0.000186557)
(1.36057e-05 1.98205e-05 0.000194549)
(2.08735e-05 1.97494e-05 0.000195892)
(1.94248e-05 1.94114e-05 0.000208785)
(1.04613e-06 1.02199e-06 0.000333378)
(1.80374e-05 1.03153e-06 0.000334473)
(1.96183e-05 1.01559e-06 0.000346379)
(2.99939e-05 1.02165e-06 0.000348584)
(2.77874e-05 9.68746e-07 0.000367573)
(1.05572e-06 1.80138e-05 0.00033447)
(1.80111e-05 1.79874e-05 0.000335556)
(1.95901e-05 1.77343e-05 0.000347401)
(2.99303e-05 1.76686e-05 0.000349586)
(2.77204e-05 1.72332e-05 0.000368503)
(1.0397e-06 1.95973e-05 0.000346371)
(1.77579e-05 1.95692e-05 0.000347397)
(1.92994e-05 1.92785e-05 0.000358933)
(2.94928e-05 1.92077e-05 0.000361008)
(2.73414e-05 1.87061e-05 0.00037956)
(1.04578e-06 2.99737e-05 0.000348575)
(1.76922e-05 2.991e-05 0.000349579)
(1.92286e-05 2.94724e-05 0.000361006)
(2.93578e-05 2.93374e-05 0.000363062)
(2.72068e-05 2.86207e-05 0.000381486)
(9.92778e-07 2.77725e-05 0.000367559)
(1.72568e-05 2.77054e-05 0.000368492)
(1.8727e-05 2.73264e-05 0.000379554)
(2.8641e-05 2.71917e-05 0.000381482)
(2.66077e-05 2.65927e-05 0.000399345)
(1.71737e-06 1.68812e-06 0.000186017)
(2.60198e-05 1.66997e-06 0.000187562)
(2.82577e-05 1.58394e-06 0.000204333)
(4.28497e-05 1.55476e-06 0.000207464)
(3.95756e-05 1.44688e-06 0.000234806)
(1.69923e-06 2.59913e-05 0.000187559)
(2.59182e-05 2.58897e-05 0.000189119)
(2.8143e-05 2.53648e-05 0.000205846)
(4.2711e-05 2.51803e-05 0.000209018)
(3.94633e-05 2.45016e-05 0.000236223)
(1.61304e-06 2.82325e-05 0.000204324)
(2.53933e-05 2.81178e-05 0.00020584)
(2.75483e-05 2.75231e-05 0.000222252)
(4.19863e-05 2.73365e-05 0.00022534)
(3.88822e-05 2.65708e-05 0.000251868)
(1.58381e-06 4.28254e-05 0.000207453)
(2.52088e-05 4.26867e-05 0.00020901)
(2.73618e-05 4.19619e-05 0.000225338)
(4.17586e-05 4.17342e-05 0.000228473)
(3.86807e-05 4.06455e-05 0.000254755)
(1.47573e-06 3.95578e-05 0.000234789)
(2.45299e-05 3.94455e-05 0.000236209)
(2.6596e-05 3.88643e-05 0.00025186)
(4.067e-05 3.86628e-05 0.000254749)
(3.77684e-05 3.77505e-05 0.000279961)
(2.49977e-06 2.46607e-06 0.00021157)
(3.63541e-05 2.48884e-06 0.000214152)
(3.95207e-05 2.42614e-06 0.000238549)
(6.04735e-05 2.471e-06 0.000243485)
(5.58543e-05 2.28289e-06 0.000281405)
(2.52263e-06 3.63214e-05 0.000214147)
(3.62987e-05 3.62658e-05 0.000216691)
(3.94887e-05 3.56526e-05 0.000240897)
(6.0314e-05 3.55445e-05 0.000245703)
(5.56479e-05 3.42953e-05 0.000283453)
(2.45975e-06 3.94916e-05 0.000238537)
(3.56853e-05 3.94595e-05 0.00024089)
(3.87993e-05 3.87702e-05 0.000263853)
(5.91159e-05 3.8663e-05 0.000268303)
(5.45762e-05 3.72385e-05 0.00030508)
(2.50467e-06 6.04454e-05 0.000243471)
(3.55773e-05 6.02857e-05 0.000245693)
(3.86922e-05 5.90877e-05 0.0002683)
(5.87819e-05 5.87536e-05 0.000272679)
(5.41902e-05 5.67205e-05 0.00030912)
(2.31634e-06 5.58338e-05 0.000281384)
(3.43279e-05 5.56272e-05 0.000283436)
(3.72676e-05 5.45555e-05 0.00030507)
(5.67487e-05 5.41695e-05 0.000309113)
(5.24967e-05 5.24759e-05 0.00034401)
(4.13808e-06 4.09665e-06 0.000168282)
(5.29987e-05 4.04029e-06 0.000171284)
(5.75905e-05 3.76113e-06 0.000203587)
(8.57161e-05 3.60341e-06 0.000210132)
(7.85307e-05 3.32273e-06 0.000265468)
(4.08173e-06 5.29586e-05 0.000171279)
(5.26682e-05 5.26282e-05 0.000174447)
(5.7155e-05 5.06687e-05 0.000206882)
(8.52767e-05 4.99986e-05 0.000213737)
(7.82442e-05 4.81769e-05 0.000268624)
(3.80227e-06 5.75556e-05 0.000203574)
(5.07088e-05 5.71199e-05 0.000206874)
(5.4961e-05 5.49257e-05 0.000239484)
(8.32238e-05 5.43127e-05 0.000246277)
(7.66697e-05 5.22381e-05 0.00029919)
(3.64425e-06 8.56825e-05 0.000210115)
(5.00384e-05 8.5243e-05 0.000213725)
(5.43478e-05 8.31898e-05 0.000246274)
(8.25885e-05 8.25546e-05 0.000253253)
(7.61239e-05 7.95854e-05 0.000305514)
(3.36315e-06 7.85062e-05 0.000265444)
(4.82165e-05 7.82197e-05 0.000268604)
(5.22731e-05 7.6645e-05 0.000299179)
(7.96194e-05 7.60993e-05 0.000305506)
(7.36344e-05 7.36098e-05 0.000354806)
(5.36178e-06 5.31495e-06 3.76664e-05)
(7.16588e-05 5.49742e-06 4.3507e-05)
(7.83683e-05 5.57019e-06 9.40914e-05)
(0.00012237 5.91696e-06 0.000104164)
(0.000112676 5.2877e-06 0.000179546)
(5.54451e-06 7.16136e-05 4.3501e-05)
(7.19008e-05 7.18553e-05 4.92186e-05)
(7.8778e-05 7.15495e-05 9.93528e-05)
(0.000122071 7.16898e-05 0.000108962)
(0.00011201 6.80177e-05 0.00018406)
(5.61682e-06 7.83271e-05 9.40742e-05)
(7.15947e-05 7.8737e-05 9.93417e-05)
(7.82028e-05 7.81621e-05 0.000143744)
(0.000118837 7.81789e-05 0.000153093)
(0.000108925 7.41281e-05 0.000225825)
(5.96436e-06 0.00012233 0.000104144)
(7.17358e-05 0.000122032 0.000108948)
(7.82199e-05 0.000118798 0.000153089)
(0.000118036 0.000117997 0.000162722)
(0.00010787 0.00011235 0.000234465)
(5.33435e-06 0.000112648 0.000179515)
(6.8063e-05 0.000111982 0.000184036)
(7.41688e-05 0.000108896 0.000225811)
(0.00011239 0.000107841 0.000234456)
(0.000103152 0.000103123 0.000301919)
(9.71403e-06 9.65399e-06 4.79801e-05)
(0.000109424 9.47738e-06 5.85076e-05)
(0.000118248 8.74488e-06 0.000128825)
(0.000171194 8.13743e-06 0.000147822)
(0.000156025 7.56338e-06 0.000259243)
(9.53728e-06 0.000109367 5.85003e-05)
(0.00010852 0.000108463 6.87034e-05)
(0.000116898 0.000100322 0.00013786)
(0.000170007 9.89284e-05 0.000156868)
(0.00015544 9.44566e-05 0.000267095)
(8.80423e-06 0.000118199 0.000128806)
(0.000100379 0.000116849 0.000137847)
(0.000108713 0.000108663 0.00020735)
(0.000165327 0.000108073 0.000223077)
(0.000151447 0.000102644 0.000328427)
(8.19535e-06 0.000171147 0.000147797)
(9.89841e-05 0.00016996 0.00015685)
(0.000108122 0.000165279 0.000223073)
(0.000163987 0.000163939 0.000238649)
(0.000149888 0.0001557 0.000342725)
(7.62109e-06 0.000155989 0.000259209)
(9.45126e-05 0.000155405 0.000267066)
(0.000102693 0.000151412 0.000328411)
(0.000155748 0.000149853 0.000342714)
(0.000143032 0.000142997 0.000438933)
(1.56337e-05 1.55657e-05 -0.000248662)
(0.000152503 1.54083e-05 -0.000233158)
(0.000167682 1.4358e-05 -0.000144233)
(0.00025282 1.47048e-05 -0.000116209)
(0.000227157 1.29113e-05 3.51951e-05)
(1.54771e-05 0.000152438 -0.000233167)
(0.00015126 0.000151194 -0.000218387)
(0.000166941 0.000150074 -0.00013071)
(0.000251337 0.000146944 -0.000103338)
(0.000225263 0.000137201 4.57136e-05)
(1.4425e-05 0.000167622 -0.000144256)
(0.000150139 0.000166882 -0.000130725)
(0.000163431 0.000163374 -4.26502e-05)
(0.000239944 0.000159959 -1.64912e-05)
(0.000217185 0.000149758 0.000126502)
(1.47732e-05 0.000252765 -0.000116238)
(0.000147011 0.000251282 -0.000103359)
(0.000160018 0.000239888 -1.64969e-05)
(0.000237718 0.000237663 8.02762e-06)
(0.000214802 0.000222885 0.000147962)
(1.2977e-05 0.00022712 3.51562e-05)
(0.000137265 0.000225224 4.56803e-05)
(0.000149815 0.000217145 0.000126483)
(0.00022294 0.000214761 0.000147948)
(0.000202064 0.000202023 0.000276878)
(2.48691e-05 2.47848e-05 -0.000235428)
(0.000213855 2.38663e-05 -0.000206685)
(0.000235198 2.18742e-05 -6.43039e-05)
(0.000350674 2.06007e-05 -1.55971e-05)
(0.000311754 1.767e-05 0.000204799)
(2.39511e-05 0.000213776 -0.000206696)
(0.000210979 0.000210899 -0.000179274)
(0.000231948 0.000201907 -3.94664e-05)
(0.000346482 0.000198649 6.75868e-06)
(0.000308773 0.000185766 0.000224501)
(2.19581e-05 0.000235129 -6.43329e-05)
(0.000201987 0.000231879 -3.94855e-05)
(0.000222948 0.000222877 9.09487e-05)
(0.000334528 0.00021944 0.000134065)
(0.000298568 0.000204893 0.000343178)
(2.06841e-05 0.00035061 -1.56315e-05)
(0.000198727 0.000346416 6.734e-06)
(0.00021951 0.000334461 0.000134058)
(0.000328493 0.000328426 0.000173996)
(0.000293874 0.000306117 0.000376816)
(1.77501e-05 0.000311708 0.000204742)
(0.000185841 0.000308725 0.000224457)
(0.000204962 0.000298519 0.000343155)
(0.000306184 0.000293826 0.000376799)
(0.000275771 0.000275722 0.000560515)
(4.39737e-05 4.38748e-05 -0.000789607)
(0.000323624 4.23794e-05 -0.000745157)
(0.000358766 3.88027e-05 -0.00055673)
(0.000521988 3.66825e-05 -0.000483036)
(0.000453937 3.2292e-05 -0.000194392)
(4.24793e-05 0.00032353 -0.000745168)
(0.000318486 0.000318391 -0.000703388)
(0.00035297 0.000305324 -0.000518884)
(0.00051537 0.000296603 -0.000449044)
(0.000449286 0.000275578 -0.000165775)
(3.89e-05 0.000358683 -0.000556762)
(0.000305417 0.000352886 -0.000518907)
(0.000336976 0.000336893 -0.000341157)
(0.000492234 0.000327191 -0.000278461)
(0.000432253 0.000302068 -2.52858e-06)
(3.67804e-05 0.000521906 -0.000483076)
(0.000296698 0.000515289 -0.000449074)
(0.000327275 0.000492155 -0.000278468)
(0.000480535 0.000480456 -0.000221691)
(0.000423394 0.000440281 4.64903e-05)
(3.23892e-05 0.000453878 -0.000194451)
(0.000275675 0.000449227 -0.000165823)
(0.000302153 0.000432195 -2.55463e-06)
(0.00044036 0.000423336 4.64704e-05)
(0.000391085 0.000391027 0.000301282)
(6.87138e-05 6.85927e-05 -0.000893047)
(0.000446738 6.49766e-05 -0.000810401)
(0.000497319 5.90623e-05 -0.000517526)
(0.000713127 5.39229e-05 -0.000386117)
(0.000609368 4.56178e-05 6.48469e-05)
(6.50999e-05 0.000446626 -0.000810416)
(0.000437268 0.000437155 -0.000733643)
(0.000486293 0.000417486 -0.000450784)
(0.000699705 0.00040323 -0.000327098)
(0.000600844 0.000377636 0.000110036)
(5.91822e-05 0.00049722 -0.000517565)
(0.000417598 0.000486193 -0.000450809)
(0.000463397 0.000463297 -0.000181649)
(0.000673266 0.000446796 -7.17073e-05)
(0.000582872 0.00041716 0.000345957)
(5.40434e-05 0.000713037 -0.000386164)
(0.000403342 0.000699613 -0.000327132)
(0.000446896 0.000673172 -7.17163e-05)
(0.000653554 0.000653461 2.76563e-05)
(0.000570177 0.000610013 0.000423677)
(4.57341e-05 0.000609303 6.47833e-05)
(0.000377744 0.000600777 0.000109982)
(0.000417258 0.000582803 0.000345926)
(0.000610106 0.000570108 0.000423655)
(0.000538148 0.000538079 0.000784216)
(0.000125986 0.000125845 -0.0019177)
(0.00069915 0.000118401 -0.00177945)
(0.000783035 0.000104876 -0.0013784)
(0.00110449 9.49929e-05 -0.00116819)
(0.000918213 7.68532e-05 -0.00056136)
(0.000118545 0.000699019 -0.00177947)
(0.00067812 0.000677986 -0.00165388)
(0.000759499 0.000641192 -0.00126845)
(0.00107632 0.000611001 -0.00107395)
(0.000899385 0.000556679 -0.000486509)
(0.000105016 0.00078292 -0.00137845)
(0.000641323 0.000759381 -0.00126849)
(0.00071606 0.000715943 -0.000910151)
(0.00101996 0.000681926 -0.00073688)
(0.000862136 0.000615692 -0.000189639)
(9.51331e-05 0.00110439 -0.00116825)
(0.000611133 0.00107621 -0.00107399)
(0.000682044 0.00101985 -0.000736889)
(0.000976047 0.000975936 -0.000584984)
(0.000831049 0.000878661 -6.37454e-05)
(7.69874e-05 0.000918136 -0.000561446)
(0.000556808 0.000899307 -0.000486583)
(0.000615809 0.000862056 -0.000189679)
(0.000878771 0.000830969 -6.37775e-05)
(0.000761971 0.000761891 0.000413142)
(0.000205851 0.000205675 -0.00247203)
(0.000986038 0.000189335 -0.00219334)
(0.00110857 0.000167851 -0.00155441)
(0.00153043 0.00014697 -0.00116845)
(0.00123511 0.000119278 -0.000238042)
(0.000189517 0.000985878 -0.00219336)
(0.000948289 0.000948125 -0.00194743)
(0.00106623 0.000885756 -0.00135146)
(0.0014819 0.000834557 -0.00100122)
(0.00120661 0.000749381 -0.000119226)
(0.000168025 0.00110843 -0.00155447)
(0.000885916 0.00106608 -0.0013515)
(0.000995003 0.00099486 -0.000795668)
(0.00139402 0.000935753 -0.000497603)
(0.00114718 0.000839928 0.000336953)
(0.000147146 0.0015303 -0.00116853)
(0.000834719 0.00148177 -0.00100127)
(0.000935899 0.00139389 -0.000497617)
(0.00132692 0.00132679 -0.000241053)
(0.00110764 0.00121296 0.000525228)
(0.000119444 0.00123501 -0.000238138)
(0.000749535 0.00120651 -0.000119303)
(0.000840068 0.00114708 0.000336909)
(0.0012131 0.00110754 0.000525197)
(0.00102976 0.00102965 0.00121554)
(0.0004036 0.000403394 -0.00436748)
(0.0016168 0.000362993 -0.00391442)
(0.00180789 0.000306629 -0.00304119)
(0.00242121 0.000260963 -0.00242307)
(0.00187661 0.000194499 -0.00116625)
(0.000363205 0.00161661 -0.00391445)
(0.00152004 0.00151985 -0.0035216)
(0.00170567 0.00139995 -0.00270918)
(0.00230887 0.00128185 -0.00215903)
(0.00180808 0.00113164 -0.000972255)
(0.000306831 0.00180773 -0.00304125)
(0.00140014 0.00170551 -0.00270923)
(0.0015699 0.00156973 -0.00197066)
(0.00215283 0.00144203 -0.00149725)
(0.00172147 0.00126008 -0.00041112)
(0.000261165 0.00242106 -0.00242316)
(0.00128204 0.00230872 -0.00215909)
(0.0014422 0.00215268 -0.00149726)
(0.00199912 0.00199897 -0.00110744)
(0.00162027 0.00175751 -0.000113283)
(0.000194689 0.00187651 -0.00116637)
(0.00113182 0.00180797 -0.000972353)
(0.00126025 0.00172136 -0.00041117)
(0.00175766 0.00162015 -0.000113325)
(0.00147219 0.00147208 0.000749331)
(0.000656736 0.00065648 -0.0066139)
(0.00231239 0.000579768 -0.00554334)
(0.00259989 0.000497617 -0.00404675)
(0.00340592 0.000408682 -0.00281857)
(0.00253234 0.000311346 -0.000824407)
(0.000580038 0.00231216 -0.0055434)
(0.00215359 0.00215335 -0.00467655)
(0.00242876 0.00195632 -0.00337101)
(0.00321936 0.00176041 -0.00231119)
(0.00243169 0.00150459 -0.000505749)
(0.000497865 0.00259969 -0.00404684)
(0.00195655 0.00242855 -0.00337105)
(0.00220697 0.00220677 -0.00217083)
(0.00295407 0.00198732 -0.00131024)
(0.00226821 0.00169891 0.000361679)
(0.000408937 0.00340574 -0.00281869)
(0.00176064 0.00321918 -0.00231127)
(0.00198753 0.00295389 -0.00131026)
(0.00271136 0.00271117 -0.00062685)
(0.00213402 0.00237373 0.000823523)
(0.000311575 0.00253222 -0.000824547)
(0.00150481 0.00243156 -0.000505856)
(0.00169911 0.00226807 0.00036162)
(0.00237392 0.00213387 0.000823482)
(0.00192002 0.00191988 0.00210581)
(0.00147276 0.00147245 -0.0100508)
(0.00418399 0.00122779 -0.00844449)
(0.00453254 0.000980346 -0.00642014)
(0.00564441 0.000765905 -0.00458856)
(0.00393138 0.000511074 -0.00199865)
(0.00122811 0.00418372 -0.00844454)
(0.00369245 0.00369216 -0.00713393)
(0.00407091 0.0032759 -0.0053833)
(0.00517488 0.00279017 -0.0038441)
(0.00366921 0.00231764 -0.00149626)
(0.000980646 0.00453232 -0.00642023)
(0.00327617 0.00407067 -0.00538335)
(0.00363057 0.00363034 -0.00385887)
(0.00468595 0.00312622 -0.00257676)
(0.00344409 0.00258918 -0.00048652)
(0.000766206 0.00564421 -0.00458868)
(0.00279045 0.00517466 -0.00384419)
(0.00312647 0.00468574 -0.00257678)
(0.00413343 0.00413321 -0.00159605)
(0.00311522 0.00350222 0.000208035)
(0.000511344 0.00393126 -0.0019988)
(0.0023179 0.00366907 -0.00149639)
(0.00258941 0.00344395 -0.00048659)
(0.00350244 0.00311506 0.000207984)
(0.00279215 0.002792 0.00168722)
(0.0022583 0.00225794 -0.0186367)
(0.00594347 0.00188517 -0.0139819)
(0.00645597 0.0015297 -0.0101155)
(0.00782876 0.00114836 -0.00612698)
(0.00520943 0.000809404 -0.00183061)
(0.00188557 0.00594315 -0.0139821)
(0.00521503 0.00521469 -0.0107113)
(0.00571858 0.00451773 -0.00773783)
(0.0071076 0.00377227 -0.00457324)
(0.00485919 0.00301688 -0.000948957)
(0.00153005 0.0064557 -0.0101156)
(0.00451804 0.00571829 -0.00773787)
(0.00501351 0.00501324 -0.00507743)
(0.00632752 0.00423526 -0.00263454)
(0.00442915 0.00340316 0.000670904)
(0.00114873 0.00782852 -0.0061272)
(0.0037726 0.00710734 -0.00457336)
(0.00423556 0.00632727 -0.0026346)
(0.00549704 0.00549677 -0.000863267)
(0.00400003 0.00454789 0.00175877)
(0.000809722 0.00520927 -0.00183086)
(0.00301718 0.00485901 -0.000949111)
(0.00340342 0.00442896 0.000670802)
(0.00454815 0.00399983 0.00175872)
(0.00344877 0.00344857 0.00397211)
(0.00612877 0.00612824 -0.0253356)
(0.0127054 0.00449743 -0.0190368)
(0.0123877 0.00335485 -0.0135556)
(0.0139312 0.00231544 -0.00802015)
(0.00836094 0.00138733 -0.0026982)
(0.00449796 0.012705 -0.0190369)
(0.00993662 0.00993613 -0.0142224)
(0.0102089 0.00831394 -0.0101905)
(0.0119652 0.00628245 -0.0058945)
(0.00740828 0.00481905 -0.00146024)
(0.00335534 0.0123874 -0.0135557)
(0.00831438 0.0102085 -0.0101905)
(0.00873362 0.00873329 -0.00688593)
(0.0104356 0.00683585 -0.00352267)
(0.00685207 0.00529663 0.000273132)
(0.00231591 0.0139309 -0.00802035)
(0.00628289 0.0119648 -0.00589462)
(0.00683622 0.0104353 -0.00352273)
(0.00852781 0.00852747 -0.00122472)
(0.0058198 0.00680478 0.00175892)
(0.00138775 0.0083608 -0.0026984)
(0.00481945 0.00740811 -0.00146038)
(0.00529696 0.00685189 0.000273044)
(0.0068051 0.00581959 0.00175886)
(0.00507397 0.00507377 0.00408967)
(0.00855195 0.00855148 -0.0587447)
(0.0177232 0.00668869 -0.0358172)
(0.017475 0.00488421 -0.0244008)
(0.0186887 0.00326359 -0.0116267)
(0.0107188 0.0020385 -0.0026754)
(0.00668926 0.0177228 -0.0358177)
(0.0140611 0.0140607 -0.0229443)
(0.0140474 0.0111875 -0.0159754)
(0.0158402 0.00826966 -0.00706682)
(0.00945439 0.00598839 -0.000384572)
(0.00488466 0.0174747 -0.0244012)
(0.0111879 0.014047 -0.0159754)
(0.0116816 0.0116813 -0.0100067)
(0.0134887 0.00890491 -0.00358608)
(0.00836288 0.00662181 0.00237656)
(0.00326412 0.0186884 -0.0116272)
(0.00827013 0.0158399 -0.00706702)
(0.00890533 0.0134883 -0.00358623)
(0.0107799 0.0107796 0.000582807)
(0.00709345 0.00836455 0.00461165)
(0.00203892 0.0107186 -0.00267589)
(0.0059888 0.0094542 -0.000384817)
(0.00662216 0.00836266 0.00237637)
(0.00836489 0.00709319 0.00461158)
(0.00586272 0.00586247 0.00795015)
(0.0291113 0.0291101 -0.0747142)
(0.0470491 0.0173899 -0.04707)
(0.0365861 0.0117807 -0.0285475)
(0.0356601 0.00687072 -0.0121684)
(0.0176066 0.00366785 -0.00149593)
(0.0173909 0.0470483 -0.0470702)
(0.0297755 0.0297745 -0.0272256)
(0.0260896 0.0227071 -0.0174439)
(0.0275577 0.0143227 -0.00626985)
(0.0143166 0.00987114 0.00128611)
(0.0117816 0.0365859 -0.0285475)
(0.0227079 0.026089 -0.0174439)
(0.0211239 0.0211235 -0.0100701)
(0.0228213 0.0144856 -0.00213963)
(0.0130097 0.010293 0.00397391)
(0.00687151 0.0356597 -0.0121688)
(0.0143235 0.0275571 -0.00627003)
(0.0144862 0.0228208 -0.00213975)
(0.0167273 0.0167267 0.00247627)
(0.00998597 0.0123812 0.00664139)
(0.00366855 0.0176064 -0.00149618)
(0.00987184 0.0143164 0.00128593)
(0.0102935 0.0130095 0.00397378)
(0.0123817 0.00998568 0.00664133)
(0.00852368 0.0085234 0.00968866)
(0.0364245 0.0364241 -0.218717)
(0.0637351 0.0265779 -0.0917674)
(0.052385 0.0159733 -0.0513161)
(0.0457336 0.00914176 -0.0152597)
(0.0217856 0.00480072 0.00132426)
(0.0265786 0.0637347 -0.0917694)
(0.0436552 0.0436546 -0.0413254)
(0.0350116 0.0296532 -0.0247484)
(0.03457 0.0182951 -0.00412709)
(0.0173137 0.0114567 0.00582031)
(0.0159738 0.0523846 -0.0513175)
(0.0296537 0.0350111 -0.0247481)
(0.026988 0.0269876 -0.0122025)
(0.0275336 0.0176518 0.00119621)
(0.0147156 0.011975 0.00942368)
(0.00914249 0.0457331 -0.0152605)
(0.0182958 0.0345694 -0.00412739)
(0.0176524 0.0275331 0.00119594)
(0.0195611 0.0195606 0.00825862)
(0.0114259 0.014078 0.012782)
(0.00480123 0.0217855 0.00132307)
(0.0114572 0.0173135 0.00581987)
(0.0119754 0.0147154 0.00942325)
(0.0140785 0.0114256 0.0127818)
(0.00902937 0.00902905 0.0161227)
(0.158339 0.158336 -0.266223)
(0.21504 0.0683174 -0.131135)
(0.113194 0.0384519 -0.0527705)
(0.0883057 0.0180171 -0.00813871)
(0.0348132 0.00814947 0.00834792)
(0.06832 0.215037 -0.131135)
(0.096753 0.0967503 -0.0390324)
(0.0633002 0.0617991 -0.0175512)
(0.0581286 0.0307764 0.00484308)
(0.0246438 0.0179718 0.0130169)
(0.038454 0.113195 -0.0527697)
(0.0618014 0.0632993 -0.0175512)
(0.0470821 0.0470816 -0.00335814)
(0.0444521 0.0268784 0.00961732)
(0.0215475 0.0172565 0.0160288)
(0.0180184 0.0883056 -0.00813928)
(0.0307776 0.0581273 0.00484281)
(0.0268793 0.0444512 0.00961711)
(0.0283174 0.0283164 0.0156975)
(0.0146886 0.0190838 0.0186788)
(0.00815072 0.0348126 0.00834738)
(0.0179733 0.0246434 0.0130165)
(0.0172574 0.0215472 0.0160285)
(0.0190847 0.0146882 0.0186786)
(0.0119989 0.0119985 0.0209579)
(0.225262 0.225268 -1.12569)
(0.388013 0.125495 -0.208975)
(0.175095 0.0514126 -0.0330954)
(0.1067 0.0221272 0.0134338)
(0.0389575 0.00943466 0.0267656)
(0.125494 0.388005 -0.208984)
(0.157353 0.157352 -0.0323783)
(0.0787578 0.0788843 0.00344844)
(0.0651084 0.0360093 0.0234318)
(0.02592 0.0191297 0.0294919)
(0.0514122 0.175094 -0.0331024)
(0.078884 0.0787569 0.00344932)
(0.0541551 0.0541545 0.0182415)
(0.0469072 0.0285051 0.0272118)
(0.0214347 0.0176375 0.0304322)
(0.0221282 0.106699 0.0134347)
(0.0360103 0.0651073 0.0234316)
(0.028506 0.0469064 0.0272116)
(0.0286176 0.0286166 0.0305637)
(0.014581 0.0190082 0.0309641)
(0.00943531 0.0389575 0.0267626)
(0.0191305 0.0259196 0.0294911)
(0.0176383 0.0214343 0.0304313)
(0.019009 0.0145805 0.0309638)
(0.0114229 0.0114224 0.0304343)
(0.578821 0.578803 -4.29431)
(1.15783 0.280185 -0.338564)
(0.23425 0.0763296 0.10155)
(0.146322 0.0281418 0.0710655)
(0.0489498 0.0108641 0.0514617)
(0.280195 1.15776 -0.338494)
(0.247585 0.247575 0.0764648)
(0.11647 0.112134 0.073619)
(0.0840889 0.0444694 0.0564874)
(0.0310419 0.0216327 0.0466663)
(0.0763341 0.234238 0.101545)
(0.112144 0.116469 0.0736179)
(0.0708378 0.0708381 0.0634676)
(0.0566276 0.034009 0.0517174)
(0.0250021 0.0187308 0.0441786)
(0.0281434 0.146326 0.0710642)
(0.0444695 0.0840859 0.0564872)
(0.0340101 0.0566257 0.0517172)
(0.0320625 0.0320611 0.0456319)
(0.0151662 0.0190849 0.0404223)
(0.0108664 0.0489453 0.0514595)
(0.0216362 0.0310409 0.046665)
(0.0187322 0.025001 0.0441779)
(0.0190868 0.0151654 0.0404219)
(0.011491 0.0114902 0.0377645)
(0.00668054 0.00666062 -6.22933)
(1.40671 0.0912383 -0.127164)
(0.0565655 0.023637 0.266954)
(0.0512796 0.0076902 0.124515)
(0.0193705 0.00464284 0.0871679)
(0.0910317 1.40678 -0.127097)
(0.16188 0.161832 0.519816)
(0.0518656 0.0373223 0.167422)
(0.0372302 0.0167348 0.0977987)
(0.0161654 0.0118961 0.0726975)
(0.023639 0.0565669 0.266954)
(0.0373268 0.0518623 0.16742)
(0.0311652 0.0311633 0.121695)
(0.0276148 0.0177069 0.0824618)
(0.0138988 0.0114183 0.0627241)
(0.00769252 0.0512804 0.124514)
(0.016737 0.037229 0.0977984)
(0.017708 0.0276133 0.0824619)
(0.0173543 0.0173529 0.0651673)
(0.00931379 0.0126025 0.0536837)
(0.00464431 0.0193695 0.0871662)
(0.0118983 0.016164 0.0726961)
(0.0114199 0.0138978 0.0627232)
(0.0126041 0.00931287 0.0536831)
(0.00870948 0.00870855 0.0451253)
(-0.109655 -0.109681 -6.21624)
(-0.905434 -0.199374 -0.288402)
(-0.0284938 -0.0266299 0.11779)
(-0.0302857 0.00135665 0.0882283)
(0.0103901 -0.00369788 0.0708754)
(-0.199382 -0.905434 -0.288419)
(-0.103033 -0.103042 0.101221)
(-0.0176769 -0.0318661 0.103775)
(-0.00808557 0.00276586 0.0838845)
(0.00533915 -0.00282151 0.0652314)
(-0.0266236 -0.028503 0.117775)
(-0.0318572 -0.0176786 0.103777)
(-0.0114471 -0.0114483 0.0884599)
(-0.00208485 0.0015584 0.0730652)
(0.00462496 -0.00028048 0.0595427)
(0.00135824 -0.0302839 0.0882325)
(0.00276669 -0.0080884 0.0838843)
(0.00155981 -0.00208764 0.0730655)
(0.00334974 0.00334786 0.0641881)
(0.00335793 0.00150451 0.0534911)
(-0.00369476 0.0103844 0.0708703)
(-0.00281722 0.00533712 0.0652302)
(-0.000278376 0.0046227 0.0595415)
(0.0015073 0.0033566 0.0534905)
(0.00263344 0.00263211 0.0469271)
(0.219066 0.2192 -3.53764)
(0.163156 0.021335 -0.542337)
(0.0344283 0.00718019 0.0147738)
(0.00768449 0.00287527 0.0773868)
(0.000241316 -0.00102045 0.0503104)
(0.0212866 0.162891 -0.542427)