/*--------------------------------*- C++ -*----------------------------------*\
| =========                 |                                                 |
| \\      /  F ield         | OpenFOAM: The Open Source CFD Toolbox           |
|  \\    /   O peration     | Version:  5.x                                   |
|   \\  /    A nd           | Web:      www.OpenFOAM.org                      |
|    \\/     M anipulation  |                                                 |
\*---------------------------------------------------------------------------*/
FoamFile
{
    version     2.0;
    format      ascii;
    class       surfaceScalarField;
    location    "0.015";
    object      phi;
}
// * * * * * * * * * * * * * * * * * * * * * * * * * * * * * * * * * * * * * //

dimensions      [0 3 -1 0 0 0 0];

internalField   nonuniform List<scalar> 
4318
(
1.62577e-09
1.6235e-09
-3.58505e-09
3.44643e-09
1.62841e-09
-3.60209e-09
4.05663e-09
1.65919e-09
-2.37254e-09
4.82051e-09
1.66011e-09
-2.52471e-09
1.67979e-09
-4.79305e-10
1.63068e-09
3.44439e-09
-3.60224e-09
3.45167e-09
3.44962e-09
-3.63379e-09
4.05866e-09
3.46549e-09
-2.40657e-09
4.82277e-09
3.46205e-09
-2.56e-09
3.46132e-09
-5.15365e-10
1.66146e-09
4.05496e-09
-2.37283e-09
3.46753e-09
4.057e-09
-2.40673e-09
4.06625e-09
4.06459e-09
-1.19175e-09
4.82273e-09
4.06001e-09
-1.3488e-09
4.04943e-09
6.77186e-10
1.66238e-09
4.81929e-09
-2.52508e-09
3.46408e-09
4.82156e-09
-2.56021e-09
4.06167e-09
4.82152e-09
-1.34887e-09
4.81629e-09
4.81508e-09
-1.50447e-09
4.79577e-09
5.15561e-10
1.68207e-09
-4.79903e-10
3.46336e-09
-5.15813e-10
4.05109e-09
6.76893e-10
4.79699e-09
5.15326e-10
2.50646e-09
1.54256e-09
1.54029e-09
-6.97362e-09
2.92128e-09
1.57295e-09
-6.66137e-09
3.6201e-09
1.58771e-09
-4.73852e-09
3.62237e-09
1.59533e-09
-4.18788e-09
1.59015e-09
-1.10993e-09
1.57523e-09
2.91926e-09
-6.66169e-09
2.93978e-09
2.93776e-09
-6.35388e-09
3.62806e-09
2.93785e-09
-4.43712e-09
3.62271e-09
2.93755e-09
-3.88968e-09
2.91878e-09
-8.20138e-10
1.58999e-09
3.61848e-09
-4.73914e-09
2.93987e-09
3.62643e-09
-4.43743e-09
3.6189e-09
3.61727e-09
-2.54307e-09
3.60775e-09
3.61156e-09
-2.00504e-09
3.5851e-09
1.03072e-09
1.59759e-09
3.62127e-09
-4.18871e-09
2.93957e-09
3.62162e-09
-3.89019e-09
3.61318e-09
3.60666e-09
-2.00525e-09
3.59935e-09
3.59826e-09
-1.47123e-09
3.56816e-09
1.55007e-09
1.59241e-09
-1.11102e-09
2.9208e-09
-8.20918e-10
3.58674e-09
1.03025e-09
3.56924e-09
1.5498e-09
4.51958e-09
2.31249e-09
2.30994e-09
-1.18137e-08
4.53429e-09
2.30695e-09
-1.12966e-08
5.49847e-09
2.31547e-09
-8.09578e-09
6.08395e-09
2.30876e-09
-7.1601e-09
2.30398e-09
-2.10255e-09
2.3095e-09
4.53202e-09
-1.12971e-08
4.52826e-09
4.52599e-09
-1.07849e-08
5.49174e-09
4.5154e-09
-7.59482e-09
6.07765e-09
4.50209e-09
-6.66376e-09
4.47029e-09
-1.62145e-09
2.31801e-09
5.49662e-09
-8.09673e-09
4.51767e-09
5.48989e-09
-7.59528e-09
5.47115e-09
5.46929e-09
-4.44535e-09
6.05064e-09
5.45403e-09
-3.53181e-09
5.40792e-09
1.44928e-09
2.31131e-09
6.08265e-09
-7.16138e-09
4.50437e-09
6.07635e-09
-6.66455e-09
5.45589e-09
6.04933e-09
-3.53214e-09
6.03449e-09
6.03318e-09
-2.62471e-09
5.97915e-09
2.32982e-09
2.30651e-09
-2.1042e-09
4.47256e-09
-1.62262e-09
5.40977e-09
1.44857e-09
5.98045e-09
2.32944e-09
7.18919e-09
3.0235e-09
3.02056e-09
-1.81685e-08
5.87447e-09
3.0366e-09
-1.73094e-08
7.16838e-09
3.0363e-09
-1.25163e-08
7.84488e-09
3.03255e-09
-1.09486e-08
3.0049e-09
-3.41975e-09
3.03954e-09
5.87185e-09
-1.73101e-08
5.87655e-09
5.87393e-09
-1.64549e-08
7.16315e-09
5.84163e-09
-1.16833e-08
7.83441e-09
5.82389e-09
-1.01232e-08
5.75515e-09
-2.62294e-09
3.03924e-09
7.16624e-09
-1.25176e-08
5.84426e-09
7.16102e-09
-1.16839e-08
7.11444e-09
7.11229e-09
-6.98312e-09
7.77594e-09
7.08839e-09
-5.45499e-09
6.99927e-09
1.93838e-09
3.03546e-09
7.84338e-09
-1.09505e-08
5.82651e-09
7.83289e-09
-1.01244e-08
7.09053e-09
7.77442e-09
-5.45547e-09
7.74882e-09
7.74731e-09
-3.93925e-09
7.64809e-09
3.40742e-09
3.00783e-09
-3.42206e-09
5.75778e-09
-2.62455e-09
7.00141e-09
1.9374e-09
7.6496e-09
3.40693e-09
1.05899e-08
4.54909e-09
4.54554e-09
-2.74364e-08
8.77103e-09
4.5331e-09
-2.61547e-08
1.06597e-08
4.50081e-09
-1.89771e-08
1.17898e-08
4.47954e-09
-1.66315e-08
4.41846e-09
-5.34441e-09
4.53665e-09
8.76787e-09
-2.61556e-08
8.74889e-09
8.74573e-09
-2.48783e-08
1.06339e-08
8.66787e-09
-1.77343e-08
1.17625e-08
8.62876e-09
-1.53999e-08
8.49992e-09
-4.15995e-09
4.50434e-09
1.06571e-08
-1.89789e-08
8.67104e-09
1.06313e-08
-1.77351e-08
1.05352e-08
1.05326e-08
-1.0711e-08
1.16526e-08
1.04866e-08
-8.42909e-09
1.0324e-08
2.62978e-09
4.48308e-09
1.17879e-08
-1.66339e-08
8.63192e-09
1.17606e-08
-1.54014e-08
1.04892e-08
1.16508e-08
-8.42974e-09
1.16031e-08
1.16012e-08
-6.16648e-09
1.14233e-08
4.81265e-09
4.422e-09
-5.3475e-09
8.50309e-09
-4.1621e-09
1.03266e-08
2.62848e-09
1.14251e-08
4.81199e-09
1.55107e-08
6.53421e-09
6.52986e-09
-4.07648e-08
1.25925e-08
6.52193e-09
-3.88547e-08
1.53115e-08
6.46172e-09
-2.82493e-08
1.69173e-08
6.42975e-09
-2.47521e-08
6.31522e-09
-8.11225e-09
6.5263e-09
1.25886e-08
-3.88559e-08
1.25619e-08
1.2558e-08
-3.69511e-08
1.52709e-08
1.24195e-08
-2.64021e-08
1.68707e-08
1.23526e-08
-2.29232e-08
1.21236e-08
-6.36395e-09
6.46606e-09
1.53083e-08
-2.82516e-08
1.24233e-08
1.52677e-08
-2.64032e-08
1.50958e-08
1.50926e-08
-1.60571e-08
1.6674e-08
1.50119e-08
-1.26666e-08
1.47274e-08
3.57972e-09
6.43411e-09
1.6915e-08
-2.47553e-08
1.23565e-08
1.68685e-08
-2.29252e-08
1.50151e-08
1.66717e-08
-1.26674e-08
1.6587e-08
1.65847e-08
-9.31074e-09
1.6274e-08
6.79989e-09
6.31958e-09
-8.1163e-09
1.21274e-08
-6.36674e-09
1.47306e-08
3.57802e-09
1.62763e-08
6.79904e-09
2.2426e-08
9.6851e-09
9.67971e-09
-6.02776e-08
1.85567e-08
9.6429e-09
-5.74545e-08
2.2565e-08
9.50842e-09
-4.1838e-08
2.49715e-08
9.44775e-09
-3.66813e-08
9.23626e-09
-1.21273e-08
9.64831e-09
1.85519e-08
-5.74562e-08
1.84938e-08
1.8489e-08
-5.4646e-08
2.24874e-08
1.82283e-08
-3.91181e-08
2.4887e-08
1.81172e-08
-3.39939e-08
1.77144e-08
-9.57533e-09
9.51382e-09
2.2561e-08
-4.18411e-08
1.82331e-08
2.24834e-08
-3.91195e-08
2.21694e-08
2.21654e-08
-2.3932e-08
2.45437e-08
2.20307e-08
-1.8955e-08
2.15327e-08
4.94207e-09
9.45313e-09
2.49687e-08
-3.66855e-08
1.81221e-08
2.48842e-08
-3.39964e-08
2.20347e-08
2.45409e-08
-1.89562e-08
2.43973e-08
2.43945e-08
-1.4037e-08
2.38591e-08
9.62511e-09
9.24165e-09
-1.21325e-08
1.77192e-08
-9.57894e-09
2.15367e-08
4.93986e-09
2.3862e-08
9.62402e-09
3.24747e-08
1.42148e-08
1.4208e-08
-8.89025e-08
2.72257e-08
1.41483e-08
-8.47191e-08
3.30944e-08
1.39159e-08
-6.17092e-08
3.65946e-08
1.3805e-08
-5.40721e-08
1.34269e-08
-1.79424e-08
1.41551e-08
2.72197e-08
-8.47213e-08
2.71092e-08
2.71032e-08
-8.05589e-08
3.29527e-08
2.66478e-08
-5.76964e-08
3.64418e-08
2.64351e-08
-5.0115e-08
2.57222e-08
-1.42201e-08
1.39226e-08
3.30895e-08
-6.17131e-08
2.66538e-08
3.29478e-08
-5.76982e-08
3.23999e-08
3.2395e-08
-3.54271e-08
3.58295e-08
3.21436e-08
-2.8094e-08
3.1271e-08
6.88792e-09
1.38118e-08
3.65911e-08
-5.40775e-08
2.64412e-08
3.64382e-08
-5.01182e-08
3.21486e-08
3.5826e-08
-2.80955e-08
3.55634e-08
3.55599e-08
-2.08683e-08
3.46144e-08
1.37132e-08
1.34336e-08
-1.79492e-08
2.57282e-08
-1.42248e-08
3.1276e-08
6.88507e-09
3.4618e-08
1.37118e-08
4.68832e-08
2.09607e-08
2.09522e-08
-1.30935e-07
3.99893e-08
2.08339e-08
-1.24661e-07
4.86264e-08
2.04101e-08
-9.083e-08
5.37473e-08
2.02206e-08
-7.94947e-08
1.95814e-08
-2.63627e-08
2.08424e-08
3.99817e-08
-1.24664e-07
3.97856e-08
3.9778e-08
-1.18449e-07
4.83858e-08
3.89953e-08
-8.48843e-08
5.3485e-08
3.86487e-08
-7.36444e-08
3.74593e-08
-2.09229e-08
2.04186e-08
4.86202e-08
-9.0835e-08
3.90029e-08
4.83795e-08
-8.48865e-08
4.74458e-08
4.74396e-08
-5.23163e-08
5.24797e-08
4.7026e-08
-4.15067e-08
4.5567e-08
9.69977e-09
2.02291e-08
5.37428e-08
-7.95016e-08
3.86564e-08
5.34805e-08
-7.36485e-08
4.70323e-08
5.24752e-08
-4.15086e-08
5.20319e-08
5.20274e-08
-3.08706e-08
5.04717e-08
1.96288e-08
1.959e-08
-2.63714e-08
3.74669e-08
-2.09288e-08
4.55733e-08
9.69612e-09
5.04762e-08
1.9627e-08
6.77777e-08
3.09398e-08
3.09292e-08
-1.92929e-07
5.89636e-08
3.07275e-08
-1.83496e-07
7.17281e-08
2.9963e-08
-1.33639e-07
7.91501e-08
2.96221e-08
-1.16631e-07
2.84583e-08
-3.84772e-08
3.07382e-08
5.8954e-08
-1.835e-07
5.85971e-08
5.85875e-08
-1.7417e-07
7.12816e-08
5.71581e-08
-1.24766e-07
7.86857e-08
5.65168e-08
-1.07946e-07
5.43691e-08
-3.05075e-08
2.99737e-08
7.17202e-08
-1.33646e-07
5.71676e-08
7.12736e-08
-1.24769e-07
6.95801e-08
6.95722e-08
-7.71453e-08
7.68455e-08
6.88172e-08
-6.10753e-08
6.61961e-08
1.37369e-08
2.96328e-08
7.91444e-08
-1.1664e-07
5.65264e-08
7.868e-08
-1.07951e-07
6.88251e-08
7.68399e-08
-6.10777e-08
7.60572e-08
7.60516e-08
-4.534e-08
7.32442e-08
2.82549e-08
2.84691e-08
-3.84885e-08
5.43787e-08
-3.0515e-08
6.6204e-08
1.37322e-08
7.32498e-08
2.82527e-08
9.78117e-08
4.55086e-08
4.54953e-08
-2.83988e-07
8.64333e-08
4.51445e-08
-2.69638e-07
1.05253e-07
4.38928e-08
-1.96438e-07
1.16111e-07
4.33581e-08
-1.70954e-07
4.147e-08
-5.59634e-08
4.51579e-08
8.64212e-08
-2.69643e-07
8.58197e-08
8.58076e-08
-2.55495e-07
1.04534e-07
8.35393e-08
-1.83129e-07
1.15304e-07
8.25385e-08
-1.579e-07
7.90604e-08
-4.41981e-08
4.39062e-08
1.05243e-07
-1.96446e-07
8.35514e-08
1.04524e-07
-1.83132e-07
1.01818e-07
1.01808e-07
-1.13684e-07
1.1238e-07
1.00581e-07
-8.96841e-08
9.63264e-08
1.96109e-08
4.33717e-08
1.16104e-07
-1.70966e-07
8.25506e-08
1.15297e-07
-1.57907e-07
1.00591e-07
1.12373e-07
-8.96872e-08
1.11029e-07
1.11021e-07
-6.62236e-08
1.06504e-07
4.09247e-08
4.14836e-08
-5.59779e-08
7.90726e-08
-4.42076e-08
9.63364e-08
1.96049e-08
1.06511e-07
4.09218e-08
1.4129e-07
6.75711e-08
6.75544e-08
-4.19132e-07
1.28078e-07
6.69421e-08
-3.97158e-07
1.55869e-07
6.45385e-08
-2.88863e-07
1.71186e-07
6.35381e-08
-2.49934e-07
6.01454e-08
-8.08553e-08
6.69591e-08
1.28063e-07
-3.97165e-07
1.26941e-07
1.26926e-07
-3.75461e-07
1.54529e-07
1.22553e-07
-2.68734e-07
1.69821e-07
1.20682e-07
-2.3034e-07
1.14471e-07
-6.34424e-08
6.45555e-08
1.55856e-07
-2.88874e-07
1.22568e-07
1.54516e-07
-2.68738e-07
1.49535e-07
1.49522e-07
-1.67623e-07
1.6456e-07
1.47315e-07
-1.31348e-07
1.39695e-07
2.82098e-08
6.35553e-08
1.71176e-07
-2.49949e-07
1.20698e-07
1.69812e-07
-2.30349e-07
1.47328e-07
1.64551e-07
-1.31352e-07
1.62237e-07
1.62228e-07
-9.60523e-08
1.54183e-07
5.97232e-08
6.01626e-08
-8.0874e-08
1.14486e-07
-6.34545e-08
1.39707e-07
2.82022e-08
1.54192e-07
5.97194e-08
2.04174e-07
9.80703e-08
9.80497e-08
-6.15249e-07
1.86083e-07
9.76339e-08
-5.82888e-07
2.29433e-07
9.4891e-08
-4.27227e-07
2.52434e-07
9.38046e-08
-3.66899e-07
8.8206e-08
-1.1637e-07
9.7655e-08
1.86063e-07
-5.82896e-07
1.852e-07
1.8518e-07
-5.50553e-07
2.27637e-07
1.79969e-07
-3.96251e-07
2.50025e-07
1.77505e-07
-3.36431e-07
1.67221e-07
-9.00537e-08
9.49122e-08
2.29417e-07
-4.2724e-07
1.79988e-07
2.2762e-07
-3.96257e-07
2.20324e-07
2.20308e-07
-2.483e-07
2.41783e-07
2.16746e-07
-1.92051e-07
2.04158e-07
4.17924e-08
9.38262e-08
2.52422e-07
-3.66918e-07
1.77524e-07
2.50013e-07
-3.36442e-07
2.16762e-07
2.41771e-07
-1.92056e-07
2.37607e-07
2.37596e-07
-1.37752e-07
2.24216e-07
8.92536e-08
8.82277e-08
-1.16394e-07
1.67241e-07
-9.0069e-08
2.04174e-07
4.17826e-08
2.24227e-07
8.92488e-08
2.96603e-07
1.54421e-07
1.54396e-07
-9.23944e-07
2.89e-07
1.51742e-07
-8.6928e-07
3.47661e-07
1.43346e-07
-6.29351e-07
3.76366e-07
1.39878e-07
-5.35643e-07
1.29818e-07
-1.63511e-07
1.51768e-07
2.88976e-07
-8.69291e-07
2.84408e-07
2.84384e-07
-8.15835e-07
3.43456e-07
2.70304e-07
-5.82257e-07
3.72022e-07
2.64056e-07
-4.89173e-07
2.45462e-07
-1.24055e-07
1.43372e-07
3.47641e-07
-6.29368e-07
2.70327e-07
3.43436e-07
-5.82263e-07
3.29345e-07
3.29325e-07
-3.66339e-07
3.57051e-07
3.21704e-07
-2.77406e-07
2.99192e-07
6.58524e-08
1.39905e-07
3.76351e-07
-5.35669e-07
2.6408e-07
3.72007e-07
-4.89187e-07
3.21724e-07
3.57036e-07
-2.77413e-07
3.49114e-07
3.49099e-07
-1.92541e-07
3.26054e-07
1.37704e-07
1.29845e-07
-1.63542e-07
2.45486e-07
-1.24075e-07
2.99212e-07
6.58398e-08
3.26069e-07
1.37697e-07
4.35358e-07
2.62462e-07
2.62428e-07
-1.44875e-06
4.77159e-07
2.54247e-07
-1.33833e-06
5.51993e-07
2.32577e-07
-9.36908e-07
5.73936e-07
2.19587e-07
-7.77377e-07
1.98375e-07
-2.22249e-07
2.5428e-07
4.77126e-07
-1.33835e-06
4.64192e-07
4.64161e-07
-1.23566e-06
5.38911e-07
4.30899e-07
-8.55295e-07
5.63965e-07
4.06147e-07
-7.00785e-07
3.70095e-07
-1.59595e-07
2.32606e-07
5.51967e-07
-9.36934e-07
4.30926e-07
5.38885e-07
-8.55304e-07
5.10415e-07
5.10391e-07
-5.25319e-07
5.37471e-07
4.89367e-07
-3.87682e-07
4.46869e-07
1.17173e-07
2.19618e-07
5.73918e-07
-7.77411e-07
4.06176e-07
5.63947e-07
-7.00804e-07
4.89392e-07
5.37452e-07
-3.87691e-07
5.19416e-07
5.19397e-07
-2.52595e-07
4.77282e-07
2.27171e-07
1.98407e-07
-2.22289e-07
3.70125e-07
-1.59621e-07
4.46894e-07
1.17157e-07
4.77301e-07
2.27163e-07
6.50299e-07
4.79066e-07
4.79014e-07
-2.4064e-06
8.66839e-07
4.53839e-07
-2.18001e-06
9.1758e-07
3.76959e-07
-1.36473e-06
8.87952e-07
3.50743e-07
-1.09869e-06
3.05795e-07
-2.7705e-07
4.53892e-07
8.66797e-07
-2.18004e-06
8.12056e-07
8.12011e-07
-1.95199e-06
8.76213e-07
6.8653e-07
-1.22902e-06
8.6193e-07
6.39506e-07
-9.75262e-07
5.58015e-07
-1.77429e-07
3.77005e-07
9.17546e-07
-1.36476e-06
6.86569e-07
8.76181e-07
-1.22903e-06
7.87814e-07
7.87786e-07
-7.27817e-07
8.03198e-07
7.39335e-07
-5.02893e-07
6.59062e-07
2.24218e-07
3.50784e-07
8.87932e-07
-1.09873e-06
6.39544e-07
8.61908e-07
-9.75287e-07
7.39367e-07
8.03177e-07
-5.02904e-07
7.63466e-07
7.63443e-07
-3.008e-07
6.86702e-07
3.84853e-07
3.05832e-07
-2.77106e-07
5.58051e-07
-1.77463e-07
6.59093e-07
2.24198e-07
6.86726e-07
3.84843e-07
9.6088e-07
5.73847e-07
5.73798e-07
-3.55361e-06
1.09149e-06
5.80581e-07
-3.2783e-06
1.37269e-06
5.90553e-07
-2.23672e-06
1.39545e-06
5.61502e-07
-1.68328e-06
4.6176e-07
-2.85781e-07
5.80627e-07
1.09143e-06
-3.27832e-06
1.10813e-06
1.10808e-06
-3.007e-06
1.33482e-06
1.0845e-06
-1.94966e-06
1.31602e-06
9.8824e-07
-1.38319e-06
8.23254e-07
-1.45345e-07
5.90606e-07
1.37265e-06
-2.23677e-06
1.08455e-06
1.33478e-06
-1.94968e-06
1.18932e-06
1.18928e-06
-9.37372e-07
1.19457e-06
1.09993e-06
-6.19831e-07
9.48005e-07
4.17553e-07
5.61558e-07
1.39543e-06
-1.68335e-06
9.88293e-07
1.316e-06
-1.38324e-06
1.09997e-06
1.19454e-06
-6.19841e-07
1.1133e-06
1.11327e-06
-3.27464e-07
9.60454e-07
6.40699e-07
4.61808e-07
-2.85836e-07
8.233e-07
-1.45382e-07
9.48044e-07
4.17529e-07
9.60484e-07
6.40687e-07
1.35041e-06
7.19444e-07
7.19385e-07
-4.99144e-06
1.32743e-06
7.14309e-07
-4.6005e-06
1.70275e-06
6.9051e-07
-3.30263e-06
1.91765e-06
6.89565e-07
-2.58795e-06
5.96343e-07
-3.48182e-07
7.1437e-07
1.32737e-06
-4.60052e-06
1.32221e-06
1.32215e-06
-4.22268e-06
1.68228e-06
1.3102e-06
-2.92943e-06
1.86742e-06
1.33643e-06
-2.2152e-06
1.09353e-06
-1.3161e-07
6.90568e-07
1.70269e-06
-3.30267e-06
1.31025e-06
1.68223e-06
-2.92944e-06
1.62251e-06
1.62247e-06
-1.56189e-06
1.67139e-06
1.51607e-06
-8.48341e-07
1.28928e-06
6.36116e-07
6.89623e-07
1.91761e-06
-2.58803e-06
1.33648e-06
1.86738e-06
-2.21524e-06
1.51611e-06
1.67136e-06
-8.48357e-07
1.55112e-06
1.55109e-06
-3.97492e-07
1.31298e-06
9.5756e-07
5.96404e-07
-3.48252e-07
1.09359e-06
-1.31658e-07
1.28933e-06
6.36086e-07
1.31302e-06
9.57544e-07
1.83054e-06
1.05656e-06
1.05648e-06
-7.10391e-06
1.89021e-06
1.02682e-06
-6.46104e-06
2.40408e-06
9.64191e-07
-4.78105e-06
2.63634e-06
9.33227e-07
-3.75398e-06
8.26719e-07
-5.72032e-07
1.02689e-06
1.89014e-06
-6.46107e-06
1.85013e-06
1.85006e-06
-5.86916e-06
2.35622e-06
1.74092e-06
-4.21224e-06
2.58478e-06
1.70629e-06
-3.21682e-06
1.4802e-06
-1.8228e-07
9.64267e-07
2.40402e-06
-4.78111e-06
1.74099e-06
2.35615e-06
-4.21226e-06
2.22461e-06
2.22454e-06
-2.52912e-06
2.41257e-06
2.16545e-06
-1.49546e-06
1.8143e-06
8.53e-07
9.33303e-07
2.63629e-06
-3.75406e-06
1.70635e-06
2.58473e-06
-3.21687e-06
2.16551e-06
2.41253e-06
-1.49549e-06
2.20586e-06
2.20582e-06
-4.78204e-07
1.95649e-06
1.26843e-06
8.26795e-07
-5.72143e-07
1.48028e-06
-1.8235e-07
1.81437e-06
8.5297e-07
1.95653e-06
1.26841e-06
2.59982e-06
1.5992e-06
1.59911e-06
-1.03005e-05
2.79459e-06
1.53381e-06
-9.18995e-06
3.45624e-06
1.4099e-06
-6.85263e-06
3.64107e-06
1.34825e-06
-5.28737e-06
1.21731e-06
-1.07907e-06
1.5339e-06
2.7945e-06
-9.18998e-06
2.7011e-06
2.701e-06
-8.20354e-06
3.36904e-06
2.50882e-06
-5.97909e-06
3.59494e-06
2.41128e-06
-4.50574e-06
2.08483e-06
-3.10487e-07
1.41e-06
3.45615e-06
-6.85269e-06
2.50891e-06
3.36896e-06
-5.97912e-06
3.13429e-06
3.13421e-06
-3.77989e-06
3.34082e-06
3.00349e-06
-2.2942e-06
2.56078e-06
1.0705e-06
1.34835e-06
3.64099e-06
-5.28746e-06
2.41137e-06
3.59487e-06
-4.50579e-06
3.00357e-06
3.34076e-06
-2.29423e-06
3.13345e-06
3.13339e-06
-7.3798e-07
2.7296e-06
1.74236e-06
1.21743e-06
-1.07923e-06
2.08493e-06
-3.10572e-07
2.56087e-06
1.07046e-06
2.72966e-06
1.74233e-06
3.6445e-06
2.83254e-06
2.83242e-06
-1.59657e-05
4.69229e-06
2.61208e-06
-1.36624e-05
5.49441e-06
2.30116e-06
-9.95685e-06
5.43403e-06
2.07326e-06
-7.30108e-06
1.80707e-06
-1.80972e-06
2.61221e-06
4.69218e-06
-1.36624e-05
4.38234e-06
4.38222e-06
-1.17438e-05
5.21106e-06
3.90013e-06
-8.40678e-06
5.25791e-06
3.61355e-06
-6.09288e-06
3.16835e-06
-6.19627e-07
2.30129e-06
5.49432e-06
-9.95692e-06
3.90024e-06
5.21096e-06
-8.40681e-06
4.76871e-06
4.76861e-06
-5.51683e-06
4.91023e-06
4.45908e-06
-3.28125e-06
3.83692e-06
1.42076e-06
2.07339e-06
5.43396e-06
-7.30118e-06
3.61367e-06
5.25782e-06
-6.09293e-06
4.45918e-06
4.91015e-06
-3.28128e-06
4.65065e-06
4.65057e-06
-1.12094e-06
4.00016e-06
2.56267e-06
1.80717e-06
-1.80992e-06
3.16847e-06
-6.19774e-07
3.83702e-06
1.4207e-06
4.00024e-06
2.56264e-06
5.29319e-06
4.41033e-06
4.41017e-06
-2.47847e-05
7.30239e-06
4.08614e-06
-2.06407e-05
8.51867e-06
3.54561e-06
-1.47195e-05
8.21468e-06
3.13212e-06
-1.013e-05
2.57365e-06
-2.54185e-06
4.08631e-06
7.30224e-06
-2.06408e-05
6.79162e-06
6.79146e-06
-1.71544e-05
7.98768e-06
5.97193e-06
-1.20292e-05
7.83454e-06
5.35273e-06
-8.16035e-06
4.40786e-06
-6.95381e-07
3.54577e-06
8.51854e-06
-1.47196e-05
5.97209e-06
7.98755e-06
-1.20292e-05
7.09607e-06
7.09594e-06
-7.76482e-06
7.09861e-06
6.47875e-06
-4.40981e-06
5.32582e-06
2.06379e-06
3.13228e-06
8.21458e-06
-1.01301e-05
5.35288e-06
7.83443e-06
-8.16041e-06
6.47888e-06
7.09851e-06
-4.40985e-06
6.50187e-06
6.50178e-06
-1.16695e-06
5.49385e-06
3.81416e-06
2.57381e-06
-2.54206e-06
4.40802e-06
-6.95577e-07
5.32596e-06
2.06372e-06
5.49395e-06
3.81413e-06
7.55832e-06
8.50332e-06
8.50311e-06
-4.17933e-05
1.30172e-05
7.36908e-06
-3.25253e-05
1.46844e-05
6.32116e-06
-2.27105e-05
1.32635e-05
5.26557e-06
-1.39776e-05
4.06163e-06
-3.12278e-06
7.36929e-06
1.3017e-05
-3.25254e-05
1.16447e-05
1.16445e-05
-2.57052e-05
1.33537e-05
1.01348e-05
-1.75518e-05
1.22461e-05
8.65567e-06
-1.04428e-05
6.92698e-06
-4.98858e-07
6.32137e-06
1.46842e-05
-2.27107e-05
1.0135e-05
1.33536e-05
-1.75519e-05
1.16617e-05
1.16615e-05
-1.08183e-05
1.08748e-05
1.01086e-05
-5.07589e-06
8.19554e-06
3.44414e-06
5.26578e-06
1.32634e-05
-1.39778e-05
8.65587e-06
1.22459e-05
-1.04429e-05
1.01088e-05
1.08747e-05
-5.07594e-06
9.83009e-06
9.82997e-06
-6.09616e-07
8.05492e-06
6.28984e-06
4.06181e-06
-3.12306e-06
6.92716e-06
-4.9908e-07
8.19569e-06
3.44404e-06
8.05505e-06
6.28979e-06
1.13211e-05
1.29449e-05
1.29446e-05
-6.76827e-05
1.99444e-05
1.14954e-05
-5.10212e-05
2.20001e-05
9.31003e-06
-3.40782e-05
1.96374e-05
7.73671e-06
-1.93536e-05
5.7215e-06
-3.3439e-06
1.14957e-05
1.99441e-05
-5.10213e-05
1.76225e-05
1.76223e-05
-3.7959e-05
1.97565e-05
1.48209e-05
-2.51966e-05
1.79421e-05
1.24607e-05
-1.33524e-05
9.48151e-06
7.18608e-07
9.31031e-06
2.19999e-05
-3.40783e-05
1.48211e-05
1.97563e-05
-2.51967e-05
1.68769e-05
1.68767e-05
-1.49298e-05
1.56452e-05
1.44583e-05
-5.84193e-06
1.11388e-05
5.95075e-06
7.73699e-06
1.96372e-05
-1.93538e-05
1.24609e-05
1.7942e-05
-1.33525e-05
1.44586e-05
1.56451e-05
-5.84199e-06
1.35978e-05
1.35977e-05
1.11178e-06
1.08482e-05
1.00955e-05
5.72179e-06
-3.34426e-06
9.48176e-06
7.18372e-07
1.1139e-05
5.95062e-06
1.08483e-05
1.00954e-05
1.64871e-05
2.87633e-05
2.8763e-05
-0.000125214
3.8306e-05
2.19865e-05
-8.25532e-05
3.96021e-05
1.78435e-05
-5.32232e-05
3.28983e-05
1.31752e-05
-2.58301e-05
9.68546e-06
-2.04829e-06
2.19868e-05
3.83057e-05
-8.25534e-05
3.12635e-05
3.12631e-05
-5.65122e-05
3.37479e-05
2.58703e-05
-3.57079e-05
2.91318e-05
2.03059e-05
-1.5867e-05
1.51854e-05
4.44622e-06
1.78438e-05
3.96018e-05
-5.32234e-05
2.58706e-05
3.37476e-05
-3.5708e-05
2.84177e-05
2.84174e-05
-2.0024e-05
2.51017e-05
2.31724e-05
-5.39245e-06
1.70302e-05
1.19727e-05
1.31756e-05
3.28981e-05
-2.58304e-05
2.03062e-05
2.91316e-05
-1.58671e-05
2.31727e-05
2.51015e-05
-5.39253e-06
2.08591e-05
2.08588e-05
5.73896e-06
1.56379e-05
1.75504e-05
9.68577e-06
-2.04874e-06
1.51857e-05
4.44586e-06
1.70305e-05
1.19725e-05
1.56381e-05
1.75503e-05
2.49178e-05
4.28984e-05
4.28979e-05
-0.000211019
5.99481e-05
3.60381e-05
-0.000135645
5.94087e-05
2.57268e-05
-7.84149e-05
4.76989e-05
1.94139e-05
-3.35385e-05
1.23178e-05
1.72823e-06
3.60386e-05
5.99477e-05
-0.000135645
4.84289e-05
4.84285e-05
-8.1293e-05
4.93412e-05
3.75789e-05
-4.84722e-05
4.07842e-05
2.85653e-05
-1.64613e-05
1.94767e-05
1.0985e-05
2.57273e-05
5.94083e-05
-7.84153e-05
3.75793e-05
4.93408e-05
-4.84724e-05
3.97322e-05
3.97319e-05
-2.433e-05
3.37943e-05
3.14607e-05
-2.34994e-06
2.21098e-05
1.99886e-05
1.94144e-05
4.76987e-05
-3.35389e-05
2.85657e-05
4.07839e-05
-1.64616e-05
3.14611e-05
3.3794e-05
-2.35005e-06
2.70883e-05
2.7088e-05
1.44845e-05
2.01998e-05
2.76067e-05
1.23183e-05
1.72767e-06
1.94771e-05
1.09846e-05
2.21102e-05
1.99884e-05
2.02e-05
2.76066e-05
3.60906e-05
0.000115971
0.000115971
-0.000442969
0.000127747
7.14211e-05
-0.000218844
0.00011087
5.32619e-05
-0.000114809
8.09198e-05
3.28309e-05
-3.64273e-05
2.15746e-05
1.33762e-05
7.14218e-05
0.000127747
-0.000218844
8.84072e-05
8.84067e-05
-0.000115264
8.46318e-05
6.77565e-05
-5.91913e-05
6.57663e-05
4.66169e-05
-1.13817e-05
3.08202e-05
2.6473e-05
5.32626e-05
0.00011087
-0.00011481
6.77571e-05
8.46313e-05
-5.91916e-05
6.74076e-05
6.74071e-05
-2.36311e-05
5.29334e-05
4.88104e-05
9.93079e-06
3.31532e-05
3.70145e-05
3.28315e-05
8.09193e-05
-3.64278e-05
4.66174e-05
6.57658e-05
-1.1382e-05
4.88109e-05
5.2933e-05
9.93062e-06
4.03722e-05
4.03718e-05
3.13619e-05
2.83624e-05
4.57201e-05
2.15752e-05
1.33753e-05
3.08208e-05
2.64725e-05
3.31537e-05
3.70143e-05
2.83628e-05
4.572e-05
5.41399e-05
0.000164551
0.00016455
-0.000772125
0.000205379
0.000130649
-0.000390334
0.000169687
7.46737e-05
-0.000153803
0.000114324
4.98749e-05
-3.09482e-05
2.52499e-05
3.31565e-05
0.00013065
0.000205378
-0.000390334
0.000143339
0.000143338
-0.000140643
0.000121746
9.6685e-05
-5.9609e-05
8.71168e-05
6.31365e-05
9.98544e-06
3.73706e-05
4.87356e-05
7.46746e-05
0.000169687
-0.000153804
9.66858e-05
0.000121745
-5.96093e-05
8.99718e-05
8.99712e-05
-1.02033e-05
6.6728e-05
6.13096e-05
3.50015e-05
3.96111e-05
5.85789e-05
4.98756e-05
0.000114324
-3.09488e-05
6.31372e-05
8.71163e-05
9.98495e-06
6.13102e-05
6.67275e-05
3.50013e-05
4.91385e-05
4.9138e-05
5.57052e-05
3.34574e-05
6.88545e-05
2.52506e-05
3.31554e-05
3.73713e-05
4.8735e-05
3.96117e-05
5.85785e-05
3.3458e-05
6.88543e-05
7.58175e-05
0.000564861
0.00056486
-0.000646069
-0.000458999
-0.000458999
-0.000337755
0.00049714
0.000244924
-0.000567519
0.000311871
0.000155579
-0.000124125
0.000188184
7.57818e-05
1.69464e-05
4.27651e-05
8.27775e-05
0.000244925
0.000497139
-0.000567519
0.00025847
0.000258469
-0.000167732
0.000202045
0.000171407
-1.90124e-05
0.000133222
9.43815e-05
6.02091e-05
5.52551e-05
9.33928e-05
0.00015558
0.00031187
-0.000124127
0.000171408
0.000202044
-1.90128e-05
0.00014188
0.000141879
4.88519e-05
9.89094e-05
8.91333e-05
8.32205e-05
5.49438e-05
0.000100312
7.57828e-05
0.000188183
1.69456e-05
9.43825e-05
0.000133221
6.02086e-05
8.91341e-05
9.89087e-05
8.32204e-05
6.81415e-05
6.81408e-05
9.76902e-05
4.3598e-05
0.000105598
4.27661e-05
8.2776e-05
5.52561e-05
9.33919e-05
5.49447e-05
0.000100312
4.35987e-05
0.000105598
0.000108217
0.000194612
0.000194612
-0.00103537
0.00101126
0.000565628
-0.000321882
-0.000101985
-0.000183332
-3.1549e-05
-0.000256882
-0.000217874
-0.000597865
-0.000433076
0.000510586
0.000212105
0.000164423
0.000250597
0.000108359
0.000168558
4.37931e-05
0.000156724
0.000565629
0.00101126
-0.000321882
-0.000183332
-0.000101985
-3.15491e-05
-0.000256881
-0.000217874
-0.000597865
-0.000433076
0.000452457
0.000452456
5.86113e-05
0.000257052
0.000224466
0.000164032
0.000159168
0.000115768
0.000150684
5.70342e-05
0.000155552
0.000212107
0.000510585
0.00016442
0.000224468
0.000257051
0.000164032
0.000167008
0.000167007
0.00016377
0.000110576
9.73051e-05
0.000158116
5.41942e-05
0.000149315
0.00010836
0.000250595
0.000168557
0.000115769
0.000159167
0.000150684
9.73061e-05
0.000110575
0.000158115
7.12092e-05
7.12082e-05
0.000149884
4.24347e-05
0.000146156
4.37946e-05
0.000156722
5.70357e-05
0.000155551
5.41955e-05
0.000149315
4.24357e-05
0.000146155
0.000139538
0.000637412
0.000213035
0.000213035
-0.00106358
-0.000287152
0.000734806
0.000303586
-0.0002659
-0.000414913
-0.000376309
2.1637e-05
-3.34655e-05
-1.95761e-05
1.54604e-05
0.000633366
0.000298164
0.000691206
-0.000409586
-0.00030483
-0.000407639
-0.000336261
0.000310152
0.000111287
0.000380468
5.56695e-05
0.00027157
-0.000287152
0.000303586
0.000734806
-0.0002659
-0.000414913
-0.000376309
2.1637e-05
-3.34655e-05
-1.95761e-05
1.54603e-05
0.000688955
0.000688953
0.000341357
-0.000353842
-0.000166164
-0.000429953
-0.000208178
-0.000353843
-0.000166164
-0.000429953
-0.000208178
0.000229307
0.000229307
0.000197008
0.000387485
0.000299958
0.000463708
0.000202352
0.000138309
0.000308794
6.56793e-05
0.000238993
0.000298167
0.000633365
0.000691199
-0.000409586
-0.000304829
-0.000407639
-0.00033626
0.00029996
0.000387484
0.000463708
0.000208348
0.000208346
0.000346994
0.000127054
0.000115689
0.00026203
5.91028e-05
0.000214117
0.000111288
0.00031015
0.000380469
0.000138311
0.000202351
0.000308794
0.00011569
0.000127052
0.00026203
7.97702e-05
7.9769e-05
0.000221724
4.35792e-05
0.000193076
5.56717e-05
0.000271566
6.56814e-05
0.000238992
5.91045e-05
0.000214117
4.35805e-05
0.000193076
0.000175347
0.00170429
7.74743e-06
7.74748e-06
-0.00171982
-0.000194114
-0.000326289
0.000320953
2.65558e-05
0.00017292
0.000136502
5.18867e-05
0.000587492
-0.000232612
-0.000159011
0.000205469
0.000101436
9.50831e-05
3.84161e-05
0.000383442
1.86436e-05
0.000283423
-0.000194114
-0.000326289
2.65559e-05
0.000320953
0.00017292
-9.12347e-05
-9.12349e-05
0.000150815
0.000150814
0.000424981
-6.07052e-05
-2.35689e-05
-1.71173e-05
-6.07054e-05
-2.35691e-05
-1.71175e-05
0.000121768
7.21254e-05
0.00044309
-0.000109331
-7.1665e-05
6.06899e-05
-1.08227e-06
7.90112e-05
5.62562e-05
0.000333711
2.51073e-05
0.000256058
5.18928e-05
0.000136501
0.000587475
-0.000232611
-0.00015901
0.00020547
0.000101437
7.21297e-05
0.000121766
0.000443092
-0.000109331
-7.16646e-05
6.06904e-05
-1.08204e-06
6.87336e-05
6.87314e-05
0.000353784
5.25313e-05
5.13866e-05
0.000283102
2.48484e-05
0.000232445
3.84172e-05
9.50802e-05
0.000383445
5.62574e-05
7.90088e-05
0.000333711
5.1388e-05
5.25291e-05
0.000283102
3.95282e-05
3.95268e-05
0.000245443
2.00136e-05
0.000210552
1.86468e-05
0.000283419
2.51097e-05
0.000256058
2.48504e-05
0.000232445
2.00153e-05
0.000210551
0.00019026
0.00173066
-6.89033e-05
-6.89027e-05
-0.00159288
-6.26337e-05
0.000506948
-0.000702069
-0.000320371
-0.00037989
-9.61591e-05
-9.15502e-05
-9.20382e-05
0.000463279
0.000421079
0.000354267
-0.000169139
-0.000102438
0.000176525
0.000284508
0.000202305
0.000120361
7.54502e-05
-5.53648e-05
-1.06825e-05
0.000280314
-7.58385e-06
0.000231608
-6.26334e-05
0.00050695
-0.000320377
-0.000702071
-0.000379895
-9.15498e-05
-9.61589e-05
-9.20379e-05
0.00046328
0.000421083
0.000354271
-0.000223321
-0.000223328
0.000102864
-0.000264473
-0.000173925
-0.000173925
-0.000145693
0.000295943
0.000101874
0.000112095
4.09847e-05
0.000295945
0.000101879
0.000112089
4.09894e-05
-7.13805e-05
-7.46198e-05
0.000263332
-1.58238e-05
-6.84536e-06
0.000274317
-3.49503e-06
0.000231199
-0.000102428
-0.000169143
0.000176508
0.000284511
0.000202304
0.000120356
7.5448e-05
-7.46137e-05
-7.13828e-05
0.000263333
-2.6556e-05
-2.65577e-05
0.000257665
-2.80675e-06
1.75848e-06
0.000250749
1.64971e-06
0.00021835
-1.06819e-05
-5.53681e-05
0.000280318
-6.84464e-06
-1.58268e-05
0.000274318
1.76017e-06
-2.81031e-06
0.00025075
6.86233e-06
6.86059e-06
0.000235239
3.38176e-06
0.000208572
-7.57889e-06
0.000231604
-3.49106e-06
0.000231198
1.6524e-06
0.00021835
3.38395e-06
0.000208572
0.0001903
0.00280418
0.000264586
0.000264617
-0.000727507
-0.000958778
-0.000823437
-0.000823417
0.000607829
-0.000266656
0.000125362
4.60699e-05
-0.00051248
0.000121101
6.97622e-05
0.000509765
-5.53618e-05
-3.74185e-05
-0.000269368
-0.000162017
4.1895e-05
5.33518e-06
0.000354134
-1.21404e-06
0.000265107
0.000607855
-0.000266574
4.60459e-05
0.000125295
-0.000512508
0.000179345
0.000179325
0.000159676
-5.48389e-05
-2.92101e-05
-0.000251189
-7.01343e-05
-5.48306e-05
-2.91888e-05
-0.00025123
-7.0117e-05
0.000138656
0.000138656
0.000117945
5.9439e-05
4.50813e-05
0.000407918
1.46118e-05
5.71587e-06
0.000318764
-8.17876e-06
0.000243022
6.97926e-05
0.000121084
0.000509779
-5.53544e-05
-3.74337e-05
-0.000269407
-0.00016202
4.50984e-05
5.94351e-05
0.000407917
7.93578e-06
7.9344e-06
0.000331974
-4.07504e-06
-4.08354e-06
0.000272559
-1.26135e-05
0.000222366
5.3315e-06
4.18951e-05
0.000354131
5.71354e-06
1.46068e-05
0.000318764
-4.08214e-06
-4.07999e-06
0.00027256
-6.72264e-06
-6.72432e-06
0.00024052
-1.21913e-05
0.00020407
-1.20546e-06
0.000265111
-8.17264e-06
0.000243022
-1.26101e-05
0.000222366
-1.21886e-05
0.00020407
0.000184182
0.00171714
1.42875e-05
1.42866e-05
-0.00174571
2.73414e-05
-0.000561541
0.000336967
8.33865e-05
0.000113871
3.99353e-06
3.21535e-05
0.000792785
-0.000223159
-0.000181893
2.71834e-05
5.89357e-05
-2.5166e-05
-1.76959e-05
0.000400899
-6.80367e-06
0.000290676
2.73304e-05
-0.000561543
8.33851e-05
0.000336965
0.000113882
-0.000315895
-0.000315908
0.000192098
0.000192093
0.000407288
-5.57447e-05
-5.05347e-08
0.000514022
-7.82906e-05
-3.19125e-05
4.15608e-05