FoamFile
{version 2.0; format ascii;class Cloud<passiveParticle>; location 0;object  positions;}
1
(
( 0.0499962 0.0110574 0.0499962 ) 0 
)
