FoamFile
{version 2.0; format ascii;class vectorField; location 0;object  v;}
1
(
( -5.90342e-05 -0.128958 -5.90342e-05 )  
)
