/*--------------------------------*- C++ -*----------------------------------*\
| =========                 |                                                 |
| \\      /  F ield         | OpenFOAM: The Open Source CFD Toolbox           |
|  \\    /   O peration     | Version:  5.x                                   |
|   \\  /    A nd           | Web:      www.OpenFOAM.org                      |
|    \\/     M anipulation  |                                                 |
\*---------------------------------------------------------------------------*/
FoamFile
{
    version     2.0;
    format      ascii;
    class       volScalarField;
    location    "0.07";
    object      Ksl;
}
// * * * * * * * * * * * * * * * * * * * * * * * * * * * * * * * * * * * * * //

dimensions      [1 -3 -1 0 0 0 0];

internalField   nonuniform List<scalar> 
320
(
0
0
0
0
0
0
0
0
2.36031e-05
0.000337306
0.00013679
0
0.000538009
0.00614431
0.00374547
0.000268008
0.00725786
0.134795
0.0634187
0.00389468
0.131349
0.989325
0.478752
0.0720527
0.60079
1.00527
0.521598
0.315783
0.937543
2.10454
0.985202
0.446118
0.0525407
0.758494
0.381504
0.0253132
0.0015976
0.0219283
0.0121829
0.000775965
8.34033e-05
0.000772321
0.0004321
4.03097e-05
3.94889e-06
5.12814e-05
3.10504e-05
-2.71274e-21
0
0
0
0
0
0
0
0
0
0
0
0
0
0
0
0
0
0
0
0
0
0
0
0
0
0
0
0
0
0
0
0
0
0
0
0
0
4.58825e-05
4.1884e-05
0
0.000337306
0.0016972
0.00159674
0.000267265
0.00614431
0.0416697
0.0362891
0.00689819
0.134795
2.54537
0.600319
0.10346
0.989325
1.03724
0.532654
0.50793
1.00527
1.00962
0.516565
0.515212
2.10454
2.22375
1.01117
0.958997
0.758494
2.81428
1.12156
0.336899
0.0219283
0.221262
0.152328
0.0129567
0.000772321
0.00737691
0.00432891
0.000470253
5.12814e-05
0.000199195
0.000133742
4.02909e-05
0
1.28209e-05
6.2165e-06
0
0
0
0
0
0
0
0
0
0
0
0
0
0
0
0
0
0
0
0
0
0
0
0
0
0
0
0
0
0
0
0
0
0
4.1884e-05
5.42286e-05
0
0.00013679
0.00159674
0.00164181
0.000109044
0.00374547
0.0362891
0.0458184
0.00399451
0.0634187
0.600319
0.484262
0.0645249
0.478752
0.532654
0.509841
0.445214
0.521598
0.516565
0.503611
0.495883
0.985202
1.01117
0.517205
0.506014
0.381504
1.12156
0.561347
0.193458
0.0121829
0.152328
0.0660303
0.00741163
0.0004321
0.00432891
0.00315369
0.000202479
3.10504e-05
0.000133742
6.40313e-05
1.78962e-05
0
6.2165e-06
4.27881e-06
0
0
0
0
0
0
0
0
0
0
0
0
0
0
0
0
0
0
0
0
0
0
0
0
0
0
0
0
0
0
0
0
0
0
0
0
0
0
0.000267265
0.000109044
0
0.000268008
0.00689819
0.00399451
0.000222112
0.00389468
0.10346
0.0645249
0.0035284
0.0720527
0.50793
0.445214
0.0678907
0.315783
0.515212
0.495883
0.302063
0.446118
0.958997
0.506014
0.238339
0.0253132
0.336899
0.193458
0.0135757
0.000775965
0.0129567
0.00741163
0.00042112
4.03097e-05
0.000470253
0.000202479
2.08741e-05
-2.71274e-21
4.02909e-05
1.78962e-05
0
0
0
0
0
0
0
0
0
0
0
0
0
0
0
0
0
0
0
0
0
0
0
0
0
0
0
0
0
0
0
0
0
)
;

boundaryField
{
    inlet
    {
        type            zeroGradient;
    }
    outlet
    {
        type            zeroGradient;
    }
    walls
    {
        type            zeroGradient;
    }
}


// ************************************************************************* //
