/*--------------------------------*- C++ -*----------------------------------*\
| =========                 |                                                 |
| \\      /  F ield         | OpenFOAM: The Open Source CFD Toolbox           |
|  \\    /   O peration     | Version:  5.x                                   |
|   \\  /    A nd           | Web:      www.OpenFOAM.org                      |
|    \\/     M anipulation  |                                                 |
\*---------------------------------------------------------------------------*/
FoamFile
{
    version     2.0;
    format      ascii;
    class       volScalarField;
    location    "0.07";
    object      p;
}
// * * * * * * * * * * * * * * * * * * * * * * * * * * * * * * * * * * * * * //

dimensions      [0 2 -2 0 0 0 0];

internalField   nonuniform List<scalar> 
320
(
6.35118e-09
2.06774e-08
6.88878e-09
-1.48729e-09
-2.37685e-08
3.55985e-08
-2.75074e-08
-5.85429e-08
-5.11399e-08
1.10924e-07
-3.67118e-08
-1.1596e-07
-2.49429e-07
6.19131e-08
-1.88394e-07
-3.54381e-07
-4.85877e-07
7.78091e-07
-1.32472e-07
-7.37012e-07
-2.30697e-06
-1.41181e-06
-1.99812e-06
-2.39555e-06
-3.65636e-06
1.49429e-07
-2.27526e-06
-3.78239e-06
-9.26604e-06
-9.39263e-06
-9.38981e-06
-8.94086e-06
-1.37811e-05
-1.77582e-05
-1.44523e-05
-1.3491e-05
-1.56834e-05
-1.75279e-05
-1.60708e-05
-1.55911e-05
-1.64126e-05
-1.71517e-05
-1.66566e-05
-1.63783e-05
-1.67616e-05
-1.72562e-05
-1.68559e-05
-1.67037e-05
-1.71418e-05
-1.73265e-05
-1.71979e-05
-1.71255e-05
-1.69525e-05
-1.70459e-05
-1.69625e-05
-1.69288e-05
-1.72746e-05
-1.73174e-05
-1.72826e-05
-1.72648e-05
-1.70077e-05
-1.70215e-05
-1.70034e-05
-1.70002e-05
-1.72642e-05
-1.72721e-05
-1.72678e-05
-1.72594e-05
-1.70561e-05
-1.70595e-05
-1.70559e-05
-1.70581e-05
-1.72069e-05
-1.72084e-05
-1.72071e-05
-1.72043e-05
-1.71268e-05
-1.7129e-05
-1.71276e-05
-1.71263e-05
2.06774e-08
4.16257e-08
2.21015e-08
1.3687e-08
3.55985e-08
1.17756e-07
3.61447e-08
-9.25947e-09
1.10924e-07
3.65025e-07
1.48734e-07
3.54186e-08
6.19131e-08
8.66402e-07
2.83391e-07
-7.5038e-08
7.78091e-07
3.00244e-06
1.4849e-06
2.44042e-07
-1.41181e-06
3.35376e-06
5.04009e-07
-1.58834e-06
1.49429e-07
1.63683e-05
6.17974e-06
-6.36164e-07
-9.39263e-06
-1.05656e-05
-1.09567e-05
-8.95061e-06
-1.77582e-05
-3.41758e-05
-2.45705e-05
-1.70918e-05
-1.75279e-05
-2.12847e-05
-1.83669e-05
-1.74423e-05
-1.71517e-05
-1.84532e-05
-1.73877e-05
-1.70818e-05
-1.72562e-05
-1.8118e-05
-1.73736e-05
-1.7138e-05
-1.73265e-05
-1.76365e-05
-1.73882e-05
-1.72978e-05
-1.70459e-05
-1.71881e-05
-1.70479e-05
-1.70119e-05
-1.73174e-05
-1.73697e-05
-1.73237e-05
-1.73038e-05
-1.70215e-05
-1.70502e-05
-1.702e-05
-1.70114e-05
-1.72721e-05
-1.72761e-05
-1.72718e-05
-1.72697e-05
-1.70595e-05
-1.7069e-05
-1.70613e-05
-1.70588e-05
-1.72084e-05
-1.72081e-05
-1.72079e-05
-1.72069e-05
-1.7129e-05
-1.71321e-05
-1.71299e-05
-1.71283e-05
6.88878e-09
2.21015e-08
1.11684e-08
-1.73859e-09
-2.75074e-08
3.61447e-08
-3.52112e-08
-6.20373e-08
-3.67118e-08
1.48734e-07
2.41187e-08
-9.72669e-08
-1.88394e-07
2.83391e-07
-1.11237e-07
-2.97928e-07
-1.32472e-07
1.4849e-06
8.02516e-07
-3.86428e-07
-1.99812e-06
5.04009e-07
-5.14596e-07
-2.08453e-06
-2.27526e-06
6.17974e-06
2.10102e-06
-2.59453e-06
-9.38981e-06
-1.09567e-05
-1.12444e-05
-9.22083e-06
-1.44523e-05
-2.45705e-05
-2.0179e-05
-1.44814e-05
-1.60708e-05
-1.83669e-05
-1.71657e-05
-1.61329e-05
-1.66566e-05
-1.73877e-05
-1.70759e-05
-1.66451e-05
-1.68559e-05
-1.73736e-05
-1.69684e-05
-1.68027e-05
-1.71979e-05
-1.73882e-05
-1.72954e-05
-1.71736e-05
-1.69625e-05
-1.70479e-05
-1.69571e-05
-1.69342e-05
-1.72826e-05
-1.73237e-05
-1.73085e-05
-1.72723e-05
-1.70034e-05
-1.702e-05
-1.69991e-05
-1.69945e-05
-1.72678e-05
-1.72718e-05
-1.72706e-05
-1.72647e-05
-1.70559e-05
-1.70613e-05
-1.70547e-05
-1.70535e-05
-1.72071e-05
-1.72079e-05
-1.72077e-05
-1.72059e-05
-1.71276e-05
-1.71299e-05
-1.71286e-05
-1.7127e-05
-1.48729e-09
1.3687e-08
-1.73859e-09
-9.40855e-09
-5.85429e-08
-9.25947e-09
-6.20373e-08
-8.94309e-08
-1.1596e-07
3.54186e-08
-9.72669e-08
-1.72866e-07
-3.54381e-07
-7.5038e-08
-2.97928e-07
-4.45291e-07
-7.37012e-07
2.44042e-07
-3.86428e-07
-9.00427e-07
-2.39555e-06
-1.58834e-06
-2.08453e-06
-2.47148e-06
-3.78239e-06
-6.36164e-07
-2.59453e-06
-4.00365e-06
-8.94086e-06
-8.95061e-06
-9.22083e-06
-8.87095e-06
-1.3491e-05
-1.70918e-05
-1.44814e-05
-1.33727e-05
-1.55911e-05
-1.74423e-05
-1.61329e-05
-1.55321e-05
-1.63783e-05
-1.70818e-05
-1.66451e-05
-1.63391e-05
-1.67037e-05
-1.7138e-05
-1.68027e-05
-1.66515e-05
-1.71255e-05
-1.72978e-05
-1.71736e-05
-1.70971e-05
-1.69288e-05
-1.70119e-05
-1.69342e-05
-1.69039e-05
-1.72648e-05
-1.73038e-05
-1.72723e-05
-1.72529e-05
-1.70002e-05
-1.70114e-05
-1.69945e-05
-1.69931e-05
-1.72594e-05
-1.72697e-05
-1.72647e-05
-1.72549e-05
-1.70581e-05
-1.70588e-05
-1.70535e-05
-1.70572e-05
-1.72043e-05
-1.72069e-05
-1.72059e-05
-1.72022e-05
-1.71263e-05
-1.71283e-05
-1.7127e-05
-1.71259e-05
)
;

boundaryField
{
    inlet
    {
        type            zeroGradient;
    }
    outlet
    {
        type            totalPressure;
        rho             rho;
        psi             none;
        gamma           1;
        p0              uniform 0;
        value           nonuniform List<scalar> 
16
(
-2.15818e-15
0
-8.73979e-15
-3.5215e-14
0
0
0
-2.85591e-15
-8.73979e-15
0
-1.48859e-14
-4.95099e-14
-3.5215e-14
-2.85591e-15
-4.95099e-14
-9.62454e-14
)
;
    }
    walls
    {
        type            zeroGradient;
    }
}


// ************************************************************************* //
