/*--------------------------------*- C++ -*----------------------------------*\
| =========                 |                                                 |
| \\      /  F ield         | OpenFOAM: The Open Source CFD Toolbox           |
|  \\    /   O peration     | Version:  5.x                                   |
|   \\  /    A nd           | Web:      www.OpenFOAM.org                      |
|    \\/     M anipulation  |                                                 |
\*---------------------------------------------------------------------------*/
FoamFile
{
    version     2.0;
    format      ascii;
    class       surfaceScalarField;
    location    "0.07";
    object      phi;
}
// * * * * * * * * * * * * * * * * * * * * * * * * * * * * * * * * * * * * * //

dimensions      [0 3 -1 0 0 0 0];

internalField   nonuniform List<scalar> 
784
(
-1.46061e-13
5.17508e-13
-1.46061e-13
4.27195e-13
-1.76558e-12
-2.66421e-13
5.90355e-13
3.79282e-13
-1.89173e-13
2.19596e-12
-2.54026e-13
-8.83094e-13
2.2837e-12
-8.83094e-13
1.58964e-12
-2.87293e-12
-1.36538e-12
1.48138e-12
1.60225e-12
-1.11471e-12
4.34627e-12
-6.68921e-13
-2.64842e-12
7.58054e-12
-2.64842e-12
3.51793e-12
-4.65697e-12
-4.38229e-12
4.18102e-12
4.38026e-12
-3.44109e-12
1.10625e-11
-2.53521e-12
-6.3232e-12
2.02269e-11
-6.3232e-12
7.28121e-12
-4.61154e-12
-1.36498e-11
8.65858e-12
1.25028e-11
-9.49995e-12
2.52325e-11
-5.51137e-12
-2.00286e-11
6.02841e-11
-2.00286e-11
1.64809e-11
-2.68593e-13
-4.08524e-11
2.15558e-11
3.84483e-11
-3.10204e-11
6.39567e-11
-1.71685e-11
-3.05604e-11
1.21405e-10
-3.05604e-11
2.33124e-11
4.66508e-11
-1.00792e-10
3.51741e-11
8.71378e-11
-6.05512e-11
1.27079e-10
-2.79478e-11
-1.02974e-10
3.27354e-10
-1.02974e-10
5.44842e-11
3.22342e-10
-4.3315e-10
1.00393e-10
3.16099e-10
-2.74871e-10
3.16216e-10
-8.87444e-11
-7.66036e-11
4.80561e-10
-7.66036e-11
4.25433e-11
5.3467e-10
-3.31476e-10
8.11801e-11
4.84411e-10
-2.06949e-10
4.64259e-10
-6.6862e-11
5.82551e-12
4.6891e-10
5.82551e-12
-4.07608e-11
4.25329e-10
1.55927e-10
-3.76601e-12
4.67773e-10
-2.03571e-11
4.64234e-10
-3.74168e-12
9.5363e-11
2.78184e-10
9.5363e-11
-6.00118e-11
2.02582e-10
3.78122e-10
-9.50133e-11
2.70121e-10
2.32654e-10
2.85092e-10
8.41288e-11
8.47309e-11
1.08722e-10
8.47309e-11
-2.26506e-11
3.95535e-11
2.7041e-10
-8.76509e-11
7.4728e-11
2.60393e-10
1.13538e-10
8.39034e-11
2.431e-11
6.01023e-11
2.431e-11
-1.51436e-11
1.22647e-11
6.67424e-11
-2.68309e-11
3.19139e-11
5.45014e-11
6.47018e-11
2.20051e-11
2.06935e-11
1.87153e-11
2.06935e-11
-6.92037e-12
1.43885e-12
3.84397e-11
-2.29868e-11
9.82582e-12
3.81545e-11
2.1412e-11
2.03031e-11
3.84748e-12
1.10203e-11
3.84748e-12
-3.25255e-12
-1.61799e-12
1.01569e-11
-5.00548e-12
3.12304e-12
8.4557e-12
1.29737e-11
3.43282e-12
4.13285e-12
2.7546e-12
4.13285e-12
-1.86937e-12
-2.6327e-13
4.64751e-12
-5.20726e-12
1.43908e-12
5.02186e-12
3.64523e-12
4.12118e-12
4.93468e-13
1.76767e-12
4.93468e-13
-6.97959e-13
-7.9636e-13
1.72453e-12
-7.51704e-13
9.77052e-14
1.39513e-12
2.54469e-12
3.48841e-13
6.97716e-13
3.72246e-13
6.97716e-13
-4.24984e-13
-1.88709e-13
5.15057e-13
-1.14689e-12
1.81454e-13
6.38159e-13
6.21624e-13
7.76182e-13
7.98088e-14
2.12633e-13
7.98088e-14
-1.83787e-13
-1.81289e-13
2.56179e-13
-1.66419e-13
-8.44103e-15
1.72531e-13
4.08616e-13
4.65925e-14
1.0558e-13
1.4752e-15
1.0558e-13
-1.06782e-13
-5.33657e-14
8.44394e-14
-2.31932e-13
9.20966e-15
1.07499e-13
6.33732e-14
1.13307e-13
7.37248e-16
7.37248e-16
-6.53882e-14
1.27556e-14
-6.44968e-14
8.31088e-15
-1.13264e-15
-2.66421e-13
-1.76558e-12
4.27195e-13
4.26528e-13
-5.23988e-12
4.26528e-13
4.77787e-13
-2.20427e-12
4.33742e-13
-6.69319e-14
5.24864e-13
-1.36538e-12
-2.87293e-12
1.58964e-12
2.16586e-12
-1.23023e-11
2.16586e-12
2.39903e-12
-5.16484e-12
1.61271e-12
4.28012e-13
1.23517e-12
-4.38229e-12
-4.65697e-12
3.51793e-12
4.87698e-12
-3.08209e-11
4.87698e-12
5.8652e-12
-1.30004e-11
3.40628e-12
6.07232e-13
3.15077e-12
-1.36498e-11
-4.61154e-12
7.28121e-12
1.25871e-11
-8.32948e-11
1.25871e-11
1.5853e-11
-3.40858e-11
8.31957e-12
4.87494e-12
6.0739e-12
-4.08524e-11
-2.68593e-13
1.64809e-11
2.98184e-11
-2.24636e-10
2.98184e-11
4.44476e-11
-9.49301e-11
1.51948e-11
1.97742e-11
1.23799e-11
-1.00792e-10
4.66508e-11
2.33124e-11
6.49823e-11
-5.56185e-10
6.49823e-11
9.45421e-11
-2.17038e-10
3.19971e-11
6.62377e-11
2.01309e-11
-4.3315e-10
3.22342e-10
5.44842e-11
2.15805e-10
-1.8541e-09
2.15805e-10
3.9997e-10
-7.56943e-10
8.08697e-11
3.38048e-10
3.94155e-11
-3.31476e-10
5.3467e-10
4.25433e-11
1.74861e-10
-2.86677e-09
1.74861e-10
3.37694e-10
-1.19161e-09
6.48875e-11
5.76384e-10
3.24953e-11
1.55927e-10
4.25329e-10
-4.07608e-11
-1.54984e-10
-2.24495e-09
-1.54984e-10
-1.26611e-10
-1.11826e-09
-1.22082e-10
4.84226e-10
-3.81948e-11
3.78122e-10
2.02582e-10
-6.00118e-11
-2.06715e-10
-1.07527e-09
-2.06715e-10
-3.77815e-10
-6.25469e-10
-8.90371e-11
2.37128e-10
-4.65874e-11
2.7041e-10
3.95535e-11
-2.26506e-11
-8.12426e-11
-3.71969e-10
-8.12426e-11
-2.74171e-10
-1.90858e-10
1.87108e-11
5.81866e-11
-1.13262e-11
6.67424e-11
1.22647e-11
-1.51436e-11
-3.66852e-11
-1.65113e-10
-3.66852e-11
-6.80927e-11
-9.42781e-11
-1.06714e-11
2.37832e-11
-1.16842e-11
3.84397e-11
1.43885e-12
-6.92037e-12
-1.51805e-11
-5.7873e-11
-1.51805e-11
-4.18608e-11
-2.96687e-11
2.25388e-13
6.60979e-12
-4.38435e-12
1.01569e-11
-1.61799e-12
-3.25255e-12
-6.62574e-12
-2.43077e-11
-6.62574e-12
-1.11566e-11
-1.41792e-11
-2.50302e-12
1.62688e-12
-2.74082e-12
4.64751e-12
-2.6327e-13
-1.86937e-12
-2.59358e-12
-9.82555e-12
-2.59358e-12
-6.0405e-12
-4.91676e-12
-7.93607e-13
1.16165e-12
-1.45409e-12
1.72453e-12
-7.9636e-13
-6.97959e-13
-1.38598e-12
-3.60452e-12
-1.38598e-12
-2.08948e-12
-2.20767e-12
-6.10458e-13
9.09034e-15
-5.88077e-13
5.15057e-13
-1.88709e-13
-4.24984e-13
-4.08182e-13
-1.75804e-12
-4.08182e-13
-9.60126e-13
-7.64069e-13
-2.53493e-13
2.01456e-13
-3.76303e-13
2.56179e-13
-1.81289e-13
-1.83787e-13
-3.40639e-13
-5.644e-13
-3.40639e-13
-3.63103e-13
-3.89793e-13
-1.79276e-13
2.4393e-14
-1.39447e-13
8.44394e-14
-5.33657e-14
-1.06782e-13
-9.87926e-14
-1.97938e-13
-9.87926e-14
-2.24152e-13
-6.62008e-14
-9.07413e-14
2.56723e-14
-1.12134e-13
1.27556e-14
-6.53882e-14
-8.62189e-14
-8.62189e-14
-8.33034e-14
-6.08189e-14
-5.87709e-14
-1.89173e-13
3.79282e-13
5.90355e-13
4.33742e-13
-2.20427e-12
4.77787e-13
6.80897e-13
-1.89483e-13
6.80897e-13
2.09304e-12
6.22173e-13
-1.11471e-12
1.60225e-12
1.48138e-12
1.61271e-12
-5.16484e-12
2.39903e-12
1.64947e-12
-2.63003e-13
1.64947e-12
3.69655e-12
1.28113e-12
-3.44109e-12
4.38026e-12
4.18102e-12
3.40628e-12
-1.30004e-11
5.8652e-12
5.16118e-12
-3.77281e-12
5.16118e-12
8.05777e-12
3.95075e-12
-9.49995e-12
1.25028e-11
8.65858e-12
8.31957e-12
-3.40858e-11
1.5853e-11
1.10892e-11
-9.31208e-12
1.10892e-11
1.759e-11
7.63095e-12
-3.10204e-11
3.84483e-11
2.15558e-11
1.51948e-11
-9.49301e-11
4.44476e-11
3.46554e-11
-4.82334e-11
3.46554e-11
4.5259e-11
1.93664e-11
-6.05512e-11
8.71378e-11
3.51741e-11
3.19971e-11
-2.17038e-10
9.45421e-11
6.10813e-11
-1.06402e-10
6.10813e-11
9.47407e-11
3.17304e-11
-2.74871e-10
3.16099e-10
1.00393e-10
8.08697e-11
-7.56943e-10
3.9997e-10
2.65134e-10
-4.7493e-10
2.65134e-10
3.1161e-10
8.768e-11
-2.06949e-10
4.84411e-10
8.11801e-11
6.48875e-11
-1.19161e-09
3.37694e-10
2.12545e-10
-7.70244e-10
2.12545e-10
4.86331e-10
7.03191e-11
-2.03571e-11
4.67773e-10
-3.76601e-12
-1.22082e-10
-1.11826e-09
-1.26611e-10
9.9169e-12
-1.03424e-09
9.9169e-12
4.55286e-10
2.76682e-12
2.32654e-10
2.70121e-10
-9.50133e-11
-8.90371e-11
-6.25469e-10
-3.77815e-10
-2.35484e-10
-7.41349e-10
-2.35484e-10
2.56729e-10
-8.35135e-11
2.60393e-10
7.4728e-11
-8.76509e-11
1.87108e-11
-1.90858e-10
-2.74171e-10
-2.53988e-10
-1.95951e-10
-2.53988e-10
7.60406e-11
-8.46267e-11
5.45014e-11
3.19139e-11
-2.68309e-11
-1.06714e-11
-9.42781e-11
-6.80927e-11
-5.51038e-11
-1.07086e-10
-5.51038e-11
3.35736e-11
-2.43209e-11
3.81545e-11
9.82582e-12
-2.29868e-11
2.25388e-13
-2.96687e-11
-4.18608e-11
-3.93007e-11
-2.80338e-11
-3.93007e-11
1.20703e-11
-2.21818e-11
8.4557e-12
3.12304e-12
-5.00548e-12
-2.50302e-12
-1.41792e-11
-1.11566e-11
-9.16207e-12
-1.47157e-11
-9.16207e-12
4.68614e-12
-4.5187e-12
5.02186e-12
1.43908e-12
-5.20726e-12
-7.93607e-13
-4.91676e-12
-6.0405e-12
-6.11367e-12
-4.0756e-12
-6.11367e-12
2.25041e-12
-5.13203e-12
1.39513e-12
9.77052e-14
-7.51704e-13
-6.10458e-13
-2.20767e-12
-2.08948e-12
-1.64064e-12
-2.01523e-12
-1.64064e-12
6.41984e-13
-6.2028e-13
6.38159e-13
1.81454e-13
-1.14689e-12
-2.53493e-13
-7.64069e-13
-9.60126e-13
-1.02214e-12
-4.77913e-13
-1.02214e-12
4.59965e-13
-1.21642e-12
1.72531e-13
-8.44103e-15
-1.66419e-13
-1.79276e-13
-3.89793e-13
-3.63103e-13
-2.63588e-13
-3.09285e-13
-2.63588e-13
1.47532e-13
-9.06022e-14
1.07499e-13
9.20966e-15
-2.31932e-13
-9.07413e-14
-6.62008e-14
-2.24152e-13
-2.33746e-13
-2.32846e-14
-2.33746e-13
7.23292e-14
-2.70688e-13
8.31088e-15
-6.44968e-14
-6.08189e-14
-8.33034e-14
-7.24677e-14
-7.24677e-14
-5.89167e-14
-2.54026e-13
2.19596e-12
5.24864e-13
-6.69319e-14
6.22173e-13
2.09304e-12
3.6498e-12
-6.68921e-13
4.34627e-12
1.23517e-12
4.28012e-13
1.28113e-12
3.69655e-12
6.21206e-12
-2.53521e-12
1.10625e-11
3.15077e-12
6.07232e-13
3.95075e-12
8.05777e-12
1.41136e-11
-5.51137e-12
2.52325e-11
6.0739e-12
4.87494e-12
7.63095e-12
1.759e-11
2.93755e-11
-1.71685e-11
6.39567e-11
1.23799e-11
1.97742e-11
1.93664e-11
4.5259e-11
6.81082e-11
-2.79478e-11
1.27079e-10
2.01309e-11
6.62377e-11
3.17304e-11
9.47407e-11
1.31569e-10
-8.87444e-11
3.16216e-10
3.94155e-11
3.38048e-10
8.768e-11
3.1161e-10
3.06929e-10
-6.6862e-11
4.64259e-10
3.24953e-11
5.76384e-10
7.03191e-11
4.86331e-10
4.47567e-10
-3.74168e-12
4.64234e-10
-3.81948e-11
4.84226e-10
2.76682e-12
4.55286e-10
4.53101e-10
8.41288e-11
2.85092e-10
-4.65874e-11
2.37128e-10
-8.35135e-11
2.56729e-10
2.86074e-10
8.39034e-11
1.13538e-10
-1.13262e-11
5.81866e-11
-8.46267e-11
7.60406e-11
1.16821e-10
2.20051e-11
6.47018e-11
-1.16842e-11
2.37832e-11
-2.43209e-11
3.35736e-11
6.81788e-11
2.03031e-11
2.1412e-11
-4.38435e-12
6.60979e-12
-2.21818e-11
1.20703e-11
2.38153e-11
3.43282e-12
1.29737e-11
-2.74082e-12
1.62688e-12
-4.5187e-12
4.68614e-12
1.47779e-11
4.12118e-12
3.64523e-12
-1.45409e-12
1.16165e-12
-5.13203e-12
2.25041e-12
4.51382e-12
3.48841e-13
2.54469e-12
-5.88077e-13
9.09034e-15
-6.2028e-13
6.41984e-13
3.27326e-12
7.76182e-13
6.21624e-13
-3.76303e-13
2.01456e-13
-1.21642e-12
4.59965e-13
8.40428e-13
4.65925e-14
4.08616e-13
-1.39447e-13
2.4393e-14
-9.06022e-14
1.47532e-13
6.59217e-13
1.13307e-13
6.33732e-14
-1.12134e-13
2.56723e-14
-2.70688e-13
7.23292e-14
1.17832e-13
-1.13264e-15
-5.87709e-14
-5.89167e-14
)
;

boundaryField
{
    inlet
    {
        type            calculated;
        value           uniform 0;
    }
    outlet
    {
        type            calculated;
        value           nonuniform List<scalar> 
16
(
-2.25386e-13
1.45875e-12
-3.53265e-13
-1.35158e-12
1.45875e-12
3.85399e-12
1.5301e-12
-2.34165e-13
-3.53265e-13
1.5301e-12
-3.04819e-13
-1.50944e-12
-1.35158e-12
-2.34165e-13
-1.50944e-12
-2.40547e-12
)
;
    }
    walls
    {
        type            calculated;
        value           nonuniform List<scalar> 
320
(
0
0
8.00895e-29
8.95156e-26
5.33346e-23
3.56013e-20
4.03967e-18
6.22137e-18
9.37092e-21
3.8042e-24
0
0
0
0
0
0
0
0
0
0
0
0
1.39834e-26
1.49823e-23
1.81287e-20
6.52877e-18
2.45213e-16
5.13298e-16
4.97344e-18
1.92012e-21
0
0
0
0
0
0
0
0
0
0
0
0
5.38949e-27
8.7888e-24
8.31222e-21
3.11883e-18
1.2724e-16
2.40405e-16
2.5021e-18
1.08095e-21
0
0
0
0
0
0
0
0
0
0
0
0
0
1.78293e-26
1.42911e-23
1.2984e-20
2.10988e-18
2.98066e-18
4.5463e-21
2.82125e-24
0
0
0
0
0
0
0
0
0
0
0
0
0
-1.78293e-26
-1.42911e-23
-1.2984e-20
-2.10988e-18
-2.98066e-18
-4.5463e-21
-2.82125e-24
0
0
0
0
0
0
0
0
0
0
0
0
-4.42745e-27
-8.39247e-24
-9.24261e-21
-3.33123e-18
-1.25726e-16
-2.33975e-16
-2.19533e-18
-1.69829e-21
0
0
0
0
0
0
0
0
0
0
0
0
-1.73815e-27
-4.73567e-24
-5.68952e-21
-2.91968e-18
-1.20989e-16
-1.23484e-16
-1.27724e-18
-9.96923e-22
0
0
0
0
0
0
0
0
0
0
0
0
0
-7.40246e-27
-8.63176e-24
-1.21913e-20
-2.0053e-18
-1.60324e-18
-3.681e-21
-3.09476e-24
0
0
0
0
0
0
0
0
0
0
0
0
8.00895e-29
8.95156e-26
5.33346e-23
3.56013e-20
4.03967e-18
6.22137e-18
9.37092e-21
3.8042e-24
0
0
0
0
0
0
0
0
0
0
0
0
1.39834e-26
1.49823e-23
1.81287e-20
6.52877e-18
2.45213e-16
5.13298e-16
4.97344e-18
1.92012e-21
0
0
0
0
0
0
0
0
0
0
0
0
5.38949e-27
8.7888e-24
8.31222e-21
3.11883e-18
1.2724e-16
2.40405e-16
2.5021e-18
1.08095e-21
0
0
0
0
0
0
0
0
0
0
0
0
0
1.78293e-26
1.42911e-23
1.2984e-20
2.10988e-18
2.98066e-18
4.5463e-21
2.82125e-24
0
0
0
0
0
0
0
0
0
0
0
0
0
-1.78293e-26
-1.42911e-23
-1.2984e-20
-2.10988e-18
-2.98066e-18
-4.5463e-21
-2.82125e-24
0
0
0
0
0
0
0
0
0
0
0
0
-4.42745e-27
-8.39247e-24
-9.24261e-21
-3.33123e-18
-1.25726e-16
-2.33975e-16
-2.19533e-18
-1.69829e-21
0
0
0
0
0
0
0
0
0
0
0
0
-1.73815e-27
-4.73567e-24
-5.68952e-21
-2.91968e-18
-1.20989e-16
-1.23484e-16
-1.27724e-18
-9.96923e-22
0
0
0
0
0
0
0
0
0
0
0
0
0
-7.40246e-27
-8.63176e-24
-1.21913e-20
-2.0053e-18
-1.60324e-18
-3.681e-21
-3.09476e-24
0
0
0
0
0
0
0
0
0
0
)
;
    }
}


// ************************************************************************* //
