/*--------------------------------*- C++ -*----------------------------------*\
| =========                 |                                                 |
| \\      /  F ield         | OpenFOAM: The Open Source CFD Toolbox           |
|  \\    /   O peration     | Version:  5.x                                   |
|   \\  /    A nd           | Web:      www.OpenFOAM.org                      |
|    \\/     M anipulation  |                                                 |
\*---------------------------------------------------------------------------*/
FoamFile
{
    version     2.0;
    format      ascii;
    class       volVectorField;
    location    "0.07";
    object      U;
}
// * * * * * * * * * * * * * * * * * * * * * * * * * * * * * * * * * * * * * //

dimensions      [0 1 -1 0 0 0 0];

internalField   nonuniform List<vector> 
320
(
(-3.33952e-08 5.29255e-08 -3.33952e-08)
(5.14613e-09 -1.98276e-07 -5.575e-08)
(1.06543e-07 7.89419e-08 -4.09733e-08)
(6.88274e-08 2.62042e-07 -6.07392e-08)
(-2.0655e-07 7.57136e-08 -2.0655e-07)
(1.9389e-08 -4.58232e-07 -3.0224e-07)
(3.7372e-07 3.91283e-09 -2.36902e-07)
(1.16445e-07 3.50438e-07 -1.48477e-07)
(-5.30465e-07 7.9246e-07 -5.30465e-07)
(-5.66349e-08 -3.19657e-07 -8.59984e-07)
(9.16527e-07 6.24738e-07 -6.31519e-07)
(3.92043e-07 1.23191e-06 -4.95615e-07)
(-1.2814e-06 1.49311e-06 -1.2814e-06)
(-1.86487e-07 -1.62903e-06 -2.55715e-06)
(1.99356e-06 5.52448e-07 -1.72611e-06)
(7.2149e-07 2.18757e-06 -1.06985e-06)
(-3.50072e-06 6.08462e-06 -3.50072e-06)
(-1.01474e-06 1.23242e-06 -7.28402e-06)
(4.80452e-06 4.58784e-06 -4.95247e-06)
(1.95396e-06 6.86013e-06 -2.90204e-06)
(-5.97633e-06 1.14111e-05 -5.97633e-06)
(-1.94157e-06 -2.63697e-06 -1.86611e-05)
(7.97775e-06 4.95186e-06 -1.06365e-05)
(3.00679e-06 1.25066e-05 -5.26241e-06)
(-1.71187e-05 3.33415e-05 -1.71187e-05)
(-7.88592e-06 2.36856e-05 -7.28325e-05)
(2.04874e-05 2.97065e-05 -4.15869e-05)
(9.40279e-06 3.3564e-05 -1.4085e-05)
(-1.51956e-05 6.44824e-05 -1.51956e-05)
(-6.73088e-06 6.61253e-05 -6.72901e-05)
(1.8613e-05 6.08425e-05 -3.73524e-05)
(7.41563e-06 6.19289e-05 -1.26181e-05)
(3.96613e-06 8.08946e-05 3.96613e-06)
(-4.32768e-06 8.6931e-05 3.17269e-05)
(-3.98037e-06 8.30094e-05 8.07137e-06)
(2.45041e-06 7.85464e-05 2.53758e-06)
(1.8212e-05 6.78341e-05 1.8212e-05)
(6.67497e-06 5.88934e-05 7.45327e-05)
(-2.18879e-05 6.92756e-05 4.16576e-05)
(-8.1621e-06 6.83868e-05 1.53715e-05)
(1.33407e-05 2.54203e-05 1.33407e-05)
(1.0657e-05 1.1027e-05 4.65764e-05)
(-1.65352e-05 2.17386e-05 3.41389e-05)
(-1.03565e-05 2.66322e-05 1.20143e-05)
(4.24885e-06 1.12339e-05 4.24885e-06)
(2.10839e-06 3.73154e-07 1.23982e-05)
(-5.94458e-06 3.69934e-06 7.99175e-06)
(-2.54253e-06 1.18543e-05 3.62703e-06)
(3.36553e-06 6.39274e-06 3.36553e-06)
(2.47106e-06 3.01824e-06 6.68869e-06)
(-4.30083e-06 5.28222e-06 5.19286e-06)
(-2.75696e-06 7.05029e-06 3.02328e-06)
(6.80782e-07 7.28015e-07 6.80782e-07)
(3.03879e-07 -2.26648e-06 1.9136e-06)
(-1.13891e-06 -1.3038e-06 1.24422e-06)
(-4.56126e-07 1.05065e-06 5.69547e-07)
(6.88543e-07 1.92117e-06 6.88543e-07)
(4.59962e-07 1.41381e-06 8.27256e-07)
(-9.56552e-07 1.8331e-06 7.24803e-07)
(-6.41231e-07 2.13599e-06 6.45327e-07)
(9.85205e-08 -6.03918e-07 9.85205e-08)
(2.36449e-08 -1.27772e-06 3.31229e-07)
(-2.04747e-07 -1.05353e-06 2.07649e-07)
(-5.6849e-08 -4.65571e-07 6.46122e-08)
(1.20509e-07 8.39819e-07 1.20509e-07)
(7.25769e-08 7.98356e-07 9.92428e-08)
(-1.93402e-07 8.8306e-07 1.05663e-07)
(-1.43983e-07 8.84927e-07 1.24552e-07)
(1.73285e-08 -5.58077e-07 1.73285e-08)
(1.14616e-09 -6.95665e-07 5.33942e-08)
(-4.84698e-08 -6.58984e-07 2.62291e-08)
(-1.20685e-08 -5.08717e-07 1.00256e-08)
(2.09036e-08 5.09676e-07 2.09036e-08)
(7.56073e-09 5.21044e-07 1.9437e-08)
(-3.86551e-08 5.38873e-07 2.08249e-08)
(-2.86667e-08 5.19278e-07 2.08681e-08)
(-2.427e-09 -4.47846e-07 -2.427e-09)
(1.54181e-09 -4.77309e-07 -1.96009e-10)
(-1.89425e-08 -4.74628e-07 -2.83719e-09)
(7.02603e-10 -4.39338e-07 -3.33792e-09)
(-5.575e-08 -1.98276e-07 5.14613e-09)
(6.46194e-10 -5.73619e-07 6.46194e-10)
(1.0137e-07 -2.05994e-07 9.44833e-10)
(5.01533e-08 5.68708e-08 5.15584e-09)
(-3.0224e-07 -4.58232e-07 1.9389e-08)
(2.52177e-09 -1.31769e-06 2.52177e-09)
(5.376e-07 -6.2344e-07 -8.13336e-09)
(2.08421e-07 -1.01633e-07 1.01138e-08)
(-8.59984e-07 -3.19657e-07 -5.66349e-08)
(-1.2487e-07 -2.6607e-06 -1.2487e-07)
(1.29558e-06 -9.02601e-07 -1.66609e-07)
(5.35152e-07 3.16719e-07 -7.24709e-08)
(-2.55715e-06 -1.62903e-06 -1.86487e-07)
(-5.55662e-07 -8.39493e-06 -5.55662e-07)
(3.53702e-06 -3.97163e-06 -4.85583e-07)
(1.39395e-06 -2.79144e-07 -2.00459e-07)
(-7.28402e-06 1.23242e-06 -1.01474e-06)
(-2.28884e-06 -1.56357e-05 -2.28884e-06)
(9.33181e-06 -4.66685e-06 -2.55074e-06)
(4.02345e-06 2.70279e-06 -1.08334e-06)
(-1.86611e-05 -2.63697e-06 -1.94157e-06)
(-6.23929e-06 -7.13484e-05 -6.23929e-06)
(2.18796e-05 -3.34015e-05 -4.88893e-06)
(8.40294e-06 1.24439e-06 -1.88236e-06)
(-7.28325e-05 2.36856e-05 -7.88592e-06)
(-3.18346e-05 -6.35058e-05 -3.18346e-05)
(8.10349e-05 -1.565e-05 -2.73034e-05)
(3.68449e-05 2.67992e-05 -7.69479e-06)
(-6.72901e-05 6.61253e-05 -6.73088e-06)
(-2.82715e-05 -0.000581393 -2.82715e-05)
(7.68262e-05 -0.000256215 -2.40748e-05)
(3.20216e-05 7.0788e-05 -6.39991e-06)
(3.17269e-05 8.6931e-05 -4.32768e-06)
(-1.14296e-06 -0.00039024 -1.14296e-06)
(-3.21544e-05 -0.000160047 -2.00493e-05)
(-3.09811e-06 9.61467e-05 -5.67435e-06)
(7.45327e-05 5.88934e-05 6.67497e-06)
(2.93387e-05 -0.000253823 2.93387e-05)
(-8.43651e-05 -0.000159935 2.28746e-05)
(-3.42565e-05 6.59551e-05 6.43551e-06)
(4.65764e-05 1.1027e-05 1.0657e-05)
(3.20004e-05 -8.24447e-05 3.20004e-05)
(-5.40426e-05 -3.4993e-05 4.40113e-05)
(-3.24422e-05 1.56568e-05 1.18738e-05)
(1.23982e-05 3.73154e-07 2.10839e-06)
(5.734e-06 -4.60129e-05 5.734e-06)
(-1.5283e-05 -3.02867e-05 7.2679e-06)
(-6.96546e-06 2.32755e-06 2.16723e-06)
(6.68869e-06 3.01824e-06 2.47106e-06)
(4.15975e-06 -8.0044e-06 4.15975e-06)
(-8.20095e-06 -1.70377e-06 5.9951e-06)
(-4.94302e-06 4.32948e-06 2.72651e-06)
(1.9136e-06 -2.26648e-06 3.03879e-07)
(8.24722e-07 -8.93696e-06 8.24722e-07)
(-2.55414e-06 -6.41576e-06 1.10218e-06)
(-1.14361e-06 -1.55579e-06 3.09066e-07)
(8.27256e-07 1.41381e-06 4.59962e-07)
(4.55627e-07 -1.70281e-07 4.55627e-07)
(-1.14871e-06 8.38069e-07 7.14049e-07)
(-7.25758e-07 1.73283e-06 5.08947e-07)
(3.31229e-07 -1.27772e-06 2.36449e-08)
(1.24041e-07 -2.17074e-06 1.24041e-07)
(-4.86074e-07 -1.82024e-06 1.71677e-07)
(-2.02688e-07 -1.07348e-06 1.8868e-08)
(9.92428e-08 7.98356e-07 7.25769e-08)
(4.83124e-08 5.49355e-07 4.83124e-08)
(-1.6633e-07 7.39306e-07 7.97103e-08)
(-1.26349e-07 8.74646e-07 8.985e-08)
(5.33942e-08 -6.95665e-07 1.14616e-09)
(8.36372e-09 -8.20382e-07 8.36372e-09)
(-9.56842e-08 -7.87007e-07 1.59349e-08)
(-2.90775e-08 -6.46348e-07 1.04159e-10)
(1.9437e-08 5.21044e-07 7.56073e-09)
(5.43099e-09 4.99023e-07 5.43099e-09)
(-3.6928e-08 5.42975e-07 9.34152e-09)
(-2.89354e-08 5.38297e-07 9.22321e-09)
(-1.96009e-10 -4.77309e-07 1.54181e-09)
(1.60074e-09 -5.02874e-07 1.60074e-09)
(-2.41426e-08 -5.04247e-07 3.58684e-09)
(-1.05308e-10 -4.6972e-07 1.90984e-09)
(-4.09733e-08 7.89419e-08 1.06543e-07)
(9.44833e-10 -2.05994e-07 1.0137e-07)
(1.16605e-07 7.36159e-08 1.16605e-07)
(7.84987e-08 2.91176e-07 1.29742e-07)
(-2.36902e-07 3.91283e-09 3.7372e-07)
(-8.13336e-09 -6.2344e-07 5.376e-07)
(4.00299e-07 -1.81807e-07 4.00299e-07)
(1.43821e-07 2.78802e-07 2.93244e-07)
(-6.31519e-07 6.24738e-07 9.16527e-07)
(-1.66609e-07 -9.02601e-07 1.29558e-06)
(1.01161e-06 1.72527e-07 1.01161e-06)
(5.14738e-07 1.08715e-06 8.4323e-07)
(-1.72611e-06 5.52448e-07 1.99356e-06)
(-4.85583e-07 -3.97163e-06 3.53702e-06)
(2.44523e-06 -1.8957e-06 2.44523e-06)
(1.05095e-06 1.24103e-06 1.68974e-06)
(-4.95247e-06 4.58784e-06 4.80452e-06)
(-2.55074e-06 -4.66685e-06 9.33181e-06)
(6.2102e-06 2.76489e-07 6.2102e-06)
(3.51665e-06 5.51693e-06 3.97122e-06)
(-1.06365e-05 4.95186e-06 7.97775e-06)
(-4.88893e-06 -3.34015e-05 2.18796e-05)
(1.2823e-05 -2.02903e-05 1.2823e-05)
(6.12974e-06 6.4263e-06 6.99554e-06)
(-4.15869e-05 2.97065e-05 2.04874e-05)
(-2.73034e-05 -1.565e-05 8.10349e-05)
(4.56379e-05 -2.26785e-06 4.56379e-05)
(2.891e-05 3.04825e-05 1.67208e-05)
(-3.73524e-05 6.08425e-05 1.8613e-05)
(-2.40748e-05 -0.000256215 7.68262e-05)
(4.21881e-05 -0.000171458 4.21881e-05)
(2.46519e-05 6.01402e-05 1.52624e-05)
(8.07137e-06 8.30094e-05 -3.98037e-06)
(-2.00493e-05 -0.000160047 -3.21544e-05)
(-9.09074e-06 -9.76023e-05 -9.09074e-06)
(1.46186e-05 8.41472e-05 -2.46703e-06)
(4.16576e-05 6.92756e-05 -2.18879e-05)
(2.28746e-05 -0.000159935 -8.43651e-05)
(-4.66088e-05 -0.000208392 -4.66088e-05)
(-2.45075e-05 6.39192e-05 -1.80462e-05)
(3.41389e-05 2.17386e-05 -1.65352e-05)
(4.40113e-05 -3.4993e-05 -5.40426e-05)
(-3.71386e-05 -2.35906e-05 -3.71386e-05)
(-4.02469e-05 2.25781e-05 -1.45941e-05)
(7.99175e-06 3.69934e-06 -5.94458e-06)
(7.2679e-06 -3.02867e-05 -1.5283e-05)
(-9.8241e-06 -3.68045e-05 -9.8241e-06)
(-7.41726e-06 3.43706e-06 -5.09973e-06)
(5.19286e-06 5.28222e-06 -4.30083e-06)
(5.9951e-06 -1.70377e-06 -8.20095e-06)
(-5.8555e-06 -4.66973e-07 -5.8555e-06)
(-5.93915e-06 5.95358e-06 -3.83725e-06)
(1.24422e-06 -1.3038e-06 -1.13891e-06)
(1.10218e-06 -6.41576e-06 -2.55414e-06)
(-1.71575e-06 -6.91077e-06 -1.71575e-06)
(-1.23901e-06 -1.14325e-06 -1.00576e-06)
(7.24803e-07 1.8331e-06 -9.56552e-07)
(7.14049e-07 8.38069e-07 -1.14871e-06)
(-9.32768e-07 1.06724e-06 -9.32768e-07)
(-8.66823e-07 2.05649e-06 -8.91649e-07)
(2.07649e-07 -1.05353e-06 -2.04747e-07)
(1.71677e-07 -1.82024e-06 -4.86074e-07)
(-3.23797e-07 -1.80438e-06 -3.23797e-07)
(-2.10113e-07 -9.33924e-07 -1.69305e-07)
(1.05663e-07 8.8306e-07 -1.93402e-07)
(7.97103e-08 7.39306e-07 -1.6633e-07)
(-1.58743e-07 7.91718e-07 -1.58743e-07)
(-1.42124e-07 9.35782e-07 -1.96118e-07)
(2.62291e-08 -6.58984e-07 -4.84698e-08)
(1.59349e-08 -7.87007e-07 -9.56842e-08)
(-6.03489e-08 -7.7502e-07 -6.03489e-08)
(-2.8373e-08 -6.2148e-07 -3.36976e-08)
(2.08249e-08 5.38873e-07 -3.86551e-08)
(9.34152e-09 5.42975e-07 -3.6928e-08)
(-3.68202e-08 5.57003e-07 -3.68202e-08)
(-3.11651e-08 5.51056e-07 -4.2926e-08)
(-2.83719e-09 -4.74628e-07 -1.89425e-08)
(3.58684e-09 -5.04247e-07 -2.41426e-08)
(-1.98063e-08 -5.02855e-07 -1.98063e-08)
(-5.06621e-10 -4.66623e-07 -1.74141e-08)
(-6.07392e-08 2.62042e-07 6.88274e-08)
(5.15584e-09 5.68708e-08 5.01533e-08)
(1.29742e-07 2.91176e-07 7.84987e-08)
(6.44325e-08 4.4917e-07 6.44325e-08)
(-1.48477e-07 3.50438e-07 1.16445e-07)
(1.01138e-08 -1.01633e-07 2.08421e-07)
(2.93244e-07 2.78802e-07 1.43821e-07)
(1.0562e-07 5.98205e-07 1.0562e-07)
(-4.95615e-07 1.23191e-06 3.92043e-07)
(-7.24709e-08 3.16719e-07 5.35152e-07)
(8.4323e-07 1.08715e-06 5.14738e-07)
(3.77649e-07 1.6228e-06 3.77649e-07)
(-1.06985e-06 2.18757e-06 7.2149e-07)
(-2.00459e-07 -2.79144e-07 1.39395e-06)
(1.68974e-06 1.24103e-06 1.05095e-06)
(6.70854e-07 2.7445e-06 6.70854e-07)
(-2.90204e-06 6.86013e-06 1.95396e-06)
(-1.08334e-06 2.70279e-06 4.02345e-06)
(3.97122e-06 5.51693e-06 3.51665e-06)
(1.86758e-06 7.59483e-06 1.86758e-06)
(-5.26241e-06 1.25066e-05 3.00679e-06)
(-1.88236e-06 1.24439e-06 8.40294e-06)
(6.99554e-06 6.4263e-06 6.12974e-06)
(2.89172e-06 1.33888e-05 2.89172e-06)
(-1.4085e-05 3.3564e-05 9.40279e-06)
(-7.69479e-06 2.67992e-05 3.68449e-05)
(1.67208e-05 3.04825e-05 2.891e-05)
(8.89917e-06 3.36893e-05 8.89917e-06)
(-1.26181e-05 6.19289e-05 7.41563e-06)
(-6.39991e-06 7.0788e-05 3.20216e-05)
(1.52624e-05 6.01402e-05 2.46519e-05)
(7.05289e-06 5.95675e-05 7.05289e-06)
(2.53758e-06 7.85464e-05 2.45041e-06)
(-5.67435e-06 9.61467e-05 -3.09811e-06)
(-2.46703e-06 8.41472e-05 1.46186e-05)
(3.63494e-06 7.58235e-05 3.63494e-06)
(1.53715e-05 6.83868e-05 -8.1621e-06)
(6.43551e-06 6.59551e-05 -3.42565e-05)
(-1.80462e-05 6.39192e-05 -2.45075e-05)
(-7.74019e-06 6.74899e-05 -7.74019e-06)
(1.20143e-05 2.66322e-05 -1.03565e-05)
(1.18738e-05 1.56568e-05 -3.24422e-05)
(-1.45941e-05 2.25781e-05 -4.02469e-05)
(-1.12004e-05 2.73933e-05 -1.12004e-05)
(3.62703e-06 1.18543e-05 -2.54253e-06)
(2.16723e-06 2.32755e-06 -6.96546e-06)
(-5.09973e-06 3.43706e-06 -7.41726e-06)
(-2.49832e-06 1.22936e-05 -2.49832e-06)
(3.02328e-06 7.05029e-06 -2.75696e-06)
(2.72651e-06 4.32948e-06 -4.94302e-06)
(-3.83725e-06 5.95358e-06 -5.93915e-06)
(-2.9365e-06 7.60631e-06 -2.9365e-06)
(5.69547e-07 1.05065e-06 -4.56126e-07)
(3.09066e-07 -1.55579e-06 -1.14361e-06)
(-1.00576e-06 -1.14325e-06 -1.23901e-06)
(-4.49597e-07 1.34872e-06 -4.49597e-07)
(6.45327e-07 2.13599e-06 -6.41231e-07)
(5.08947e-07 1.73283e-06 -7.25758e-07)
(-8.91649e-07 2.05649e-06 -8.66823e-07)
(-6.7324e-07 2.34333e-06 -6.7324e-07)
(6.46122e-08 -4.65571e-07 -5.6849e-08)
(1.8868e-08 -1.07348e-06 -2.02688e-07)
(-1.69305e-07 -9.33924e-07 -2.10113e-07)
(-5.04672e-08 -3.36893e-07 -5.04672e-08)
(1.24552e-07 8.84927e-07 -1.43983e-07)
(8.985e-08 8.74646e-07 -1.26349e-07)
(-1.96118e-07 9.35782e-07 -1.42124e-07)
(-1.591e-07 9.37371e-07 -1.591e-07)
(1.00256e-08 -5.08717e-07 -1.20685e-08)
(1.04159e-10 -6.46348e-07 -2.90775e-08)
(-3.36976e-08 -6.2148e-07 -2.8373e-08)
(-3.7692e-09 -4.6373e-07 -3.7692e-09)
(2.08681e-08 5.19278e-07 -2.86667e-08)
(9.22321e-09 5.38297e-07 -2.89354e-08)
(-4.2926e-08 5.51056e-07 -3.11651e-08)
(-3.39626e-08 5.22749e-07 -3.39626e-08)
(-3.33792e-09 -4.39338e-07 7.02603e-10)
(1.90984e-09 -4.6972e-07 -1.05308e-10)
(-1.74141e-08 -4.66623e-07 -5.06621e-10)
(6.54167e-10 -4.26249e-07 6.54167e-10)
)
;

boundaryField
{
    inlet
    {
        type            fixedValue;
        value           uniform (0 0 0);
    }
    outlet
    {
        type            zeroGradient;
    }
    walls
    {
        type            fixedValue;
        value           uniform (0 0 0);
    }
}


// ************************************************************************* //
