/*--------------------------------*- C++ -*----------------------------------*\
| =========                 |                                                 |
| \\      /  F ield         | OpenFOAM: The Open Source CFD Toolbox           |
|  \\    /   O peration     | Version:  5.x                                   |
|   \\  /    A nd           | Web:      www.OpenFOAM.org                      |
|    \\/     M anipulation  |                                                 |
\*---------------------------------------------------------------------------*/
FoamFile
{
    version     2.0;
    format      ascii;
    class       volVectorField;
    location    "0.07";
    object      Us;
}
// * * * * * * * * * * * * * * * * * * * * * * * * * * * * * * * * * * * * * //

dimensions      [0 1 -1 0 0 0 0];

internalField   nonuniform List<vector> 
320
(
(-1.93223e-18 -8.70142e-15 -1.93223e-18)
(-1.76405e-17 -7.94408e-14 -1.76405e-17)
(-1.63577e-17 -7.36637e-14 -1.63577e-17)
(-4.82902e-19 -2.17466e-15 -4.82902e-19)
(-1.04698e-16 -4.71488e-13 -1.04698e-16)
(-1.09473e-15 -4.92992e-12 -1.09473e-15)
(-1.02771e-15 -4.6281e-12 -1.02771e-15)
(-2.99426e-17 -1.34841e-13 -2.99426e-17)
(-5.49859e-15 -2.47618e-11 -5.49859e-15)
(-6.70728e-14 -3.02049e-10 -6.70728e-14)
(-6.37457e-14 -2.87066e-10 -6.37457e-14)
(-1.83342e-15 -8.25645e-12 -1.83342e-15)
(-2.6962e-13 -1.21418e-09 -2.6962e-13)
(-3.94515e-12 -1.77662e-08 -3.94515e-12)
(-3.79648e-12 -1.70967e-08 -3.79648e-12)
(-1.07803e-13 -4.85469e-10 -1.07803e-13)
(-1.19082e-11 -5.36261e-08 -1.19082e-11)
(-2.17598e-10 -9.79911e-07 -2.17598e-10)
(-2.12061e-10 -9.54974e-07 -2.12061e-10)
(-5.94621e-12 -2.67776e-08 -5.94621e-12)
(-4.39229e-10 -1.97798e-06 -4.39229e-10)
(-1.06781e-08 -4.80868e-05 -1.06781e-08)
(-1.05405e-08 -4.7467e-05 -1.05405e-08)
(-2.92017e-10 -1.31504e-06 -2.92017e-10)
(-1.08967e-08 -4.90714e-05 -1.08967e-08)
(-3.94701e-07 -0.00177746 -3.94701e-07)
(-3.94705e-07 -0.00177748 -3.94705e-07)
(-1.08275e-08 -4.87595e-05 -1.08275e-08)
(-1.07543e-08 -4.84298e-05 -1.07543e-08)
(-3.94703e-07 -0.00177747 -3.94703e-07)
(-3.94842e-07 -0.00177809 -3.94842e-07)
(-1.08275e-08 -4.87594e-05 -1.08275e-08)
(-2.89023e-10 -1.30156e-06 -2.89023e-10)
(-1.06097e-08 -4.77786e-05 -1.06097e-08)
(-1.06116e-08 -4.77874e-05 -1.06116e-08)
(-2.91045e-10 -1.31066e-06 -2.91045e-10)
(-3.85872e-12 -1.7377e-08 -3.85872e-12)
(-1.41674e-10 -6.38003e-07 -1.41674e-10)
(-1.43555e-10 -6.46472e-07 -1.43555e-10)
(-5.89183e-12 -2.65327e-08 -5.89183e-12)
(0 0 0)
(0 0 0)
(0 0 0)
(0 0 0)
(0 0 0)
(0 0 0)
(0 0 0)
(0 0 0)
(0 0 0)
(0 0 0)
(0 0 0)
(0 0 0)
(0 0 0)
(0 0 0)
(0 0 0)
(0 0 0)
(0 0 0)
(0 0 0)
(0 0 0)
(0 0 0)
(0 0 0)
(0 0 0)
(0 0 0)
(0 0 0)
(0 0 0)
(0 0 0)
(0 0 0)
(0 0 0)
(0 0 0)
(0 0 0)
(0 0 0)
(0 0 0)
(0 0 0)
(0 0 0)
(0 0 0)
(0 0 0)
(0 0 0)
(0 0 0)
(0 0 0)
(0 0 0)
(-1.76405e-17 -7.94408e-14 -1.76405e-17)
(-1.84265e-16 -8.29802e-13 -1.84265e-16)
(-1.72964e-16 -7.78911e-13 -1.72964e-16)
(-5.03437e-18 -2.26713e-14 -5.03437e-18)
(-1.09473e-15 -4.92992e-12 -1.09473e-15)
(-1.33666e-14 -6.01938e-11 -1.33666e-14)
(-1.2704e-14 -5.721e-11 -1.2704e-14)
(-3.64884e-16 -1.64319e-12 -3.64884e-16)
(-6.70728e-14 -3.02049e-10 -6.70728e-14)
(-9.82487e-13 -4.42444e-09 -9.82487e-13)
(-9.45486e-13 -4.25781e-09 -9.45486e-13)
(-2.68021e-14 -1.20698e-10 -2.68021e-14)
(-3.94515e-12 -1.77662e-08 -3.94515e-12)
(-7.21928e-11 -3.25106e-07 -7.21928e-11)
(-7.03565e-11 -3.16837e-07 -7.03565e-11)
(-1.9684e-12 -8.86429e-09 -1.9684e-12)
(-2.17598e-10 -9.79911e-07 -2.17598e-10)
(-5.30293e-09 -2.38807e-05 -5.30293e-09)
(-5.23462e-09 -2.35731e-05 -5.23462e-09)
(-1.44539e-10 -6.50902e-07 -1.44539e-10)
(-1.06781e-08 -4.80868e-05 -1.06781e-08)
(-3.89395e-07 -0.00175356 -3.89395e-07)
(-3.89399e-07 -0.00175358 -3.89399e-07)
(-1.06116e-08 -4.77873e-05 -1.06116e-08)
(-3.94701e-07 -0.00177746 -3.94701e-07)
(-2.85776e-05 -0.128694 -2.85776e-05)
(-2.85776e-05 -0.128694 -2.85776e-05)
(-3.94844e-07 -0.0017781 -3.94844e-07)
(-3.94703e-07 -0.00177747 -3.94703e-07)
(-2.85776e-05 -0.128694 -2.85776e-05)
(-2.85776e-05 -0.128694 -2.85776e-05)
(-3.94777e-07 -0.0017778 -3.94777e-07)
(-1.06097e-08 -4.77786e-05 -1.06097e-08)
(-3.89535e-07 -0.0017542 -3.89535e-07)
(-3.89472e-07 -0.00175391 -3.89472e-07)
(-1.05434e-08 -4.74799e-05 -1.05434e-08)
(-1.41674e-10 -6.38003e-07 -1.41674e-10)
(-5.16878e-09 -2.32766e-05 -5.16878e-09)
(-5.23465e-09 -2.35732e-05 -5.23465e-09)
(-2.12072e-10 -9.55027e-07 -2.12072e-10)
(0 0 0)
(0 0 0)
(0 0 0)
(0 0 0)
(0 0 0)
(0 0 0)
(0 0 0)
(0 0 0)
(0 0 0)
(0 0 0)
(0 0 0)
(0 0 0)
(0 0 0)
(0 0 0)
(0 0 0)
(0 0 0)
(0 0 0)
(0 0 0)
(0 0 0)
(0 0 0)
(0 0 0)
(0 0 0)
(0 0 0)
(0 0 0)
(0 0 0)
(0 0 0)
(0 0 0)
(0 0 0)
(0 0 0)
(0 0 0)
(0 0 0)
(0 0 0)
(0 0 0)
(0 0 0)
(0 0 0)
(0 0 0)
(0 0 0)
(0 0 0)
(0 0 0)
(0 0 0)
(-1.63577e-17 -7.36637e-14 -1.63577e-17)
(-1.72964e-16 -7.78911e-13 -1.72964e-16)
(-1.62523e-16 -7.3189e-13 -1.62523e-16)
(-4.72487e-18 -2.12775e-14 -4.72487e-18)
(-1.02771e-15 -4.6281e-12 -1.02771e-15)
(-1.2704e-14 -5.721e-11 -1.2704e-14)
(-1.20851e-14 -5.44229e-11 -1.20851e-14)
(-3.46749e-16 -1.56152e-12 -3.46749e-16)
(-6.37457e-14 -2.87066e-10 -6.37457e-14)
(-9.45486e-13 -4.25781e-09 -9.45486e-13)
(-9.10577e-13 -4.10061e-09 -9.10577e-13)
(-2.57895e-14 -1.16138e-10 -2.57895e-14)
(-3.79648e-12 -1.70967e-08 -3.79648e-12)
(-7.03565e-11 -3.16837e-07 -7.03565e-11)
(-6.86102e-11 -3.08973e-07 -6.86102e-11)
(-1.91812e-12 -8.63787e-09 -1.91812e-12)
(-2.12061e-10 -9.54974e-07 -2.12061e-10)
(-5.23462e-09 -2.35731e-05 -5.23462e-09)
(-5.16969e-09 -2.32807e-05 -5.16969e-09)
(-1.42662e-10 -6.42451e-07 -1.42662e-10)
(-1.05405e-08 -4.7467e-05 -1.05405e-08)
(-3.89399e-07 -0.00175358 -3.89399e-07)
(-3.89534e-07 -0.00175419 -3.89534e-07)
(-1.06107e-08 -4.77833e-05 -1.06107e-08)
(-3.94705e-07 -0.00177748 -3.94705e-07)
(-2.85776e-05 -0.128694 -2.85776e-05)
(-2.85776e-05 -0.128694 -2.85776e-05)
(-3.94777e-07 -0.0017778 -3.94777e-07)
(-3.94842e-07 -0.00177809 -3.94842e-07)
(-2.85776e-05 -0.128694 -2.85776e-05)
(-2.85776e-05 -0.128694 -2.85776e-05)
(-3.94846e-07 -0.00177811 -3.94846e-07)
(-1.06116e-08 -4.77874e-05 -1.06116e-08)
(-3.89472e-07 -0.00175391 -3.89472e-07)
(-3.89537e-07 -0.00175421 -3.89537e-07)
(-1.06821e-08 -4.81047e-05 -1.06821e-08)
(-1.43555e-10 -6.46472e-07 -1.43555e-10)
(-5.23465e-09 -2.35732e-05 -5.23465e-09)
(-5.30394e-09 -2.38853e-05 -5.30394e-09)
(-2.17628e-10 -9.80047e-07 -2.17628e-10)
(0 0 0)
(0 0 0)
(0 0 0)
(0 0 0)
(0 0 0)
(0 0 0)
(0 0 0)
(0 0 0)
(0 0 0)
(0 0 0)
(0 0 0)
(0 0 0)
(0 0 0)
(0 0 0)
(0 0 0)
(0 0 0)
(0 0 0)
(0 0 0)
(0 0 0)
(0 0 0)
(0 0 0)
(0 0 0)
(0 0 0)
(0 0 0)
(0 0 0)
(0 0 0)
(0 0 0)
(0 0 0)
(0 0 0)
(0 0 0)
(0 0 0)
(0 0 0)
(0 0 0)
(0 0 0)
(0 0 0)
(0 0 0)
(0 0 0)
(0 0 0)
(0 0 0)
(0 0 0)
(-4.82902e-19 -2.17466e-15 -4.82902e-19)
(-5.03437e-18 -2.26713e-14 -5.03437e-18)
(-4.72487e-18 -2.12775e-14 -4.72487e-18)
(-1.3841e-19 -6.23303e-16 -1.3841e-19)
(-2.99426e-17 -1.34841e-13 -2.99426e-17)
(-3.64884e-16 -1.64319e-12 -3.64884e-16)
(-3.46749e-16 -1.56152e-12 -3.46749e-16)
(-1.00233e-17 -4.51378e-14 -1.00233e-17)
(-1.83342e-15 -8.25645e-12 -1.83342e-15)
(-2.68021e-14 -1.20698e-10 -2.68021e-14)
(-2.57895e-14 -1.16138e-10 -2.57895e-14)
(-7.35746e-16 -3.31329e-12 -7.35746e-16)
(-1.07803e-13 -4.85469e-10 -1.07803e-13)
(-1.9684e-12 -8.86429e-09 -1.9684e-12)
(-1.91812e-12 -8.63787e-09 -1.91812e-12)
(-5.40066e-14 -2.43208e-10 -5.40066e-14)
(-5.94621e-12 -2.67776e-08 -5.94621e-12)
(-1.44539e-10 -6.50902e-07 -1.44539e-10)
(-1.42662e-10 -6.42451e-07 -1.42662e-10)
(-3.9643e-12 -1.78525e-08 -3.9643e-12)
(-2.92017e-10 -1.31504e-06 -2.92017e-10)
(-1.06116e-08 -4.77873e-05 -1.06116e-08)
(-1.06107e-08 -4.77833e-05 -1.06107e-08)
(-2.90995e-10 -1.31044e-06 -2.90995e-10)
(-1.08275e-08 -4.87595e-05 -1.08275e-08)
(-3.94844e-07 -0.0017781 -3.94844e-07)
(-3.94777e-07 -0.0017778 -3.94777e-07)
(-1.07583e-08 -4.84478e-05 -1.07583e-08)
(-1.08275e-08 -4.87594e-05 -1.08275e-08)
(-3.94777e-07 -0.0017778 -3.94777e-07)
(-3.94846e-07 -0.00177811 -3.94846e-07)
(-1.09008e-08 -4.90896e-05 -1.09008e-08)
(-2.91045e-10 -1.31066e-06 -2.91045e-10)
(-1.05434e-08 -4.74799e-05 -1.05434e-08)
(-1.06821e-08 -4.81047e-05 -1.06821e-08)
(-4.39394e-10 -1.97872e-06 -4.39394e-10)
(-5.89183e-12 -2.65327e-08 -5.89183e-12)
(-2.12072e-10 -9.55027e-07 -2.12072e-10)
(-2.17628e-10 -9.80047e-07 -2.17628e-10)
(-1.1909e-11 -5.36299e-08 -1.1909e-11)
(0 0 0)
(0 0 0)
(0 0 0)
(0 0 0)
(0 0 0)
(0 0 0)
(0 0 0)
(0 0 0)
(0 0 0)
(0 0 0)
(0 0 0)
(0 0 0)
(0 0 0)
(0 0 0)
(0 0 0)
(0 0 0)
(0 0 0)
(0 0 0)
(0 0 0)
(0 0 0)
(0 0 0)
(0 0 0)
(0 0 0)
(0 0 0)
(0 0 0)
(0 0 0)
(0 0 0)
(0 0 0)
(0 0 0)
(0 0 0)
(0 0 0)
(0 0 0)
(0 0 0)
(0 0 0)
(0 0 0)
(0 0 0)
(0 0 0)
(0 0 0)
(0 0 0)
(0 0 0)
)
;

boundaryField
{
    inlet
    {
        type            zeroGradient;
    }
    outlet
    {
        type            zeroGradient;
    }
    walls
    {
        type            zeroGradient;
    }
}


// ************************************************************************* //
