/*--------------------------------*- C++ -*----------------------------------*\
| =========                 |                                                 |
| \\      /  F ield         | OpenFOAM: The Open Source CFD Toolbox           |
|  \\    /   O peration     | Version:  5.x                                   |
|   \\  /    A nd           | Web:      www.OpenFOAM.org                      |
|    \\/     M anipulation  |                                                 |
\*---------------------------------------------------------------------------*/
FoamFile
{
    version     2.0;
    format      ascii;
    class       volScalarField;
    location    "0.01";
    object      Ksl;
}
// * * * * * * * * * * * * * * * * * * * * * * * * * * * * * * * * * * * * * //

dimensions      [1 -3 -1 0 0 0 0];

internalField   nonuniform List<scalar> 
160
(
1.35976
2.74559
1.36994
0.624304
0.13741
1.32772
0.823155
0.078564
0.00439462
0.0457263
0.030631
0.00282151
0.000199667
0.00228477
0.00161397
0
0
0
0
0
0
0
0
0
0
0
0
0
0
0
0
0
0
0
0
0
0
0
0
0
2.74559
2.946
1.42748
1.32719
1.32772
5.10481
2.0775
0.989196
0.0457263
0.645333
0.36342
0.0353471
0.00228477
0.012895
0.00856391
0.00147487
0
0.000552798
0.000356329
0
0
0
0
0
0
0
0
0
0
0
0
0
0
0
0
0
0
0
0
0
1.36994
1.42748
0.957819
0.899309
0.823155
2.0775
1.51528
0.652623
0.030631
0.36342
0.269245
0.0275048
0.00161397
0.00856391
0.00624905
0.00131037
0
0.000356329
0.000267366
0
0
0
0
0
0
0
0
0
0
0
0
0
0
0
0
0
0
0
0
0
0.624304
1.32719
0.899309
0.39795
0.078564
0.989196
0.652623
0.0603588
0.00282151
0.0353471
0.0275048
0.00246478
0.00014962
0.00147487
0.00131037
5.37066e-19
0
0
0
0
0
0
0
0
0
0
0
0
0
0
0
0
0
0
0
0
0
0
0
0
)
;

boundaryField
{
    inlet
    {
        type            zeroGradient;
    }
    outlet
    {
        type            zeroGradient;
    }
    walls
    {
        type            zeroGradient;
    }
    procBoundary1to0
    {
        type            processor;
        value           nonuniform List<scalar> 
16
(
2.82849
2.96481
1.43314
1.33489
2.96481
2.9926
1.41581
1.40487
1.43314
1.41581
0.946856
0.94988
1.33489
1.40487
0.94988
0.883718
)
;
    }
}


// ************************************************************************* //
