/*--------------------------------*- C++ -*----------------------------------*\
| =========                 |                                                 |
| \\      /  F ield         | OpenFOAM: The Open Source CFD Toolbox           |
|  \\    /   O peration     | Version:  5.x                                   |
|   \\  /    A nd           | Web:      www.OpenFOAM.org                      |
|    \\/     M anipulation  |                                                 |
\*---------------------------------------------------------------------------*/
FoamFile
{
    version     2.0;
    format      ascii;
    class       volScalarField;
    location    "0.01";
    object      p;
}
// * * * * * * * * * * * * * * * * * * * * * * * * * * * * * * * * * * * * * //

dimensions      [0 2 -2 0 0 0 0];

internalField   nonuniform List<scalar> 
160
(
-2.13892e-06
-3.03049e-06
-2.63734e-06
-1.59693e-06
-2.17676e-06
-2.35043e-06
-2.04368e-06
-1.68265e-06
-2.07554e-06
-2.21507e-06
-2.10393e-06
-1.85305e-06
-1.9919e-06
-2.03136e-06
-1.98783e-06
-1.89815e-06
-1.95698e-06
-1.98375e-06
-1.96614e-06
-1.92654e-06
-1.94427e-06
-1.95765e-06
-1.95263e-06
-1.93779e-06
-1.94149e-06
-1.94862e-06
-1.94784e-06
-1.94264e-06
-1.94188e-06
-1.94565e-06
-1.94608e-06
-1.9449e-06
-1.94307e-06
-1.94508e-06
-1.94572e-06
-1.94578e-06
-1.94446e-06
-1.94546e-06
-1.94587e-06
-1.94615e-06
-3.03049e-06
-1.01118e-05
-7.45486e-06
-2.255e-06
-2.35043e-06
-3.29171e-06
-2.6282e-06
-1.65233e-06
-2.21507e-06
-2.77251e-06
-2.53681e-06
-2.00223e-06
-2.03136e-06
-2.20107e-06
-2.13367e-06
-1.94628e-06
-1.98375e-06
-2.04886e-06
-2.02418e-06
-1.9558e-06
-1.95765e-06
-1.98298e-06
-1.97585e-06
-1.95238e-06
-1.94862e-06
-1.95923e-06
-1.95781e-06
-1.94998e-06
-1.94565e-06
-1.95041e-06
-1.95074e-06
-1.94846e-06
-1.94508e-06
-1.94736e-06
-1.94793e-06
-1.94768e-06
-1.94546e-06
-1.94651e-06
-1.94689e-06
-1.94708e-06
-2.63734e-06
-7.45486e-06
-7.78672e-06
-1.74418e-06
-2.04368e-06
-2.6282e-06
-2.31767e-06
-1.30304e-06
-2.10393e-06
-2.53681e-06
-2.48394e-06
-1.86304e-06
-1.98783e-06
-2.13367e-06
-2.1016e-06
-1.89315e-06
-1.96614e-06
-2.02418e-06
-2.0082e-06
-1.93324e-06
-1.95263e-06
-1.97585e-06
-1.97013e-06
-1.94459e-06
-1.94784e-06
-1.95781e-06
-1.95655e-06
-1.94806e-06
-1.94608e-06
-1.95074e-06
-1.951e-06
-1.94841e-06
-1.94572e-06
-1.94793e-06
-1.94844e-06
-1.94811e-06
-1.94587e-06
-1.94689e-06
-1.94723e-06
-1.94738e-06
-1.59693e-06
-2.255e-06
-1.74418e-06
-9.73126e-07
-1.68265e-06
-1.65233e-06
-1.30304e-06
-1.13049e-06
-1.85305e-06
-2.00223e-06
-1.86304e-06
-1.58488e-06
-1.89815e-06
-1.94628e-06
-1.89315e-06
-1.77891e-06
-1.92654e-06
-1.9558e-06
-1.93324e-06
-1.88221e-06
-1.93779e-06
-1.95238e-06
-1.94459e-06
-1.92366e-06
-1.94264e-06
-1.94998e-06
-1.94806e-06
-1.94031e-06
-1.9449e-06
-1.94846e-06
-1.94841e-06
-1.94643e-06
-1.94578e-06
-1.94768e-06
-1.94811e-06
-1.94787e-06
-1.94615e-06
-1.94708e-06
-1.94738e-06
-1.94754e-06
)
;

boundaryField
{
    inlet
    {
        type            zeroGradient;
    }
    outlet
    {
        type            totalPressure;
        rho             rho;
        psi             none;
        gamma           1;
        p0              nonuniform 0();
        value           nonuniform 0();
    }
    walls
    {
        type            zeroGradient;
    }
    procBoundary1to0
    {
        type            processor;
        value           nonuniform List<scalar> 
16
(
-9.73312e-07
-9.7335e-07
-9.7335e-07
-9.73327e-07
-9.7335e-07
-9.73474e-07
-9.7342e-07
-9.73365e-07
-9.7335e-07
-9.7342e-07
-9.73462e-07
-9.73378e-07
-9.73327e-07
-9.73365e-07
-9.73378e-07
-9.73354e-07
)
;
    }
}


// ************************************************************************* //
