/*--------------------------------*- C++ -*----------------------------------*\
| =========                 |                                                 |
| \\      /  F ield         | OpenFOAM: The Open Source CFD Toolbox           |
|  \\    /   O peration     | Version:  5.x                                   |
|   \\  /    A nd           | Web:      www.OpenFOAM.org                      |
|    \\/     M anipulation  |                                                 |
\*---------------------------------------------------------------------------*/
FoamFile
{
    version     2.0;
    format      ascii;
    class       surfaceScalarField;
    location    "0.01";
    object      phi;
}
// * * * * * * * * * * * * * * * * * * * * * * * * * * * * * * * * * * * * * //

dimensions      [0 3 -1 0 0 0 0];

internalField   nonuniform List<scalar> 
384
(
8.35654e-12
4.43989e-12
8.35654e-12
-1.87445e-13
1.16806e-12
6.12269e-11
-7.66083e-12
1.91991e-12
5.01071e-11
4.32166e-12
9.75002e-12
2.37021e-12
2.68295e-12
2.37021e-12
7.44335e-14
7.78152e-14
1.01633e-11
-1.84292e-12
5.87272e-13
8.57756e-12
2.74148e-12
2.38919e-12
2.0144e-12
1.25031e-12
2.0144e-12
1.74298e-14
2.88646e-14
5.53948e-12
-1.48011e-12
1.39224e-13
4.71732e-12
1.06622e-12
2.17438e-12
8.07647e-13
6.81103e-13
8.07647e-13
1.4404e-13
-3.56012e-14
1.91133e-12
-4.53235e-13
4.20262e-14
1.67318e-12
4.75693e-13
8.8835e-13
4.21147e-13
3.43313e-13
4.21147e-13
7.93177e-14
1.25755e-14
7.19153e-13
-1.79608e-13
1.83566e-14
6.5095e-13
1.93944e-13
4.28323e-13
1.93891e-13
1.73676e-13
1.93891e-13
5.99471e-14
2.34746e-14
2.7788e-13
-5.20698e-14
1.19541e-14
2.58304e-13
7.83434e-14
1.94063e-13
9.02774e-14
8.7202e-14
9.02774e-14
3.88149e-14
2.08443e-14
1.12863e-13
-9.2582e-15
7.69868e-15
1.07108e-13
3.18127e-14
8.85553e-14
4.22595e-14
4.32627e-14
4.22595e-14
2.37483e-14
1.44682e-14
4.80505e-14
1.5975e-15
5.36652e-15
4.65691e-14
1.25226e-14
4.0463e-14
2.0344e-14
2.04144e-14
2.0344e-14
1.4273e-14
8.38366e-15
2.18146e-14
4.59252e-15
3.14617e-15
2.12511e-14
4.78601e-15
1.95125e-14
1.06627e-14
1.06627e-14
9.08447e-15
1.08697e-14
4.73312e-15
1.06264e-14
1.01476e-14
6.12269e-11
1.16806e-12
-1.87445e-13
-1.20986e-11
-4.17403e-11
-1.20986e-11
-5.3368e-11
-2.75472e-11
6.49938e-12
1.77177e-12
-3.8695e-13
1.01633e-11
7.78152e-14
7.44335e-14
-1.52569e-12
-1.83623e-11
-1.52569e-12
-8.81263e-12
-1.25454e-11
8.62711e-13
-1.40313e-13
-1.94013e-13
5.53948e-12
2.88646e-14
1.74298e-14
-6.3463e-13
-6.01408e-12
-6.3463e-13
-4.44323e-12
-4.43345e-12
4.13982e-13
-3.24062e-13
-3.54852e-14
1.91133e-12
-3.56012e-14
1.4404e-13
-4.37599e-14
-2.1039e-12
-4.37599e-14
-1.36949e-12
-1.6133e-12
1.78764e-13
-2.67526e-13
8.96327e-14
7.19153e-13
1.25755e-14
7.93177e-14
2.32611e-14
-7.12115e-13
2.32611e-14
-4.39841e-13
-5.84663e-13
8.54119e-14
-1.45946e-13
6.52149e-14
2.7788e-13
2.34746e-14
5.99471e-14
3.94767e-14
-2.35308e-13
3.94767e-14
-1.27998e-13
-2.13734e-13
5.48496e-14
-7.12276e-14
5.01778e-14
1.12863e-13
2.08443e-14
3.88149e-14
3.24084e-14
-7.43975e-14
3.24084e-14
-3.16505e-14
-7.82389e-14
3.56696e-14
-3.3217e-14
3.44124e-14
4.80505e-14
1.44682e-14
2.37483e-14
2.17972e-14
-2.18909e-14
2.17972e-14
-3.28242e-15
-2.87076e-14
2.21151e-14
-1.488e-14
2.16302e-14
2.18146e-14
8.38366e-15
1.4273e-14
1.3598e-14
-5.45597e-15
1.3598e-14
2.66876e-15
-1.00024e-14
1.3475e-14
-6.58771e-15
1.32609e-14
1.08697e-14
9.08448e-15
8.8194e-15
8.8194e-15
4.22801e-15
8.6803e-15
8.54934e-15
5.01071e-11
1.91991e-12
-7.66083e-12
6.49938e-12
-2.75472e-11
-5.3368e-11
-5.39353e-11
-3.3379e-11
-5.39353e-11
2.24131e-12
-9.14342e-12
8.57756e-12
5.87272e-13
-1.84292e-12
8.62711e-13
-1.25454e-11
-8.81263e-12
-8.80364e-12
-1.40463e-11
-8.80364e-12
2.3893e-13
-2.0933e-12
4.71732e-12
1.39224e-13
-1.48011e-12
4.13982e-13
-4.43345e-12
-4.44323e-12
-4.33866e-12
-4.54097e-12
-4.33866e-12
-2.40601e-13
-1.82818e-12
1.67318e-12
4.20262e-14
-4.53235e-13
1.78764e-13
-1.6133e-12
-1.36949e-12
-1.30178e-12
-1.57988e-12
-1.30178e-12
-2.18145e-13
-6.39856e-13
6.5095e-13
1.83566e-14
-1.79608e-13
8.54119e-14
-5.84663e-13
-4.39841e-13
-4.18082e-13
-5.72896e-13
-4.18082e-13
-1.4301e-13
-2.42026e-13
2.58304e-13
1.19541e-14
-5.20698e-14
5.48496e-14
-2.13734e-13
-1.27998e-13
-1.21785e-13
-2.19627e-13
-1.21785e-13
-8.14975e-14
-7.87711e-14
1.07108e-13
7.69868e-15
-9.25819e-15
3.56696e-14
-7.82389e-14
-3.16505e-14
-3.01152e-14
-8.80623e-14
-3.01152e-14
-4.48551e-14
-1.8081e-14
4.65691e-14
5.36652e-15
1.5975e-15
2.21151e-14
-2.87076e-14
-3.28242e-15
-3.57141e-15
-3.66932e-14
-3.5714e-15
-2.3061e-14
-1.24603e-15
2.12511e-14
3.14617e-15
4.59252e-15
1.3475e-14
-1.00024e-14
2.66876e-15
2.51442e-15
-1.47734e-14
2.51442e-15
-1.14332e-14
3.4687e-15
1.06264e-14
4.73312e-15
8.6803e-15
4.22801e-15
4.10876e-15
4.10876e-15
4.21216e-15
9.75002e-12
4.32166e-12
-3.8695e-13
1.77177e-12
-9.14342e-12
2.24131e-12
4.51272e-12
2.38919e-12
2.74148e-12
-1.94013e-13
-1.40313e-13
-2.0933e-12
2.3893e-13
3.02413e-12
2.17438e-12
1.06622e-12
-3.54852e-14
-3.24062e-13
-1.82818e-12
-2.40601e-13
1.0656e-12
8.88349e-13
4.75693e-13
8.96326e-14
-2.67526e-13
-6.39856e-13
-2.18145e-13
3.7277e-13
4.28323e-13
1.93944e-13
6.52149e-14
-1.45946e-13
-2.42026e-13
-1.4301e-13
9.78502e-14
1.94063e-13
7.83434e-14
5.01778e-14
-7.12277e-14
-7.87711e-14
-8.14975e-14
6.5426e-15
8.85553e-14
3.18127e-14
3.44124e-14
-3.3217e-14
-1.8081e-14
-4.48551e-14
-1.27966e-14
4.0463e-14
1.25226e-14
2.16302e-14
-1.488e-14
-1.24604e-15
-2.3061e-14
-1.3605e-14
1.95125e-14
4.78601e-15
1.32609e-14
-6.58771e-15
3.4687e-15
-1.14332e-14
-9.06297e-15
1.01476e-14
8.54934e-15
4.21216e-15
)
;

boundaryField
{
    inlet
    {
        type            calculated;
        value           nonuniform List<scalar> 
16
(
8.07572e-15
3.68432e-15
1.36998e-15
1.82572e-15
3.68432e-15
-1.35252e-15
-3.46321e-15
-2.42456e-15
1.36998e-15
-3.46321e-15
-5.62983e-15
-4.64163e-15
1.82572e-15
-2.42456e-15
-4.64163e-15
-4.099e-15
)
;
    }
    outlet
    {
        type            calculated;
        value           nonuniform 0();
    }
    walls
    {
        type            calculated;
        value           nonuniform List<scalar> 
160
(
-5.1689e-12
-1.49174e-12
-1.29808e-12
-5.23042e-13
-2.52251e-13
-1.09072e-13
-4.70403e-14
-2.02894e-14
-8.91876e-15
-4.49234e-15
-3.8986e-11
-6.77727e-12
-3.49355e-12
-1.18326e-12
-4.25498e-13
-1.54834e-13
-5.87684e-14
-2.31602e-14
-9.65605e-15
-4.58911e-15
-2.82198e-11
-5.32757e-12
-2.77174e-12
-9.7871e-13
-3.68355e-13
-1.39883e-13
-5.47781e-14
-2.20862e-14
-9.34973e-15
-4.4972e-15
-6.23467e-12
-1.82511e-12
-1.3497e-12
-5.50549e-13
-2.47961e-13
-1.05722e-13
-4.52342e-14
-1.94183e-14
-8.57075e-15
-4.29699e-15
-3.64613e-12
-8.26822e-13
-6.29537e-13
-2.00512e-13
-7.82213e-14
-2.48097e-14
-6.04927e-15
-1.58362e-16
1.3872e-15
1.8437e-15
-2.56045e-11
-4.31734e-12
-2.04961e-12
-6.27308e-13
-1.98312e-13
-5.88311e-14
-1.55214e-14
-2.78931e-15
6.27927e-16
1.66333e-15
-2.96516e-11
-4.90197e-12
-2.06643e-12
-5.94748e-13
-1.85975e-13
-5.43511e-14
-1.42691e-14
-2.49287e-15
6.7836e-16
1.65421e-15
-5.34258e-12
-1.34901e-12
-8.48921e-13
-2.9344e-13
-1.04566e-13
-3.31193e-14
-8.41254e-15
-8.42488e-16
1.19797e-15
1.73022e-15
-5.1689e-12
-1.49174e-12
-1.29808e-12
-5.23042e-13
-2.52251e-13
-1.09072e-13
-4.70403e-14
-2.02894e-14
-8.91876e-15
-4.49234e-15
-3.8986e-11
-6.77727e-12
-3.49355e-12
-1.18326e-12
-4.25498e-13
-1.54834e-13
-5.87684e-14
-2.31602e-14
-9.65605e-15
-4.58911e-15
-2.82198e-11
-5.32757e-12
-2.77174e-12
-9.7871e-13
-3.68355e-13
-1.39883e-13
-5.47781e-14
-2.20862e-14
-9.34973e-15
-4.4972e-15
-6.23467e-12
-1.82511e-12
-1.3497e-12
-5.50549e-13
-2.47961e-13
-1.05722e-13
-4.52342e-14
-1.94183e-14
-8.57076e-15
-4.29699e-15
-3.64613e-12
-8.26822e-13
-6.29537e-13
-2.00512e-13
-7.82213e-14
-2.48097e-14
-6.04927e-15
-1.58362e-16
1.3872e-15
1.8437e-15
-2.56045e-11
-4.31734e-12
-2.04961e-12
-6.27308e-13
-1.98312e-13
-5.88311e-14
-1.55214e-14
-2.78931e-15
6.27927e-16
1.66333e-15
-2.96516e-11
-4.90197e-12
-2.06643e-12
-5.94748e-13
-1.85975e-13
-5.43511e-14
-1.42691e-14
-2.49287e-15
6.7836e-16
1.65421e-15
-5.34258e-12
-1.34901e-12
-8.48921e-13
-2.9344e-13
-1.04566e-13
-3.31193e-14
-8.41254e-15
-8.42487e-16
1.19797e-15
1.73022e-15
)
;
    }
    procBoundary1to0
    {
        type            processor;
        value           nonuniform List<scalar> 
16
(
-1.08152e-11
-1.48651e-11
-1.63338e-11
-1.18517e-11
-1.48651e-11
1.88391e-10
1.12424e-10
-1.93983e-11
-1.63338e-11
1.12424e-10
1.54248e-10
-1.77685e-11
-1.18517e-11
-1.93983e-11
-1.77685e-11
-1.21144e-11
)
;
    }
}


// ************************************************************************* //
