/*--------------------------------*- C++ -*----------------------------------*\
| =========                 |                                                 |
| \\      /  F ield         | OpenFOAM: The Open Source CFD Toolbox           |
|  \\    /   O peration     | Version:  5.x                                   |
|   \\  /    A nd           | Web:      www.OpenFOAM.org                      |
|    \\/     M anipulation  |                                                 |
\*---------------------------------------------------------------------------*/
FoamFile
{
    version     2.0;
    format      ascii;
    class       volVectorField;
    location    "0.01";
    object      U;
}
// * * * * * * * * * * * * * * * * * * * * * * * * * * * * * * * * * * * * * //

dimensions      [0 1 -1 0 0 0 0];

internalField   nonuniform List<vector> 
160
(
(1.00306e-06 1.21111e-06 1.00306e-06)
(8.90515e-07 1.45265e-06 7.63795e-06)
(-9.14232e-07 1.46239e-06 5.46787e-06)
(-7.88821e-07 1.26843e-06 1.12749e-06)
(2.72973e-07 5.00633e-07 2.72973e-07)
(2.64175e-07 -2.68126e-07 1.27051e-06)
(-2.19547e-07 -1.74051e-07 9.6801e-07)
(-2.03586e-07 4.64002e-07 2.8603e-07)
(2.35245e-07 3.04161e-07 2.35245e-07)
(2.11275e-07 1.24061e-07 6.69222e-07)
(-1.77491e-07 1.39437e-07 5.29094e-07)
(-1.50269e-07 2.92444e-07 2.45412e-07)
(9.14795e-08 1.40485e-07 9.14795e-08)
(9.54629e-08 -4.89616e-08 2.22887e-07)
(-4.75395e-08 -1.97639e-08 1.85439e-07)
(-4.97902e-08 1.10056e-07 9.75909e-08)
(4.56469e-08 7.69717e-08 4.56469e-08)
(4.94895e-08 5.55428e-09 8.0956e-08)
(-1.71864e-08 6.62206e-09 7.04158e-08)
(-2.03346e-08 4.96099e-08 4.54515e-08)
(2.0093e-08 3.86727e-08 2.0093e-08)
(2.4352e-08 1.96647e-09 2.97833e-08)
(-2.93377e-09 1.50076e-09 2.69738e-08)
(-6.89989e-09 1.98786e-08 1.9796e-08)
(8.93436e-09 1.96878e-08 8.93436e-09)
(1.1983e-08 3.59394e-09 1.15018e-08)
(9.37038e-10 1.40156e-09 1.07357e-08)
(-1.99554e-09 8.06398e-09 8.68722e-09)
(3.99184e-09 9.93961e-09 3.99184e-09)
(5.9149e-09 2.83979e-09 4.64667e-09)
(1.61827e-09 1.01904e-09 4.45547e-09)
(-2.58761e-10 3.25532e-09 3.81041e-09)
(1.82487e-09 4.89293e-09 1.82487e-09)
(2.99506e-09 1.82768e-09 1.99459e-09)
(1.38426e-09 6.76252e-10 1.93167e-09)
(2.32724e-10 1.28639e-09 1.74754e-09)
(9.16626e-10 1.56569e-09 9.16626e-10)
(1.66029e-09 6.63796e-10 9.42197e-10)
(1.0868e-09 2.49156e-10 9.19161e-10)
(3.48588e-10 3.64868e-10 8.70613e-10)
(7.63795e-06 1.45265e-06 8.90515e-07)
(5.35641e-06 9.36307e-07 5.35641e-06)
(-7.45649e-06 1.3129e-06 6.22027e-06)
(-5.12504e-06 1.54559e-06 1.0531e-06)
(1.27051e-06 -2.68126e-07 2.64175e-07)
(9.606e-07 -7.31872e-06 9.606e-07)
(-1.20884e-06 -5.16302e-06 1.05037e-06)
(-8.83768e-07 -4.1804e-07 2.64231e-07)
(6.69222e-07 1.24061e-07 2.11275e-07)
(5.03923e-07 -9.33203e-07 5.03923e-07)
(-6.01278e-07 -6.49898e-07 5.29324e-07)
(-4.33669e-07 1.04455e-07 2.26033e-07)
(2.22887e-07 -4.89616e-08 9.54629e-08)
(1.8925e-07 -6.4058e-07 1.8925e-07)
(-1.72875e-07 -4.80796e-07 1.87852e-07)
(-1.37433e-07 -8.99319e-08 1.00928e-07)
(8.0956e-08 5.55428e-09 4.94895e-08)
(7.40706e-08 -1.88987e-07 7.40706e-08)
(-5.24255e-08 -1.52971e-07 7.35286e-08)
(-4.52537e-08 -2.83621e-08 4.92439e-08)
(2.97833e-08 1.96647e-09 2.4352e-08)
(3.11699e-08 -6.78084e-08 3.11699e-08)
(-1.27928e-08 -5.84988e-08 3.04424e-08)
(-1.40554e-08 -1.69586e-08 2.35726e-08)
(1.15018e-08 3.59394e-09 1.1983e-08)
(1.37601e-08 -2.16559e-08 1.37601e-08)
(-1.80814e-09 -2.12429e-08 1.33997e-08)
(-4.0319e-09 -7.95795e-09 1.14207e-08)
(4.64667e-09 2.83979e-09 5.9149e-09)
(6.37005e-09 -6.69493e-09 6.37005e-09)
(8.14464e-10 -7.8261e-09 6.22723e-09)
(-8.97172e-10 -3.69876e-09 5.5668e-09)
(1.99459e-09 1.82768e-09 2.99506e-09)
(3.09899e-09 -1.87758e-09 3.09899e-09)
(1.15276e-09 -2.86735e-09 3.03062e-09)
(5.2357e-11 -1.65367e-09 2.83493e-09)
(9.42197e-10 6.63796e-10 1.66029e-09)
(1.66402e-09 -3.83333e-10 1.66402e-09)
(1.02404e-09 -7.59893e-10 1.63084e-09)
(3.03589e-10 -5.07892e-10 1.57163e-09)
(5.46787e-06 1.46239e-06 -9.14232e-07)
(6.22027e-06 1.3129e-06 -7.45649e-06)
(-5.22703e-06 1.13636e-06 -5.22703e-06)
(-5.93928e-06 1.51341e-06 -1.09287e-06)
(9.6801e-07 -1.74051e-07 -2.19547e-07)
(1.05037e-06 -5.16302e-06 -1.20884e-06)
(-9.16712e-07 -5.89885e-06 -9.16712e-07)
(-9.84979e-07 -3.58834e-07 -2.79203e-07)
(5.29094e-07 1.39437e-07 -1.77491e-07)
(5.29324e-07 -6.49898e-07 -6.01278e-07)
(-4.55713e-07 -7.23838e-07 -4.55713e-07)
(-4.53434e-07 1.32473e-07 -2.1295e-07)
(1.85439e-07 -1.97639e-08 -4.75395e-08)
(1.87852e-07 -4.80796e-07 -1.72875e-07)
(-1.3569e-07 -4.76619e-07 -1.3569e-07)
(-1.36388e-07 -6.55982e-08 -6.7657e-08)
(7.04158e-08 6.62205e-09 -1.71864e-08)
(7.35286e-08 -1.52971e-07 -5.24255e-08)
(-4.18743e-08 -1.51033e-07 -4.18743e-08)
(-4.45832e-08 -2.72576e-08 -2.35709e-08)
(2.69738e-08 1.50076e-09 -2.93377e-09)
(3.04424e-08 -5.84988e-08 -1.27928e-08)
(-1.04336e-08 -5.87283e-08 -1.04336e-08)
(-1.37467e-08 -1.7758e-08 -5.87603e-09)
(1.07357e-08 1.40155e-09 9.37038e-10)
(1.33997e-08 -2.12429e-08 -1.80814e-09)
(-1.34537e-09 -2.28472e-08 -1.34537e-09)
(-3.96114e-09 -9.86912e-09 -2.25594e-10)
(4.45547e-09 1.01904e-09 1.61827e-09)
(6.22723e-09 -7.8261e-09 8.14464e-10)
(8.45648e-10 -9.36031e-09 8.45648e-10)
(-9.11113e-10 -5.3023e-09 1.2006e-09)
(1.93167e-09 6.76252e-10 1.38426e-09)
(3.03062e-09 -2.86735e-09 1.15276e-09)
(1.13659e-09 -3.91371e-09 1.13659e-09)
(4.19312e-11 -2.68903e-09 1.22141e-09)
(9.19161e-10 2.49156e-10 1.0868e-09)
(1.63084e-09 -7.59893e-10 1.02404e-09)
(1.00511e-09 -1.14108e-09 1.00511e-09)
(2.95177e-10 -8.85584e-10 1.00501e-09)
(1.12749e-06 1.26843e-06 -7.88821e-07)
(1.0531e-06 1.54559e-06 -5.12504e-06)
(-1.09287e-06 1.51341e-06 -5.93928e-06)
(-1.00707e-06 1.27819e-06 -1.00707e-06)
(2.8603e-07 4.64002e-07 -2.03586e-07)
(2.64231e-07 -4.1804e-07 -8.83768e-07)
(-2.79203e-07 -3.58834e-07 -9.84979e-07)
(-2.49916e-07 4.57717e-07 -2.49916e-07)
(2.45412e-07 2.92444e-07 -1.50269e-07)
(2.26033e-07 1.04455e-07 -4.33669e-07)
(-2.1295e-07 1.32473e-07 -4.53434e-07)
(-1.90756e-07 3.12892e-07 -1.90756e-07)
(9.75909e-08 1.10056e-07 -4.97902e-08)
(1.00928e-07 -8.99319e-08 -1.37433e-07)
(-6.7657e-08 -6.55982e-08 -1.36388e-07)
(-6.95084e-08 9.84865e-08 -6.95084e-08)
(4.54515e-08 4.96099e-08 -2.03346e-08)
(4.92439e-08 -2.83621e-08 -4.52537e-08)
(-2.35709e-08 -2.72576e-08 -4.45832e-08)
(-2.68066e-08 3.30897e-08 -2.68066e-08)
(1.9796e-08 1.98786e-08 -6.89988e-09)
(2.35726e-08 -1.69586e-08 -1.40554e-08)
(-5.87603e-09 -1.7758e-08 -1.37467e-08)
(-9.43157e-09 6.30016e-09 -9.43157e-09)
(8.68722e-09 8.06398e-09 -1.99554e-09)
(1.14207e-08 -7.95795e-09 -4.0319e-09)
(-2.25594e-10 -9.86912e-09 -3.96114e-09)
(-2.8766e-09 -8.96766e-10 -2.8766e-09)
(3.81041e-09 3.25532e-09 -2.5876e-10)
(5.5668e-09 -3.69876e-09 -8.97172e-10)
(1.2006e-09 -5.3023e-09 -9.11113e-10)
(-5.25741e-10 -2.2493e-09 -5.25741e-10)
(1.74754e-09 1.28639e-09 2.32725e-10)
(2.83493e-09 -1.65367e-09 5.23571e-11)
(1.22141e-09 -2.68903e-09 4.19313e-11)
(1.45082e-10 -1.8434e-09 1.45082e-10)
(8.70613e-10 3.64868e-10 3.48588e-10)
(1.57163e-09 -5.07892e-10 3.03589e-10)
(1.00501e-09 -8.85584e-10 2.95177e-10)
(3.07639e-10 -7.21215e-10 3.07639e-10)
)
;

boundaryField
{
    inlet
    {
        type            fixedValue;
        value           uniform (0 0 0);
    }
    outlet
    {
        type            zeroGradient;
    }
    walls
    {
        type            fixedValue;
        value           uniform (0 0 0);
    }
    procBoundary1to0
    {
        type            processor;
        value           nonuniform List<vector> 
16
(
(1.593e-11 1.79774e-06 1.593e-11)
(1.0278e-11 2.04447e-06 4.5157e-11)
(-1.67239e-11 2.50322e-06 1.40424e-11)
(-1.18887e-11 2.01225e-06 1.37087e-11)
(4.51569e-11 2.04447e-06 1.0278e-11)
(1.72907e-10 -7.05334e-05 1.72907e-10)
(-1.90616e-10 -4.40389e-05 1.19692e-10)
(-7.91052e-12 3.18989e-06 1.24244e-11)
(1.40424e-11 2.50322e-06 -1.67239e-11)
(1.19692e-10 -4.40389e-05 -1.90616e-10)
(-1.26919e-10 -5.92055e-05 -1.26919e-10)
(-7.9147e-12 2.76406e-06 -7.46441e-12)
(1.37088e-11 2.01225e-06 -1.18888e-11)
(1.24244e-11 3.18989e-06 -7.91051e-12)
(-7.46442e-12 2.76406e-06 -7.9147e-12)
(-9.65449e-12 2.08498e-06 -9.65449e-12)
)
;
    }
}


// ************************************************************************* //
