/*--------------------------------*- C++ -*----------------------------------*\
| =========                 |                                                 |
| \\      /  F ield         | OpenFOAM: The Open Source CFD Toolbox           |
|  \\    /   O peration     | Version:  5.x                                   |
|   \\  /    A nd           | Web:      www.OpenFOAM.org                      |
|    \\/     M anipulation  |                                                 |
\*---------------------------------------------------------------------------*/
FoamFile
{
    version     2.0;
    format      ascii;
    class       volScalarField;
    location    "0.093";
    object      phiIB;
}
// * * * * * * * * * * * * * * * * * * * * * * * * * * * * * * * * * * * * * //

dimensions      [0 2 -1 0 0 0 0];

internalField   nonuniform List<scalar> 
1546
(
-0.00040905
-0.000408691
-0.000408659
-0.000408507
-0.00040853
-0.000409074
-0.000408709
-0.000408679
-0.000408523
-0.000408548
-0.00040909
-0.000408709
-0.000408677
-0.000408513
-0.000408536
-0.000409127
-0.000408741
-0.000408709
-0.000408541
-0.000408566
-0.00040923
-0.000408829
-0.000408793
-0.000408612
-0.000408631
-0.000791706
-0.00079159
-0.000791505
-0.00079144
-0.000791404
-0.000791695
-0.000791576
-0.000791488
-0.00079142
-0.000791379
-0.000791686
-0.000791563
-0.000791471
-0.000791398
-0.000791353
-0.000791691
-0.000791566
-0.000791473
-0.000791398
-0.000791351
-0.000791668
-0.000791543
-0.000791448
-0.000791369
-0.000791319
-0.00191326
-0.00191281
-0.00191262
-0.00191237
-0.00191229
-0.00191325
-0.00191279
-0.0019126
-0.00191234
-0.00191226
-0.00191326
-0.00191278
-0.00191259
-0.00191231
-0.00191221
-0.00191331
-0.00191282
-0.00191262
-0.00191234
-0.00191224
-0.00191343
-0.00191293
-0.00191272
-0.00191242
-0.00191231
-0.00245417
-0.00245378
-0.00245354
-0.00245328
-0.00245315
-0.00245414
-0.00245375
-0.0024535
-0.00245323
-0.0024531
-0.00245416
-0.00245375
-0.00245349
-0.00245321
-0.00245307
-0.00245422
-0.0024538
-0.00245354
-0.00245325
-0.0024531
-0.00245433
-0.0024539
-0.00245362
-0.00245332
-0.00245316
-0.0035044
-0.00350375
-0.00350341
-0.00350301
-0.00350283
-0.00350438
-0.00350372
-0.00350336
-0.00350295
-0.00350276
-0.00350444
-0.00350375
-0.00350338
-0.00350294
-0.00350275
-0.00350455
-0.00350385
-0.00350347
-0.00350302
-0.00350281
-0.0035048
-0.00350408
-0.00350369
-0.00350322
-0.00350299
-0.00411898
-0.00411822
-0.00411778
-0.00411731
-0.00411709
-0.00411897
-0.00411819
-0.00411773
-0.00411724
-0.00411701
-0.00411908
-0.00411827
-0.0041178
-0.00411729
-0.00411704
-0.00411924
-0.00411843
-0.00411795
-0.00411742
-0.00411716
-0.00411959
-0.00411876
-0.00411826
-0.00411771
-0.00411743
-0.00510446
-0.00510337
-0.00510277
-0.00510213
-0.00510186
-0.00510448
-0.00510337
-0.00510275
-0.00510207
-0.00510177
-0.00510466
-0.00510352
-0.00510288
-0.00510217
-0.00510185
-0.00510493
-0.00510376
-0.00510312
-0.00510239
-0.00510205
-0.00510549
-0.0051043
-0.00510364
-0.00510287
-0.00510251
-0.00577192
-0.00577051
-0.00576972
-0.0057689
-0.00576854
-0.00577196
-0.00577053
-0.00576973
-0.00576889
-0.00576852
-0.00577226
-0.0057708
-0.00576997
-0.00576909
-0.00576869
-0.00577266
-0.00577118
-0.00577034
-0.00576943
-0.00576901
-0.00577348
-0.00577197
-0.00577112
-0.00577017
-0.00576973
-0.00670611
-0.00670416
-0.00670311
-0.006702
-0.00670153
-0.00670619
-0.00670421
-0.00670314
-0.00670201
-0.00670153
-0.00670666
-0.00670463
-0.00670353
-0.00670234
-0.00670183
-0.00670725
-0.0067052
-0.00670408
-0.00670286
-0.00670233
-0.00670848
-0.00670639
-0.00670526
-0.00670398
-0.00670342
-0.00741092
-0.00740831
-0.0074069
-0.00740547
-0.00740487
-0.00741108
-0.00740843
-0.007407
-0.00740554
-0.00740492
-0.00741177
-0.00740909
-0.00740763
-0.00740611
-0.00740547
-0.00741263
-0.00740994
-0.00740846
-0.00740691
-0.00740624
-0.00741438
-0.00741168
-0.00741019
-0.0074086
-0.00740792
-0.00830161
-0.00829803
-0.0082962
-0.00829432
-0.00829358
-0.00830182
-0.0082982
-0.00829634
-0.00829442
-0.00829367
-0.00830282
-0.00829914
-0.00829724
-0.00829524
-0.00829444
-0.00830399
-0.0083003
-0.00829838
-0.00829634
-0.00829551
-0.00830651
-0.0083028
-0.00830088
-0.00829876
-0.00829791
-0.00902942
-0.00902456
-0.00902211
-0.00901966
-0.00901872
-0.00902974
-0.00902485
-0.00902237
-0.0090199
-0.00901893
-0.00903113
-0.00902622
-0.00902373
-0.00902118
-0.00902019
-0.00903275
-0.00902787
-0.00902536
-0.00902279
-0.00902175
-0.00903627
-0.00903145
-0.00902897
-0.00902637
-0.0090253
-0.00987803
-0.00987162
-0.00986882
-0.00986588
-0.00986492
-0.00987833
-0.00987188
-0.00986903
-0.00986606
-0.00986508
-0.00988008
-0.00987356
-0.00987066
-0.00986756
-0.00986651
-0.00988202
-0.00987554
-0.00987258
-0.00986942
-0.00986831
-0.00988684
-0.00988039
-0.00987746
-0.00987421
-0.00987304
-0.0106108
-0.0106025
-0.0105994
-0.010596
-0.010595
-0.0106111
-0.0106028
-0.0105996
-0.0105962
-0.0105952
-0.0106132
-0.0106048
-0.0106016
-0.0105982
-0.0105971
-0.0106155
-0.0106072
-0.0106038
-0.0106002
-0.010599
-0.0106219
-0.0106138
-0.0106104
-0.0106068
-0.0106055
-0.0114073
-0.0113983
-0.0113982
-0.0113982
-0.0113999
-0.0114071
-0.0113979
-0.0113972
-0.0113964
-0.0113974
-0.0114091
-0.0113994
-0.0113979
-0.0113956
-0.0113958
-0.0114108
-0.0114008
-0.0113983
-0.0113951
-0.0113947
-0.0114188
-0.0114086
-0.0114058
-0.0114021
-0.0114013
-0.0121074
-0.0120983
-0.0121034
-0.0121158
-0.0121285
-0.0121069
-0.0120971
-0.0121005
-0.0121055
-0.0121142
-0.0121088
-0.012098
-0.012099
-0.0120983
-0.0120995
-0.01211
-0.0120982
-0.012097
-0.0120944
-0.0120946
-0.0121199
-0.0121078
-0.0121055
-0.0121019
-0.0121016
-0.0128
-0.0127942
-0.0128071
-0.0128155
-0.0128216
-0.0127987
-0.0127905
-0.0127977
-0.0128075
-0.0128136
-0.0128005
-0.012789
-0.0127928
-0.0127956
-0.0128031
-0.0128012
-0.0127871
-0.0127888
-0.0127873
-0.012789
-0.0128163
-0.0127985
-0.0127966
-0.0127926
-0.0127934
-0.0133566
-0.0133455
-0.0133417
-0.0133348
-0.0133299
-0.0133569
-0.0133421
-0.0133415
-0.0133355
-0.0133326
-0.0133618
-0.0133421
-0.0133426
-0.0133387
-0.0133368
-0.013371
-0.0133441
-0.0133412
-0.0133387
-0.0133399
-0.0134051
-0.0133678
-0.0133568
-0.0133493
-0.0133485
-0.013804
-0.0137712
-0.0137526
-0.0137311
-0.0137197
-0.0138085
-0.0137743
-0.0137562
-0.013737
-0.0137267
-0.0138273
-0.0137825
-0.0137693
-0.0137509
-0.0137433
-0.0138504
-0.0137988
-0.0137788
-0.0137658
-0.0137588
-0.0138915
-0.0138453
-0.0138189
-0.0137955
-0.0137878
-0.0140848
-0.0140083
-0.0139441
-0.0138964
-0.013837
-0.0140989
-0.0140235
-0.0139679
-0.0139271
-0.0138898
-0.0141262
-0.0140486
-0.0140006
-0.0139605
-0.0139307
-0.0141569
-0.0140909
-0.0140435
-0.0140111
-0.0139906
-0.0142084
-0.014151
-0.0141152
-0.0140803
-0.0140615
-0.0142675
-0.0141537
-0.0140796
-0.0140198
-0.0139684
-0.014274
-0.0141714
-0.0141035
-0.0140601
-0.014011
-0.0142952
-0.0142028
-0.0141439
-0.0140964
-0.0140658
-0.01432
-0.0142457
-0.014197
-0.0141583
-0.0141341
-0.0143791
-0.0143134
-0.0142832
-0.0142549
-0.0142417
-0.0143185
-0.0141576
-0.0140039
-0.0139402
-0.0137468
-0.0143257
-0.0141908
-0.0140775
-0.0140284
-0.0139275
-0.0143452
-0.0142262
-0.014129
-0.0140692
-0.0139869
-0.014376
-0.0142792
-0.0142202
-0.0141763
-0.0141367
-0.0144543
-0.0143677
-0.0143309
-0.0143038
-0.0142921
-0.0143271
-0.01418
-0.0140869
-0.0140271
-0.0138788
-0.0143259
-0.0142172
-0.0141329
-0.0141551
-0.0140066
-0.014339
-0.014225
-0.0141645
-0.0141274
-0.0140743
-0.0143548
-0.014263
-0.0142187
-0.0142041
-0.0141603
-0.0144379
-0.0143466
-0.014325
-0.0143045
-0.0143051
-0.0142932
-0.0141194
-0.0139101
-0.0139416
-0.0135342
-0.0142967
-0.0141423
-0.014009
-0.013975
-0.0139015
-0.0143242
-0.0141596
-0.0140569
-0.014004
-0.0138903
-0.0143625
-0.0142346
-0.0141521
-0.0141248
-0.0140905
-0.0144639
-0.0143521
-0.0143058
-0.0142681
-0.0142549
-0.0142138
-0.013976
-0.0137835
-0.0135732
-0.0124645
-0.0142212
-0.0141082
-0.0139124
-0.0142158
-0.0135178
-0.0142425
-0.0140833
-0.0139497
-0.0139127
-0.0137636
-0.0142722
-0.0141667
-0.0140749
-0.0140898
-0.0139329
-0.0143746
-0.0142626
-0.014225
-0.0141897
-0.0141736
-0.0142038
-0.0139582
-0.0136981
-0.013283
-0.0117241
-0.0141741
-0.0140103
-0.0137205
-0.0135875
-0.0121313
-0.0142354
-0.0140132
-0.0138949
-0.013705
-0.0135971
-0.014268
-0.0141276
-0.0140006
-0.0139805
-0.0138887
-0.0143925
-0.0142554
-0.0142096
-0.014131
-0.0141358
-0.0140865
-0.0140504
-0.0140476
-0.0140621
-0.0172005
-0.0140539
-0.0139956
-0.0139828
-0.0138759
-0.0147823
-0.0140567
-0.0139763
-0.0139145
-0.013961
-0.0140037
-0.0140763
-0.0139984
-0.0139634
-0.0139673
-0.0140001
-0.0141756
-0.014065
-0.0140355
-0.014018
-0.0140365
-0.0141075
-0.0138715
-0.013789
-0.0134781
-0.0139167
-0.0140328
-0.0139006
-0.0137265
-0.0137152
-0.0136153
-0.014068
-0.0139093
-0.0138402
-0.0137072
-0.0137442
-0.0140868
-0.0139817
-0.013894
-0.0138671
-0.0138111
-0.0141871
-0.0140734
-0.0140383
-0.0139863
-0.0140344
-0.0136748
-0.0134831
-0.0133757
-0.0135609
-0.0130653
-0.0136094
-0.013498
-0.0133903
-0.0132159
-0.0130029
-0.0136392
-0.0135355
-0.0134603
-0.0133753
-0.0133432
-0.0136641
-0.0135883
-0.0135235
-0.0134749
-0.0134405
-0.0137527
-0.0136546
-0.0136146
-0.0135637
-0.0136221
-0.0137964
-0.0136922
-0.0138562
-0.0135996
-0.0122921
-0.01371
-0.0136659
-0.0136979
-0.0135126
-0.0132991
-0.0137233
-0.013675
-0.0137222
-0.0136815
-0.0138205
-0.0137246
-0.0136822
-0.0136681
-0.0136456
-0.0136529
-0.0137708
-0.013716
-0.0137005
-0.013674
-0.013746
-0.0131119
-0.0130908
-0.0132573
-0.0133964
-0.0147332
-0.0130618
-0.0130818
-0.0131245
-0.0132543
-0.0139224
-0.0130488
-0.0130633
-0.0131113
-0.0131112
-0.0132269
-0.0130322
-0.0130367
-0.0130601
-0.0130674
-0.0130717
-0.0130347
-0.0130265
-0.0130389
-0.0130428
-0.0130798
-0.0130825
-0.0130105
-0.0132107
-0.013024
-0.0128553
-0.0130677
-0.0130784
-0.0130854
-0.013263
-0.0130713
-0.0130388
-0.0130691
-0.0130896
-0.0130737
-0.0131933
-0.0130449
-0.0130673
-0.0130644
-0.0130677
-0.0129934
-0.0130209
-0.0130428
-0.0130327
-0.0130537
-0.013061
-0.0120633
-0.0120367
-0.0121214
-0.0121701
-0.0120575
-0.0120357
-0.0120619
-0.0121115
-0.0121907
-0.0121694
-0.0120117
-0.0120414
-0.0120985
-0.0121036
-0.0121099
-0.0119846
-0.0120102
-0.0120358
-0.0120482
-0.0120225
-0.0119675
-0.0119805
-0.0120025
-0.0120195
-0.0120446
-0.0116294
-0.011625
-0.0115978
-0.0116454
-0.0116322
-0.011648
-0.0116598
-0.0116383
-0.0116663
-0.0116454
-0.0116361
-0.0116602
-0.0116268
-0.0116234
-0.0115874
-0.0116476
-0.0116625
-0.0116491
-0.011644
-0.0116112
-0.0116355
-0.0116457
-0.0116266
-0.0116381
-0.0116193
-0.0098056
-0.00979096
-0.00982025
-0.00988649
-0.0098616
-0.00982897
-0.00982598
-0.00982775
-0.00987984
-0.00988087
-0.00984589
-0.00983916
-0.0098028
-0.00979978
-0.00980625
-0.00986745
-0.00986121
-0.00982598
-0.00980303
-0.00978112
-0.00987331
-0.00986351
-0.00983487
-0.0098162
-0.00979981
-0.00883124
-0.0088608
-0.00890637
-0.00908623
-0.00920038
-0.00883878
-0.00886366
-0.00888504
-0.00898991
-0.0090823
-0.00882823
-0.00884638
-0.00884244
-0.00887897
-0.00890171
-0.00882855
-0.0088392
-0.00883713
-0.00884749
-0.00885501
-0.00882575
-0.00882781
-0.00882115
-0.00883032
-0.00882807
-0.00636055
-0.00638857
-0.00644904
-0.00652702
-0.00657923
-0.00634244
-0.00636697
-0.00643702
-0.00649568
-0.00652595
-0.00631736
-0.00633211
-0.0063758
-0.00642219
-0.00644847
-0.00630138
-0.00631105
-0.0063304
-0.00636747
-0.00638819
-0.00629532
-0.00630083
-0.00631739
-0.0063459
-0.00636056
-0.0052002
-0.0052345
-0.00531172
-0.00545199
-0.00553466
-0.00518879
-0.0052168
-0.00527416
-0.00539388
-0.00545527
-0.00517344
-0.00519354
-0.00522323
-0.00528929
-0.00531912
-0.00516647
-0.00518122
-0.00520163
-0.0052332
-0.00524247
-0.00516572
-0.00516996
-0.00518135
-0.00520066
-0.00520842
-0.00216874
-0.00217386
-0.00219496
-0.00218221
-0.00214856
-0.00214951
-0.00215568
-0.00218265
-0.00221259
-0.00219048
-0.00213015
-0.00214322
-0.00217675
-0.00221488
-0.00220768
-0.00212638
-0.00212703
-0.00215564
-0.00217533
-0.00218464
-0.0021296
-0.00212888
-0.00213849
-0.00215811
-0.00217678
-0.00115593
-0.00118478
-0.00121184
-0.00133862
-0.00144865
-0.00115246
-0.00117601
-0.00118953
-0.00124835
-0.00134175
-0.00114776
-0.00116228
-0.00117233
-0.00119861
-0.00121811
-0.00114733
-0.00115813
-0.00116637
-0.00118385
-0.00118948
-0.0011488
-0.00114934
-0.00115169
-0.00115817
-0.00116016
-0.0155311
-0.0136619
-0.0147012
-0.0131829
-0.0137071
-0.0117242
-0.0131488
-0.0131811
-0.0136235
-0.0122825
-0.0155439
-0.0155263
-0.0147035
-0.0155185
-0.0115762
-0.0142013
-0.0130829
-0.0107763
-0.0116801
-0.0131284
-0.0107344
-0.0142355
-0.0138662
-0.0139468
-0.0127559
-0.0125144
-0.013378
-0.0127243
-0.0137825
-0.0135214
-0.0136266
-0.0135721
-0.0134196
-0.0136558
-0.0134826
-0.0137847
-0.0135487
-0.013481
-0.0134707
-0.0134077
-0.0136428
-0.0135482
-0.0141952
-0.0131553
-0.0139223
-0.0131031
-0.0134968
-0.0126041
-0.013402
-0.014165
-0.0131706
-0.0133948
-0.0134147
-0.013478
-0.0126117
-0.013099
-0.0149085
-0.0143395
-0.0172548
-0.0144718
-0.0149765
-0.0128394
-0.0145417
-0.013087
-0.0141249
-0.0141456
-0.0142904
-0.0139436
-0.0137694
-0.0137787
-0.0142011
-0.0141153
-0.0136936
-0.0134315
-0.0140805
-0.0128901
-0.0145655
-0.0142258
-0.0141462
-0.0137079
-0.0134539
-0.0140988
-0.0129138
-0.0145872
-0.0139622
-0.0149819
-0.0149642
-0.0158012
-0.0146059
-0.0148961
-0.0148735
-0.0148309
-0.0151355
-0.0143926
-0.0135443
-0.0149516
-0.0130324
-0.0156346
-0.0148239
-0.0151169
-0.0143652
-0.0135226
-0.0149452
-0.0130271
-0.0156057
-0.0147842
-0.0148114
-0.014405
-0.0152383
-0.0151788
-0.0152498
-0.0152844
-0.0147704
-0.0138423
-0.0142103
-0.0139847
-0.0147163
-0.013604
-0.0143091
-0.0148936
-0.013988
-0.0140917
-0.0142156
-0.0147856
-0.0136111
-0.0140015
-0.0151651
-0.0140518
-0.014784
-0.0153738
-0.0150479
-0.0148304
-0.0156481
-0.0152242
-0.0141038
-0.0148212
-0.0154366
-0.0151565
-0.014947
-0.0157272
-0.0152439
-0.0141878
-0.0141797
-0.0125963
-0.0150065
-0.013829
-0.0138275
-0.0144639
-0.0144839
-0.016447
-0.0159509
-0.0142109
-0.0147412
-0.0148118
-0.0155302
-0.0155183
-0.0153978
-0.0153413
-0.0150445
-0.0151804
-0.0151713
-0.0138594
-0.0134134
-0.0133124
-0.0137576
-0.0149592
-0.0139607
-0.0142259
-0.0138419
-0.0134024
-0.0135714
-0.0142098
-0.0149371
-0.013951
-0.013726
-0.0156289
-0.0152927
-0.0154127
-0.0155527
-0.0165576
-0.0163378
-0.0154056
-0.0156104
-0.0152841
-0.0154065
-0.0155487
-0.0165393
-0.0163279
-0.0153877
-0.00286755
-0.0129764
-0.0116801
-0.0144548
-0.0134468
-0.013706
-0.0144752
-0.0158885
-0.015417
-0.0154372
-0.0153358
-0.0159453
-0.0156105
-0.0156464
-0.0160752
-0.0163622
-0.0162771
-0.0159636
-0.0167361
-0.0157425
-0.0160715
-0.0151328
-0.0151383
-0.0160189
-0.0165032
-0.0145947
-0.0150485
-0.0150343
-0.0161776
-0.0164121
-0.016522
-0.0161016
-0.016834
-0.0160145
-0.0161617
-0.0145873
-0.0136608
-0.0134312
-0.014392
-0.0144454
-0.0140571
-0.0141165
-0.0146468
-0.0137159
-0.0134732
-0.0145189
-0.0145894
-0.0141189
-0.0142072
-0.0168355
-0.0152606
-0.0153142
-0.0146739
-0.0177481
-0.0150187
-0.0153956
-0.0147355
-0.0133759
-0.0133667
-0.0143049
-0.0135978
-0.0145034
-0.0144943
-0.0143645
-0.0136839
-0.0138732
-0.0138656
-0.0136882
-0.0135646
-0.0138642
-0.0151861
-0.0138034
-0.0128112
-0.0156897
-0.0142205
-0.0150206
-0.0149199
-0.015181
-0.0138087
-0.0128081
-0.0156492
-0.0142831
-0.0150153
-0.0149045
-0.0137982
-0.0148002
-0.0136736
-0.0143667
-0.0142851
-0.0141161
-0.014292
-0.0148045
-0.0137745
-0.0136729
-0.0143386
-0.0142501
-0.0140967
-0.0142658
-0.0142754
-0.0142638
-0.0151351
-0.0125396
-0.0103415
-0.0116287
-0.0115159
-0.0121065
-0.0134115
-0.012951
-0.0139632
-0.0151346
-0.0134298
-0.0140808
-0.0118857
-0.0134051
-0.0132357
-0.0128277
-0.01506
-0.0139407
-0.0139485
-0.0161023
-0.0139251
-0.0139339
-0.0139322
-0.0130424
-0.0145885
-0.0145702
-0.0147142
-0.0147674
-0.014501
-0.0140309
-0.0143816
-0.0140862
-0.0141792
-0.0149892
-0.0149798
-0.0150526
-0.014236
-0.0144314
-0.0139717
-0.0143196
-0.0157601
-0.0141001
-0.0168324
-0.0141814
-0.0122868
-0.0133596
-0.0144185
-0.0157796
-0.0143045
-0.0168669
-0.0141131
-0.01233
-0.0135213
-0.0144005
-0.0148642
-0.0152683
-0.016214
-0.0132899
-0.0135927
-0.0143052
-0.014716
-0.0133257
-0.0134453
-0.0135093
-0.0136833
-0.0137304
-0.0136273
-0.0136779
-0.0117836
-0.011772
-0.0116249
-0.0113023
-0.0100003
-0.0104596
-0.0104362
-0.0146759
-0.0141512
-0.0147546
-0.0141369
-0.0139131
-0.0142847
-0.0138007
-0.012548
-0.0133633
-0.0130103
-0.0129589
-0.0126299
-0.0135606
-0.0125978
-0.0124974
-0.0133411
-0.0135264
-0.0125803
-0.0125936
-0.0135384
-0.0129218
-0.0119872
-0.012103
-0.0112547
-0.0099527
-0.0121228
-0.0127969
-0.00930733
-0.0120022
-0.0121343
-0.0115826
-0.00974276
-0.0121476
-0.0127982
-0.00930943
-0.0136489
-0.0140185
-0.0139734
-0.0132462
-0.0133295
-0.0136349
-0.0137918
-0.0136196
-0.0139865
-0.0139788
-0.0132058
-0.0133027
-0.0136273
-0.0137543
-0.00956171
-0.0136489
-0.0124694
-0.0131178
-0.00501802
-0.0131058
-0.0129516
-0.00937263
-0.00568278
-0.00599808
-0.00477646
-0.00624127
-0.00676133
-0.00621927
-0.0130068
-0.0129108
-0.0105896
-0.00957612
-0.0139179
-0.0123732
-0.0124399
-0.0112148
-0.00764987
-0.0122007
-0.0123222
-0.00898672
-0.0129976
-0.0105053
-0.0111506
-0.0077238
-0.0121495
-0.0122337
-0.00892404
-0.0129281
-0.0103757
-0.0150608
-0.0135688
-0.0134891
-0.0146526
-0.0141828
-0.01362
-0.0135322
-0.0149789
-0.0133934
-0.0130346
-0.0144857
-0.0139526
-0.0130955
-0.0133083
-0.0115827
-0.0124234
-0.0123886
-0.0128593
-0.0110561
-0.0127821
-0.0127501
-0.0131235
-0.0134513
-0.0137841
-0.013394
-0.0133243
-0.0132474
-0.0131341
-0.0131309
-0.0134602
-0.0138014
-0.0134079
-0.0133429
-0.0132725
-0.0131478
-0.0107848
-0.0121024
-0.0120372
-0.0103485
-0.0126114
-0.0105853
-0.0106705
-0.0104264
-0.0118941
-0.0139131
-0.012155
-0.0123685
-0.0126942
-0.00979957
-0.0103962
-0.0119159
-0.013984
-0.0122403
-0.0126306
-0.012785
-0.0098083
-0.0124105
-0.0129919
-0.0132475
-0.0122891
-0.0121638
-0.0133285
-0.0132491
-0.0124434
-0.0129516
-0.0132536
-0.0122701
-0.0121375
-0.0132746
-0.013217
-0.0128725
-0.013378
-0.0136771
-0.0139794
-0.0138429
-0.0134234
-0.0141329
-0.0142997
-0.0135761
-0.0140104
-0.0136888
-0.0135295
-0.0140359
-0.0137278
-0.00913238
-0.0135697
-0.0136206
-0.0147106
-0.0124397
-0.0124621
-0.0125206
-0.00532333
-0.00571954
-0.00624507
-0.0125661
-0.0148934
-0.0144716
-0.0138527
)
;

boundaryField
{
    inlet
    {
        type            fixedValue;
        value           uniform 0;
    }
    wall
    {
        type            zeroGradient;
    }
    outlet
    {
        type            fixedValue;
        value           uniform 0;
    }
    procBoundary2to0
    {
        type            processor;
        value           nonuniform List<scalar> 
320
(
-0.000409095
-0.000408748
-0.000408718
-0.000408577
-0.000408601
-0.000791735
-0.000791622
-0.000791538
-0.000791477
-0.000791441
-0.00191333
-0.0019129
-0.00191273
-0.00191249
-0.00191242
-0.00245425
-0.00245388
-0.00245364
-0.0024534
-0.00245328
-0.00350451
-0.00350389
-0.00350356
-0.00350318
-0.00350301
-0.0041191
-0.00411837
-0.00411794
-0.00411749
-0.00411728
-0.0051046
-0.00510355
-0.00510298
-0.00510237
-0.0051021
-0.00577206
-0.0057707
-0.00576994
-0.00576916
-0.00576882
-0.00670626
-0.00670438
-0.00670337
-0.00670232
-0.00670188
-0.00741108
-0.00740855
-0.00740718
-0.00740583
-0.00740527
-0.00830176
-0.0082983
-0.00829653
-0.00829476
-0.00829408
-0.00902957
-0.00902484
-0.00902246
-0.00902013
-0.00901926
-0.00987817
-0.00987196
-0.00986924
-0.00986649
-0.0098656
-0.0106109
-0.0106028
-0.0105999
-0.0105967
-0.0105958
-0.0114075
-0.0113989
-0.011399
-0.0113994
-0.0114009
-0.0121077
-0.0120989
-0.0121038
-0.0121161
-0.0121288
-0.0128004
-0.0127949
-0.0128077
-0.0128165
-0.0128227
-0.0133574
-0.013347
-0.0133435
-0.0133374
-0.0133331
-0.0138044
-0.0137729
-0.0137549
-0.0137346
-0.0137238
-0.0140849
-0.0140099
-0.0139466
-0.0139005
-0.0138423
-0.0142673
-0.0141555
-0.0140826
-0.0140247
-0.0139746
-0.0143185
-0.0141601
-0.0140077
-0.0139469
-0.0137556
-0.0143271
-0.0141831
-0.0140915
-0.0140343
-0.0138908
-0.0142937
-0.0141242
-0.0139161
-0.0139535
-0.0135649
-0.0142139
-0.0139817
-0.0137934
-0.0135865
-0.0124605
-0.0142025
-0.0139646
-0.0137081
-0.0132945
-0.0117426
-0.0140851
-0.0140546
-0.0140532
-0.014069
-0.0171847
-0.0141065
-0.0138741
-0.0137921
-0.0134797
-0.0139167
-0.0136737
-0.0134838
-0.0133758
-0.0135538
-0.0130676
-0.0137945
-0.0136899
-0.0138546
-0.013602
-0.012296
-0.0131087
-0.013091
-0.0132478
-0.013392
-0.0147228
-0.013081
-0.0130164
-0.0132316
-0.0130708
-0.0129345
-0.0120582
-0.0120355
-0.0121183
-0.0121693
-0.0120283
-0.0116209
-0.0116127
-0.0115858
-0.0116429
-0.0116481
-0.00979439
-0.0097761
-0.0097987
-0.00987825
-0.00985784
-0.00881856
-0.00884512
-0.00889191
-0.00907339
-0.00919643
-0.00635955
-0.0063868
-0.00643833
-0.00651617
-0.00657359
-0.00520173
-0.00523936
-0.00530743
-0.00543761
-0.00552842
-0.00217062
-0.00217725
-0.00220469
-0.00218086
-0.00214691
-0.00115265
-0.00118386
-0.0012196
-0.00135117
-0.00145161
-0.0131852
-0.0137488
-0.0155411
-0.0155294
-0.0155295
-0.0131889
-0.0107549
-0.01169
-0.0115728
-0.0127518
-0.012489
-0.0142243
-0.0135654
-0.0134183
-0.013778
-0.0130861
-0.013519
-0.0141885
-0.0144619
-0.0149797
-0.0148976
-0.0141219
-0.0137815
-0.0143072
-0.0134501
-0.014569
-0.0141045
-0.0149826
-0.0149024
-0.0158141
-0.0135437
-0.0156331
-0.0151292
-0.0151687
-0.015238
-0.0147822
-0.0139858
-0.0147063
-0.0147551
-0.01515
-0.0156236
-0.0150287
-0.0150466
-0.0151761
-0.0155226
-0.0137576
-0.0149559
-0.0138669
-0.0156092
-0.0153955
-0.0165533
-0.0144405
-0.0134502
-0.00300004
-0.0153998
-0.0155887
-0.0153192
-0.0159389
-0.0160458
-0.0163438
-0.0143776
-0.0141085
-0.0136544
-0.0133863
-0.0145038
-0.0143088
-0.0156735
-0.0149147
-0.0138174
-0.0143588
-0.0142892
-0.0137966
-0.0103806
-0.011631
-0.014265
-0.0139812
-0.0151259
-0.0121194
-0.0143728
-0.0141667
-0.0147502
-0.0157374
-0.0143877
-0.012271
-0.00999216
-0.0104587
-0.0118073
-0.0129599
-0.0126207
-0.012532
-0.0120138
-0.00933251
-0.012125
-0.0132471
-0.0137844
-0.0140061
-0.0131105
-0.00497379
-0.00950275
-0.00571961
-0.00678531
-0.00488874
-0.0123305
-0.0105036
-0.00766694
-0.0146545
-0.0135347
-0.013562
-0.012102
-0.0107094
-0.0103892
-0.0122055
-0.00985745
-0.0119253
-0.0122964
-0.0132519
-0.0129801
-0.0149392
-0.0144721
-0.00533728
)
;
    }
    procBoundary2to3
    {
        type            processor;
        value           nonuniform List<scalar> 
320
(
-0.000408451
-0.000408469
-0.000408441
-0.000408471
-0.000408524
-0.000791361
-0.000791335
-0.000791305
-0.0007913
-0.000791265
-0.00191215
-0.00191211
-0.00191205
-0.00191207
-0.00191212
-0.00245301
-0.00245295
-0.00245291
-0.00245293
-0.00245298
-0.00350261
-0.00350253
-0.0035025
-0.00350255
-0.0035027
-0.00411684
-0.00411676
-0.00411676
-0.00411686
-0.00411711
-0.00510154
-0.00510144
-0.00510147
-0.00510165
-0.00510207
-0.00576821
-0.00576814
-0.00576827
-0.00576857
-0.00576923
-0.00670108
-0.00670106
-0.00670131
-0.00670177
-0.00670278
-0.00740437
-0.0074044
-0.00740486
-0.00740559
-0.00740721
-0.00829297
-0.00829301
-0.00829366
-0.00829467
-0.00829699
-0.00901805
-0.00901822
-0.00901934
-0.00902082
-0.00902421
-0.00986402
-0.00986415
-0.00986541
-0.00986712
-0.00987161
-0.010594
-0.010594
-0.0105958
-0.0105976
-0.0106039
-0.0113984
-0.0113956
-0.0113937
-0.0113926
-0.0113988
-0.0121281
-0.0121135
-0.0120973
-0.0120918
-0.0120982
-0.0128202
-0.0128121
-0.0128014
-0.0127857
-0.0127891
-0.0133244
-0.0133272
-0.0133315
-0.0133349
-0.0133426
-0.0137136
-0.0137203
-0.0137359
-0.0137506
-0.0137795
-0.0138293
-0.0138815
-0.0139219
-0.0139814
-0.0140521
-0.0139595
-0.0140021
-0.0140562
-0.0141247
-0.01423
-0.0137339
-0.0139131
-0.0139748
-0.0141234
-0.0142766
-0.0138618
-0.0139923
-0.0140627
-0.0141486
-0.014284
-0.013501
-0.0138801
-0.0138833
-0.0140729
-0.0142312
-0.00961421
-0.013512
-0.0137593
-0.0139068
-0.0141352
-0.00273021
-0.0118572
-0.0135872
-0.0138455
-0.014096
-0.014917
-0.0148639
-0.0139996
-0.0139512
-0.0139937
-0.0142451
-0.0137541
-0.0137034
-0.0137729
-0.014006
-0.0115634
-0.012484
-0.0133084
-0.0134075
-0.0135907
-0.0131703
-0.0137958
-0.0138047
-0.0136323
-0.0137237
-0.0155178
-0.0141614
-0.0132138
-0.0130523
-0.01306
-0.0128187
-0.013065
-0.0131671
-0.0129801
-0.0130445
-0.012083
-0.012163
-0.0121014
-0.0120105
-0.0120308
-0.0116187
-0.0116405
-0.0115842
-0.0116096
-0.0116206
-0.00985748
-0.00987762
-0.0098021
-0.00978073
-0.00979927
-0.00919892
-0.00907647
-0.00890003
-0.008855
-0.0088311
-0.006575
-0.00651943
-0.00644332
-0.00638823
-0.0063611
-0.00553154
-0.00544191
-0.00531308
-0.00524377
-0.0052087
-0.00214832
-0.00218409
-0.00220467
-0.00217989
-0.00217446
-0.00145259
-0.00135156
-0.00122135
-0.00118634
-0.00115707
-0.01469
-0.0131577
-0.0136971
-0.0121681
-0.0155169
-0.0155172
-0.0132338
-0.010869
-0.0116696
-0.0139468
-0.0126909
-0.0125223
-0.0134851
-0.0135174
-0.0133784
-0.0134032
-0.0130994
-0.0134788
-0.0172636
-0.0145626
-0.0149876
-0.014146
-0.0137627
-0.0142844
-0.0134339
-0.0145815
-0.0141528
-0.0149516
-0.0148695
-0.0157932
-0.0135184
-0.015599
-0.0151051
-0.0151925
-0.0152998
-0.0148255
-0.0141589
-0.0140395
-0.0148108
-0.0152521
-0.0157601
-0.0151869
-0.0150375
-0.0151608
-0.015506
-0.0135601
-0.013721
-0.0149396
-0.0155968
-0.015371
-0.0165277
-0.0116571
-0.0144985
-0.0134411
-0.0154468
-0.0156627
-0.0153511
-0.0161309
-0.0161819
-0.0164178
-0.0145343
-0.0142355
-0.0137399
-0.0133466
-0.0144828
-0.0142972
-0.0156562
-0.0148909
-0.0137615
-0.0143269
-0.0142762
-0.0137912
-0.0103006
-0.011508
-0.0142681
-0.0131879
-0.0138723
-0.015047
-0.0144352
-0.0143322
-0.0149853
-0.0157943
-0.0144291
-0.0123159
-0.00999868
-0.0104174
-0.0117527
-0.0135001
-0.0129
-0.0126057
-0.0131731
-0.0137626
-0.0139842
-0.0119626
-0.00929393
-0.0121441
-0.012473
-0.0129614
-0.00505784
-0.00595042
-0.0061924
-0.00466386
-0.012217
-0.0103567
-0.00768867
-0.0144677
-0.0132734
-0.0133672
-0.0120462
-0.0105993
-0.0102978
-0.0121468
-0.00974117
-0.0119107
-0.0122799
-0.0131444
-0.0129885
-0.0148442
-0.0138503
-0.0056964
)
;
    }
}


// ************************************************************************* //
