/*--------------------------------*- C++ -*----------------------------------*\
| =========                 |                                                 |
| \\      /  F ield         | OpenFOAM: The Open Source CFD Toolbox           |
|  \\    /   O peration     | Version:  5.x                                   |
|   \\  /    A nd           | Web:      www.OpenFOAM.org                      |
|    \\/     M anipulation  |                                                 |
\*---------------------------------------------------------------------------*/
FoamFile
{
    version     2.0;
    format      ascii;
    class       volScalarField;
    location    "0.033";
    object      interFace;
}
// * * * * * * * * * * * * * * * * * * * * * * * * * * * * * * * * * * * * * //

dimensions      [0 0 0 0 0 0 0];

internalField   nonuniform List<scalar> 
1581
(
0
0
0
0
0
0
0
0
0
0
0
0
0
0
0
0
0
0
0
0
0
0
0
0
0
0
0
0
0
0
0
0
0
0
0
0
0
0
0
0
0
0
0
0
0
0
0
0
0
0
0
0
0
0
0
0
0
0
0
0
0
0
0
0
0
0
0
0
0
0
0
0
0
0
0
0
0
0
0
0
0
0
0
0
0
0
0
0
0
0
0
0
0
0
0
0
0
0
0
0
0
0
0
0
0
0
0
0
0
0
0
0
0
0
0
0
0
0
0
0
0
0
0
0
0
0
0
0
0
0
0
0
0
0
0
0
0
0
0
0
0
0
0
0
0
0
0
0
0
0
0
0
0
0
0
0
0
0
0
0
0
0
0
0
0
0
0
0
0
0
0
0
0
0
0
0
0
0
0
0
0
0
0
0
0
0
0
0
0
0
0
0
0
0
0
0
0
0
0
0
0
0
0
0
0
0
0
0
0
0
0
0
0
0
0
0
0
0
0
0
0
0
0
0
0
0
0
0
0
0
0
0
0
0
0
0
0
0
0
0
0
0
0
0
0
0
0
0
0
0
0
0
0
0
0
0
0
0
0
0
0
0
0
0
0
0
0
0
0
0
0
0
0
0
0
0
0
0
0
0
0
0
0
0
0
0
0
0
0
0
0
0
0
0
0
0
0
0
0
0
0
0
0
0
0
0
0
0
0
0
0
0
0
0
0
0
0
0
0
0
0
0
0
0
0
0
0
0
0
0
0
0
0
0
0
0
0
0
0
0
0
0
0
0
0
0
0
0
0
0
0
0
0
0
0
0
0
0
0
0
0
0
0
0
0
0
0
0
0
0
0
0
0
0
0
0
0
0
0
0
0
0
0
0
0
0
0
0
0
0
0
0
0
0
0
0
0
0
0
0
0
0
0
0
0
0
0
0
0
0
0
0
0
0
0
0
0
0
0
0
0
0
0
0
0
0
0
0
0
0
0
0
0
0
0
0
0
0
0
0
0
0
0
0
0
0
0
0
0
0
0
0
0
0
0
0
0
0
0
0
0
0
0
0
0
0
0
0
0
0
0
0
0
0
0
0
0
0
0
0
0
0
0
0
0
0
0
0
0
0
0
0
0
0
0
0
0
0
0
0
0
0
0
0
0
0
0
0
0
0
0
0
0
0
0
0
0
0
0
0
0
0
0
0
0
0
0
0
0
0
0
0
0
0
0
0
0
0
0
0
0
0
0
0
0
0
0
0
0
0
0
0
0
0
0
0
0
0
0
0
0
0
0
0
0
0
0
0
0
0
0
0
0
0
0
0
0
0
0
0
0
0
0
0
0
0
0
0
0
0
0
0
0
0
0
0
0
0
0
0
0
0
0
0
0
0
0
0
0
0
0
0
0
0
0
0
0
0
0
0
0
0
0
0
0
0
0
0
0
0
0
0
0
0
0
0
0
0
0
0
0
0
0
0
0
0
0
0
0
0
0
0
0
0
0
0
0
0
0
0
0
0
0
0
0
0
0
0
0
0
0
0
0
0
0
0
0
0
0
0
0
0
0
0
0
0
0
0
0
0
0
0
0
0
0
0
0
0
0
0
0
0
0
0
0
0
0
0
0
0
0
0
0
0
0
0
0
0
0
0
0
0
0
0
0
0
0
0
0
0.813155
0
0
0
0
0
0
0
0
0
0
0
0
0
0
0
0
0
0
0
0
0
0
0
0
0.339437
0
0
0
0
0.787653
0
0
0
0
0
0
0
0
0
0
0
0
0
0
0
0
0
0
0
0.406327
0
0
0
0
0.946945
0
0
0
0
0
0
0
0
0
0
0
0
0
0
0
0
0
0
0
0
0
0
0
0
0
0
0
0
0
0
0
0
0
0
0
0
0
0
0
0
0
0
0
0
0.502738
0
0
0
0
0.919536
0
0
0
0
0
0
0
0
0
0
0
0
0
0
0
0
0
0
0
0.296249
0
0
0
0
0.74446
0
0
0
0
0
0
0
0
0
0
0
0
0
0
0
0
0
0
0
0.865118
0
0
0
0
0
0
0
0
0
0
0
0
0
0
0
0
0
0
0
0
0
0
0
0
0
0
0
0
0
0
0
0
0
0
0
0
0
0
0
0
0
0
0
0
0
0
0
0
0
0
0
0
0
0
0
0
0
0
0
0
0
0
0
0
0
0
0
0
0
0
0
0
0
0
0
0
0
0
0
0
0
0
0
0
0
0
0
0
0
0
0
0
0
0
0
0
0
0
0
0
0
0
0
0
0
0
0
0
0
0
0
0
0
0
0
0
0
0
0
0
0.518717
0
0.787648
0
0.501653
0
0.770584
0.0705209
0.608368
0.339452
0.322374
0.0534576
0.591305
0.322389
0.518737
0
0
0.770589
0.501673
0
0
0.585607
0
0.946935
0
0
0
0
0.137411
0.675258
0.406342
0.92711
0.658194
0.935564
0.927125
0.585627
0
0
0
0
0
0
0
0
0
0.666411
0.397492
0.888316
0.666419
0.682019
0
0.919531
0
0.459921
0
0.728849
0.233818
0.771665
0.502746
0.280641
0.0117213
0.549568
0.280649
0.682029
0
0
0.728852
0.459932
0
0
0.47553
0
0.744458
0
0.833898
0
0
0.0273299
0.565177
0.296257
0.611999
0.343079
0.880926
0.612007
0
0
0
0
0
0
0
0.475541
0
0
0
0.833909
0
0
0.53797
0
0.865124
0
0
0
0
0.445465
0.271868
0.45115
0.535101
0.316691
0.579924
0.400642
0.26704
0.161789
0.341071
0.356678
0.206611
0.4015
0.222218
0.193605
0.283241
0.187914
0.367197
0.328064
0.232738
0.148782
0.103966
0.0143248
0.0982757
0.0982807
0.143099
0.0591429
0.059148
0.283248
0.552172
0.45684
0.456845
0.417708
0.417713
0.322381
0.19361
0.283256
0.187924
0.367207
0.328074
0.232743
0.148792
0.983304
0.809707
0.63043
0.71438
0.85453
0.759204
0.938481
0.355826
0.182229
0.182234
0.266185
0.227052
0.311003
0.311008
0.535108
0.540794
0.540799
0.804032
0.406335
0.669568
0.669573
0.44547
0.271878
0.45116
0.535116
0.316696
0.579934
0.400652
0.619059
0.708695
0.792651
0.971933
0.753518
0.837474
0.574236
0.52942
0.439779
0.703012
0.703017
0.747835
0.484597
0.484602
0.619064
0.70871
0.792661
0.971943
0.753528
0.837479
0.574246
0.983324
0.630445
0.809732
0.714401
0.85455
0.759219
0.938506
0.220214
0.309852
0.14618
0.325462
0.354674
0.191002
0.175392
0.130574
0.0409331
0.0565405
0.0565432
0.101362
0.0857523
0.085755
0.220217
0.309861
0.146186
0.325468
0.35468
0.191005
0.175397
0.804883
0.699631
0.520352
0.535959
0.744453
0.580781
0.760061
0.1774
0.0721492
0.0721519
0.0877592
0.116971
0.132578
0.132581
0.356683
0.430714
0.430716
0.625606
0.296253
0.491143
0.491146
0.267043
0.161794
0.341077
0.356687
0.206614
0.401506
0.222224
0.37229
0.461928
0.477538
0.656821
0.50675
0.52236
0.327468
0.28265
0.193009
0.387899
0.387901
0.43272
0.237828
0.237831
0.461932
0.730856
0.746463
0.746466
0.596393
0.596395
0.612003
0.372293
0.461936
0.477544
0.656826
0.506756
0.522363
0.327473
0.804893
0.52036
0.699645
0.53597
0.744464
0.580789
0.760074
0.867323
0.582789
0.582792
0.777682
0.627611
0.822501
0.822503
0.720759
0.992442
0.813165
0.434766
0.16585
0.703697
0.434781
0.109654
0.115339
0.115344
0.0200126
0.160162
0.0648307
0.0648357
0.199293
0.204978
0.38426
0.288929
0.249801
0.333752
0.154469
0.731444
0.462521
0.725754
0.546476
0.507344
0.770577
0.686621
0.199298
0.204988
0.38427
0.288944
0.249806
0.333762
0.154479
0.731464
0.462541
0.546492
0.725779
0.507359
0.770597
0.686646
0.309856
0.57878
0.415105
0.415108
0.444317
0.44432
0.280645
0.288936
0.473904
0.473909
0.55786
0.339445
0.423395
0.4234
0.894533
0.61
0.968564
0.804889
0.834104
0.670429
0
0.894525
0.609994
0.968559
0.804887
0.834096
0.670424
0
0.204607
0.278638
0.27864
0.114965
0.32346
0.159785
0.159787
0
0
0
0
0
0
0
0.821088
0.731452
0.63612
0.994685
0.596987
0.955552
0.86022
0.821103
0.731457
0.63613
0.994695
0.596997
0.955562
0.860236
0.294246
0.368277
0.54756
0.383885
0.413099
0.428707
0.249424
0.758057
0.489133
0.684023
0.504743
0.533955
0.728845
0.713235
0.294249
0.368283
0.547565
0.383893
0.413102
0.428712
0.24943
0.758067
0.489144
0.504751
0.684036
0.533963
0.728856
0.713248
0.210668
0.210673
0.255491
0.39564
0.305999
0.350817
0.350822
0
0
0
0
0.801774
0
0.981062
0
0
0
0.981072
0.801794
0
0
0.737132
0.742817
0.56354
0.468208
0.78764
0.513031
0.692309
0.737152
0.563555
0.742842
0.468228
0.78766
0.513047
0.692334
0.300307
0.479589
0.34513
0.485279
0.574915
0.619738
0.440456
0.300317
0.479599
0.345135
0.485284
0.57493
0.619748
0.440466
0.383889
0.637202
0.637205
0.652812
0.502742
0.518349
0.518352
0.569233
0.569238
0.434773
0.574923
0.843846
0.709382
0.709387
0
0
0
0
0
0
0
0.847699
0.758061
0.594386
0.95295
0.623598
0.982162
0.818487
0.847707
0.758063
0.594391
0.952956
0.623603
0.982167
0.818495
0.695627
0.605986
0.442311
0.442314
0.487133
0.650805
0.650808
0.826791
0.653194
0
0.737144
0.877299
0.602685
0.96125
0.826775
0.653183
0
0.737139
0.877284
0.602675
0.96124
0
0
0
0
0
0
0
0
0
0
0
0
0
0
0.785267
0.874905
0.531951
0.711233
0.919727
0.576773
0.740445
0.785269
0.874913
0.531956
0.711238
0.919732
0.576775
0.74045
0.832089
0.90612
0.72684
0.563166
0.950942
0.607988
0.787267
0.8321
0.726849
0.906133
0.563176
0.950953
0.607996
0.787281
0
0
0
0
0
0
0
0.58061
0.765578
0.765583
0.490969
0.810401
0.535787
0.535792
)
;

boundaryField
{
    inlet
    {
        type            calculated;
        value           uniform 0;
    }
    wall
    {
        type            calculated;
        value           uniform 0;
    }
    outlet
    {
        type            calculated;
        value           uniform 0;
    }
    procBoundary2to0
    {
        type            processor;
        value           uniform 0;
    }
    procBoundary2to3
    {
        type            processor;
        value           uniform 0;
    }
}


// ************************************************************************* //
