/*--------------------------------*- C++ -*----------------------------------*\
| =========                 |                                                 |
| \\      /  F ield         | OpenFOAM: The Open Source CFD Toolbox           |
|  \\    /   O peration     | Version:  5.x                                   |
|   \\  /    A nd           | Web:      www.OpenFOAM.org                      |
|    \\/     M anipulation  |                                                 |
\*---------------------------------------------------------------------------*/
FoamFile
{
    version     2.0;
    format      ascii;
    class       volVectorField;
    location    "0.033";
    object      U;
}
// * * * * * * * * * * * * * * * * * * * * * * * * * * * * * * * * * * * * * //

dimensions      [0 1 -1 0 0 0 0];

internalField   nonuniform List<vector> 
1581
(
(-3.97048e-06 1.03493e-07 -0.00078096)
(-4.05236e-06 7.88573e-08 -0.00078321)
(-2.48783e-06 5.1044e-08 -0.000782214)
(-2.42596e-06 4.23456e-08 -0.000783398)
(-1.22667e-07 2.58372e-08 -0.000782993)
(-3.97794e-06 2.30368e-06 -0.000781401)
(-4.06735e-06 2.32409e-06 -0.000783637)
(-2.501e-06 2.31599e-06 -0.000782648)
(-2.43708e-06 2.33174e-06 -0.000783819)
(-1.30424e-07 2.32646e-06 -0.000783418)
(-3.94939e-06 2.34636e-06 -0.00078038)
(-4.04e-06 2.37584e-06 -0.000782573)
(-2.48019e-06 2.37343e-06 -0.000781577)
(-2.41548e-06 2.39548e-06 -0.000782722)
(-1.19565e-07 2.39393e-06 -0.000782314)
(-3.94755e-06 3.88241e-06 -0.00078139)
(-4.04024e-06 3.92694e-06 -0.000783576)
(-2.48136e-06 3.9295e-06 -0.000782587)
(-2.41659e-06 3.96041e-06 -0.000783728)
(-1.21049e-07 3.96261e-06 -0.000783325)
(-3.90373e-06 3.81323e-06 -0.000779321)
(-3.99288e-06 3.85705e-06 -0.000781467)
(-2.44671e-06 3.86175e-06 -0.000780473)
(-2.38237e-06 3.89256e-06 -0.000781592)
(-1.05162e-07 3.89681e-06 -0.000781184)
(-2.06149e-06 8.92034e-09 0.000224887)
(-2.76714e-06 1.14397e-07 0.000224411)
(-2.07452e-06 1.52635e-07 0.000224068)
(-1.7438e-06 2.11502e-07 0.000223728)
(-4.64695e-07 2.42727e-07 0.000223553)
(-2.0392e-06 1.40811e-06 0.000225045)
(-2.73472e-06 1.46543e-06 0.000224571)
(-2.05017e-06 1.48533e-06 0.000224232)
(-1.72033e-06 1.52244e-06 0.000223892)
(-4.43297e-07 1.53981e-06 0.000223719)
(-2.0027e-06 1.79856e-06 0.000225418)
(-2.68986e-06 1.844e-06 0.00022494)
(-2.01751e-06 1.8585e-06 0.000224602)
(-1.68932e-06 1.88871e-06 0.000224258)
(-4.25508e-07 1.90138e-06 0.000224083)
(-1.99265e-06 2.51417e-06 0.000225754)
(-2.67473e-06 2.55047e-06 0.000225277)
(-2.00546e-06 2.56116e-06 0.000224939)
(-1.67745e-06 2.5867e-06 0.000224595)
(-4.16251e-07 2.59645e-06 0.000224421)
(-1.96551e-06 1.90285e-06 0.000226263)
(-2.64285e-06 1.92999e-06 0.000225784)
(-1.98128e-06 1.9355e-06 0.000225447)
(-1.65403e-06 1.95476e-06 0.0002251)
(-4.06565e-07 1.95948e-06 0.000224926)
(-4.50399e-06 2.61952e-07 -0.000471973)
(-4.93084e-06 2.4226e-07 -0.000474754)
(-3.21515e-06 2.29924e-07 -0.00047476)
(-2.97697e-06 2.18726e-07 -0.00047642)
(-2.98856e-07 2.1048e-07 -0.000476429)
(-4.50971e-06 2.8684e-06 -0.000471964)
(-4.93988e-06 2.88697e-06 -0.000474745)
(-3.2239e-06 2.88389e-06 -0.000474755)
(-2.98656e-06 2.89587e-06 -0.000476414)
(-3.02837e-07 2.89088e-06 -0.000476429)
(-4.48472e-06 3.09597e-06 -0.000470374)
(-4.9153e-06 3.12238e-06 -0.00047313)
(-3.20625e-06 3.12219e-06 -0.000473139)
(-2.96998e-06 3.14019e-06 -0.00047478)
(-2.9786e-07 3.13833e-06 -0.000474794)
(-4.48242e-06 4.78332e-06 -0.000470377)
(-4.91362e-06 4.82728e-06 -0.000473129)
(-3.20609e-06 4.83147e-06 -0.000473139)
(-2.97043e-06 4.86068e-06 -0.000474778)
(-2.98987e-07 4.86268e-06 -0.000474793)
(-4.43956e-06 4.37854e-06 -0.000467693)
(-4.86713e-06 4.4214e-06 -0.000470404)
(-3.17286e-06 4.42625e-06 -0.000470409)
(-2.93877e-06 4.45553e-06 -0.000472022)
(-2.88676e-07 4.45876e-06 -0.000472034)
(-4.89846e-06 4.44435e-08 -2.44917e-05)
(-5.55488e-06 1.32456e-07 -2.74387e-05)
(-3.74034e-06 1.54133e-07 -2.788e-05)
(-3.41335e-06 2.11849e-07 -2.97079e-05)
(-4.84516e-07 2.34141e-07 -2.99487e-05)
(-4.8764e-06 3.0081e-06 -2.42962e-05)
(-5.52694e-06 3.09007e-06 -2.72362e-05)
(-3.71962e-06 3.10709e-06 -2.76745e-05)
(-3.39416e-06 3.162e-06 -2.94981e-05)
(-4.67331e-07 3.17526e-06 -2.97374e-05)
(-4.81444e-06 3.38618e-06 -2.25146e-05)
(-5.45584e-06 3.46091e-06 -2.5431e-05)
(-3.66841e-06 3.4753e-06 -2.58646e-05)
(-3.34518e-06 3.52557e-06 -2.76742e-05)
(-4.45335e-07 3.53748e-06 -2.79112e-05)
(-4.79978e-06 5.19587e-06 -2.2107e-05)
(-5.43778e-06 5.27768e-06 -2.50162e-05)
(-3.65496e-06 5.29186e-06 -2.54475e-05)
(-3.33199e-06 5.34617e-06 -2.72527e-05)
(-4.37168e-07 5.35761e-06 -2.74882e-05)
(-4.73051e-06 4.64075e-06 -1.92247e-05)
(-5.35983e-06 4.71002e-06 -2.20984e-05)
(-3.59993e-06 4.72071e-06 -2.25233e-05)
(-3.27943e-06 4.76647e-06 -2.4307e-05)
(-4.2057e-07 4.77458e-06 -2.45395e-05)
(-7.51435e-06 4.33232e-07 -0.000313599)
(-8.31964e-06 4.29757e-07 -0.000318596)
(-5.48439e-06 4.25773e-07 -0.000319133)
(-5.0457e-06 4.22864e-07 -0.000322196)
(-5.39672e-07 4.20113e-07 -0.000322484)
(-7.51282e-06 4.84548e-06 -0.000313332)
(-8.31862e-06 4.89461e-06 -0.000318328)
(-5.48575e-06 4.89929e-06 -0.000318865)
(-5.04946e-06 4.92962e-06 -0.000321927)
(-5.41115e-07 4.92844e-06 -0.000322215)
(-7.4637e-06 5.28521e-06 -0.000310349)
(-8.26579e-06 5.3424e-06 -0.000315301)
(-5.44938e-06 5.34918e-06 -0.000315831)
(-5.01656e-06 5.38553e-06 -0.000318864)
(-5.35719e-07 5.38754e-06 -0.000319149)
(-7.45392e-06 8.07367e-06 -0.000309845)
(-8.25462e-06 8.16041e-06 -0.000314785)
(-5.44262e-06 8.1732e-06 -0.000315313)
(-5.0111e-06 8.22835e-06 -0.000318339)
(-5.35142e-07 8.23485e-06 -0.000318622)
(-7.3746e-06 7.32284e-06 -0.000304987)
(-8.16626e-06 7.40216e-06 -0.000309845)
(-5.38145e-06 7.41358e-06 -0.000310362)
(-4.95492e-06 7.46504e-06 -0.000313336)
(-5.24143e-07 7.47134e-06 -0.000313613)
(-1.00015e-05 3.6483e-07 -0.000138805)
(-1.10901e-05 4.28365e-07 -0.000145583)
(-7.34058e-06 4.4371e-07 -0.000146472)
(-6.76484e-06 4.8943e-07 -0.000150654)
(-7.69249e-07 5.0658e-07 -0.000151144)
(-9.97792e-06 6.25724e-06 -0.000138401)
(-1.10611e-05 6.38543e-06 -0.000145165)
(-7.31834e-06 6.40863e-06 -0.00014605)
(-6.74396e-06 6.49413e-06 -0.000150221)
(-7.55456e-07 6.51115e-06 -0.000150707)
(-9.86998e-06 6.87357e-06 -0.000134367)
(-1.09386e-05 7.00428e-06 -0.000141063)
(-7.23189e-06 7.02732e-06 -0.000141935)
(-6.66232e-06 7.11368e-06 -0.000146064)
(-7.31103e-07 7.13072e-06 -0.000146541)
(-9.84368e-06 1.05595e-05 -0.000133555)
(-1.09073e-05 1.07338e-05 -0.000140229)
(-7.20894e-06 1.07625e-05 -0.000141095)
(-6.64057e-06 1.08751e-05 -0.00014521)
(-7.2214e-07 1.08943e-05 -0.000145684)
(-9.69073e-06 9.6007e-06 -0.000126992)
(-1.07356e-05 9.75366e-06 -0.000133559)
(-7.09064e-06 9.77727e-06 -0.000134404)
(-6.53052e-06 9.8752e-06 -0.000138453)
(-6.98608e-07 9.89021e-06 -0.000138915)
(-1.44387e-05 8.16712e-07 -0.000244635)
(-1.59882e-05 8.32175e-07 -0.000254475)
(-1.05553e-05 8.35029e-07 -0.000255712)
(-9.71764e-06 8.43817e-07 -0.000261771)
(-1.03254e-06 8.46197e-07 -0.000262442)
(-1.44227e-05 9.28338e-06 -0.000244049)
(-1.59688e-05 9.41442e-06 -0.000253872)
(-1.05426e-05 9.43703e-06 -0.000255104)
(-9.70651e-06 9.51985e-06 -0.000261151)
(-1.03027e-06 9.53217e-06 -0.000261818)
(-1.43038e-05 1.01309e-05 -0.000238217)
(-1.58345e-05 1.02783e-05 -0.000247919)
(-1.04499e-05 1.0304e-05 -0.000249128)
(-9.62251e-06 1.03966e-05 -0.0002551)
(-1.01807e-06 1.04107e-05 -0.000255752)
(-1.42712e-05 1.54499e-05 -0.000237083)
(-1.57957e-05 1.56656e-05 -0.000246747)
(-1.04243e-05 1.57053e-05 -0.000247947)
(-9.59985e-06 1.58403e-05 -0.000253895)
(-1.01345e-06 1.58621e-05 -0.000254542)
(-1.40824e-05 1.4027e-05 -0.000227613)
(-1.55791e-05 1.42157e-05 -0.000237077)
(-1.02752e-05 1.42493e-05 -0.000238238)
(-9.4657e-06 1.4369e-05 -0.00024406)
(-9.92342e-07 1.43872e-05 -0.000244686)
(-2.0058e-05 9.93426e-07 -0.000197255)
(-2.21693e-05 1.05633e-06 -0.000211218)
(-1.46366e-05 1.07313e-06 -0.00021307)
(-1.34942e-05 1.11886e-06 -0.000221681)
(-1.4322e-06 1.134e-06 -0.000222693)
(-2.00162e-05 1.26751e-05 -0.00019641)
(-2.21181e-05 1.29416e-05 -0.000210335)
(-1.45972e-05 1.29932e-05 -0.000212178)
(-1.34572e-05 1.31659e-05 -0.000220768)
(-1.41853e-06 1.32005e-05 -0.000221774)
(-1.9784e-05 1.38397e-05 -0.000188177)
(-2.18511e-05 1.41289e-05 -0.000201925)
(-1.44123e-05 1.41848e-05 -0.000203728)
(-1.32869e-05 1.43698e-05 -0.000212208)
(-1.3836e-06 1.44059e-05 -0.000213194)
(-1.97187e-05 2.11654e-05 -0.000186509)
(-2.17729e-05 2.15776e-05 -0.00020019)
(-1.43563e-05 2.16543e-05 -0.00020198)
(-1.32361e-05 2.19163e-05 -0.000210421)
(-1.37004e-06 2.19621e-05 -0.000211398)
(-1.93597e-05 1.92764e-05 -0.000173129)
(-2.13622e-05 1.96354e-05 -0.000186527)
(-1.40736e-05 1.96991e-05 -0.000188252)
(-1.29792e-05 1.99263e-05 -0.000196515)
(-1.32633e-06 1.99634e-05 -0.000197456)
(-2.871e-05 1.64411e-06 -0.000220229)
(-3.18049e-05 1.69762e-06 -0.000239918)
(-2.10187e-05 1.71068e-06 -0.000242528)
(-1.93413e-05 1.74063e-06 -0.000254657)
(-2.05582e-06 1.74875e-06 -0.000256074)
(-2.86556e-05 1.83615e-05 -0.000219041)
(-3.17391e-05 1.87076e-05 -0.000238663)
(-2.09755e-05 1.8779e-05 -0.000241258)
(-1.93025e-05 1.89926e-05 -0.000253345)
(-2.04696e-06 1.90316e-05 -0.000254755)
(-2.83544e-05 2.00319e-05 -0.000207545)
(-3.13874e-05 2.04226e-05 -0.000226849)
(-2.07337e-05 2.05016e-05 -0.000229373)
(-1.90886e-05 2.07433e-05 -0.000241267)
(-2.01584e-06 2.07866e-05 -0.000242634)
(-2.82541e-05 3.05003e-05 -0.000205231)
(-3.12693e-05 3.10653e-05 -0.000224411)
(-2.06548e-05 3.11838e-05 -0.000226906)
(-1.90175e-05 3.15359e-05 -0.000238729)
(-2.00227e-06 3.16024e-05 -0.00024008)
(-2.77737e-05 2.77007e-05 -0.000186563)
(-3.07038e-05 2.81811e-05 -0.000205232)
(-2.02632e-05 2.82819e-05 -0.000207603)
(-1.86701e-05 2.85835e-05 -0.000219104)
(-1.94639e-06 2.86389e-05 -0.000220386)
(-4.01929e-05 2.20346e-06 -0.000239381)
(-4.44725e-05 2.322e-06 -0.000267538)
(-2.93757e-05 2.35301e-06 -0.000271551)
(-2.704e-05 2.43321e-06 -0.000289026)
(-2.84987e-06 2.45457e-06 -0.000291236)
(-4.00829e-05 2.53584e-05 -0.000237582)
(-4.43393e-05 2.60104e-05 -0.000265622)
(-2.92788e-05 2.6148e-05 -0.000269596)
(-2.69541e-05 2.65558e-05 -0.000287)
(-2.8277e-06 2.66404e-05 -0.000289186)
(-3.95222e-05 2.76499e-05 -0.000221167)
(-4.36827e-05 2.83817e-05 -0.000248724)
(-2.88303e-05 2.85368e-05 -0.000252557)
(-2.65476e-05 2.89856e-05 -0.000269656)
(-2.75102e-06 2.90808e-05 -0.000271773)
(-3.933e-05 4.2151e-05 -0.000217683)
(-4.34522e-05 4.31985e-05 -0.000245045)
(-2.86749e-05 4.34283e-05 -0.000248822)
(-2.64101e-05 4.40837e-05 -0.000265779)
(-2.72117e-06 4.42143e-05 -0.000267858)
(-3.8444e-05 3.83606e-05 -0.00019111)
(-4.24053e-05 3.92466e-05 -0.000217724)
(-2.79453e-05 3.94381e-05 -0.000221307)
(-2.57618e-05 3.99972e-05 -0.000237781)
(-2.609e-06 4.0105e-05 -0.000239743)
(-5.75074e-05 3.41865e-06 -0.000218909)
(-6.39807e-05 3.58698e-06 -0.000258476)
(-4.25061e-05 3.63982e-06 -0.000264226)
(-3.90257e-05 3.73752e-06 -0.00028867)
(-4.29623e-06 3.77309e-06 -0.000291887)
(-5.7333e-05 3.65753e-05 -0.000216423)
(-6.37579e-05 3.75216e-05 -0.000255754)
(-4.23537e-05 3.77735e-05 -0.000261423)
(-3.8893e-05 3.83627e-05 -0.000285681)
(-4.25886e-06 3.84942e-05 -0.000288845)
(-5.65365e-05 3.99312e-05 -0.000193763)
(-6.27822e-05 4.09987e-05 -0.000232237)
(-4.1665e-05 4.12747e-05 -0.000237675)
(-3.83049e-05 4.19639e-05 -0.000261459)
(-4.15969e-06 4.21145e-05 -0.000264438)
(-5.6237e-05 6.0563e-05 -0.000188967)
(-6.24141e-05 6.20707e-05 -0.00022702)
(-4.13885e-05 6.24392e-05 -0.000232345)
(-3.80532e-05 6.34164e-05 -0.000255898)
(-4.10557e-06 6.36384e-05 -0.000258796)
(-5.4988e-05 5.4875e-05 -0.000152264)
(-6.09059e-05 5.61239e-05 -0.000188985)
(-4.03197e-05 5.64239e-05 -0.000193889)
(-3.7106e-05 5.72212e-05 -0.000216581)
(-3.93428e-06 5.73957e-05 -0.000219243)
(-8.06808e-05 4.68349e-06 -0.00029351)
(-8.97978e-05 5.03161e-06 -0.000349784)
(-5.95693e-05 5.14284e-06 -0.000358967)
(-5.47017e-05 5.40515e-06 -0.000394543)
(-6.0818e-06 5.48209e-06 -0.000399754)
(-8.0329e-05 5.05041e-05 -0.000289438)
(-8.93474e-05 5.22491e-05 -0.000345396)
(-5.92053e-05 5.26993e-05 -0.000354398)
(-5.43765e-05 5.37664e-05 -0.000389726)
(-6.00312e-06 5.40898e-05 -0.000394815)
(-7.88865e-05 5.51061e-05 -0.000256952)
(-8.76021e-05 5.71157e-05 -0.000311674)
(-5.8052e-05 5.76142e-05 -0.00032024)
(-5.33113e-05 5.87687e-05 -0.000354511)
(-5.73747e-06 5.913e-05 -0.000359355)
(-7.82637e-05 8.3657e-05 -0.000249316)
(-8.68387e-05 8.64585e-05 -0.000303542)
(-5.75523e-05 8.72218e-05 -0.00031185)
(-5.28608e-05 8.897e-05 -0.000345684)
(-5.62366e-06 8.94181e-05 -0.000350347)
(-7.60048e-05 7.59043e-05 -0.000197117)
(-8.40373e-05 7.81632e-05 -0.0002494)
(-5.55411e-05 7.87858e-05 -0.000257212)
(-5.11154e-05 8.02301e-05 -0.000289809)
(-5.2715e-06 8.05803e-05 -0.000294161)
(-0.000115103 7.4442e-06 -0.000233548)
(-0.00012945 7.92033e-06 -0.000313668)
(-8.72655e-05 8.15383e-06 -0.000327807)
(-7.98123e-05 8.4916e-06 -0.000376879)
(-9.56185e-06 8.64884e-06 -0.000384864)
(-0.000114605 7.31335e-05 -0.000227987)
(-0.00012873 7.56317e-05 -0.000307134)
(-8.66835e-05 7.65008e-05 -0.000320857)
(-7.93102e-05 7.83951e-05 -0.000369374)
(-9.40332e-06 7.8893e-05 -0.000377183)
(-0.000112541 8.00525e-05 -0.000183645)
(-0.000126082 8.28535e-05 -0.000260133)
(-8.45022e-05 8.38225e-05 -0.000272872)
(-7.74201e-05 8.60064e-05 -0.000320935)
(-9.05968e-06 8.65824e-05 -0.000328206)
(-0.000111729 0.000120409 -0.000173155)
(-0.000124959 0.000124356 -0.000248217)
(-8.35306e-05 0.000125479 -0.000260333)
(-7.65504e-05 0.000128131 -0.000307409)
(-8.82092e-06 0.000128845 -0.000314263)
(-0.000108487 0.000108291 -0.000101575)
(-0.000121012 0.000111534 -0.000173208)
(-8.07282e-05 0.000112345 -0.000183897)
(-7.40549e-05 0.000114411 -0.00022831)
(-8.33885e-06 0.000114905 -0.00023419)
(-0.000162697 1.02015e-05 -0.000387463)
(-0.000184074 1.15223e-05 -0.000498961)
(-0.00012278 1.20508e-05 -0.000520257)
(-0.000111759 1.28693e-05 -0.000590298)
(-1.40832e-05 1.31199e-05 -0.000602606)
(-0.000161354 0.000100408 -0.000377884)
(-0.000182234 0.000105784 -0.000488767)
(-0.000121445 0.000107634 -0.000509334)
(-0.000110703 0.000109711 -0.000578743)
(-1.38298e-05 0.000110748 -0.000590818)
(-0.000157189 0.000109937 -0.000314689)
(-0.000176846 0.000116032 -0.000423066)
(-0.000118854 0.000118138 -0.000443568)
(-0.000108645 0.000120733 -0.000509521)
(-1.30177e-05 0.00012205 -0.000520945)
(-0.000155111 0.000165742 -0.000297206)
(-0.000174032 0.0001734 -0.000403849)
(-0.000116745 0.000176213 -0.000423377)
(-0.000106791 0.000181612 -0.000489253)
(-1.24829e-05 0.000183451 -0.000499936)
(-0.000149326 0.000149175 -0.000195546)
(-0.000166375 0.00015496 -0.000297374)
(-0.000110643 0.000157039 -0.00031517)
(-0.000101409 0.00016121 -0.000378559)
(-1.1147e-05 0.000162551 -0.000388648)
(-0.000229352 1.69528e-05 -0.000266832)
(-0.000262271 1.80285e-05 -0.000427611)
(-0.000178602 1.89988e-05 -0.000461289)
(-0.000162162 1.9969e-05 -0.00056641)
(-2.19352e-05 2.03639e-05 -0.000586418)
(-0.00022821 0.000145908 -0.000254156)
(-0.000260206 0.000151527 -0.000411734)
(-0.000176659 0.00015319 -0.000444714)
(-0.000160795 0.000159173 -0.000547928)
(-2.15408e-05 0.000160555 -0.000567072)
(-0.000223538 0.000160731 -0.000168604)
(-0.000254986 0.000167772 -0.000318484)
(-0.000170957 0.000169779 -0.000348093)
(-0.000154797 0.000175496 -0.000444866)
(-2.0563e-05 0.000177464 -0.000462068)
(-0.000220951 0.000239575 -0.000144584)
(-0.000251156 0.000250073 -0.000290843)
(-0.000168935 0.000253902 -0.00031883)
(-0.00015311 0.000259119 -0.000412234)
(-1.95836e-05 0.000261169 -0.000428736)
(-0.000212753 0.00021239 -6.14799e-06)
(-0.00024066 0.000220588 -0.00014471)
(-0.000161913 0.000223174 -0.000169081)
(-0.000147533 0.000227828 -0.000254727)
(-1.85055e-05 0.000228946 -0.000267976)
(-0.000327578 2.28042e-05 -0.000552527)
(-0.000378568 2.73615e-05 -0.000782698)
(-0.000261578 2.85972e-05 -0.000839152)
(-0.000236888 3.13458e-05 -0.000983923)
(-3.4067e-05 3.24725e-05 -0.00101832)
(-0.000322956 0.000198634 -0.000529739)
(-0.00037283 0.00021491 -0.000756087)
(-0.000257638 0.000220829 -0.000810382)
(-0.00023306 0.000231255 -0.000952458)
(-3.29396e-05 0.000235098 -0.000984911)
(-0.000310844 0.000219508 -0.000411403)
(-0.000356369 0.000236922 -0.000625166)
(-0.000245233 0.000244021 -0.000674308)
(-0.000222619 0.000256425 -0.000810777)
(-3.0168e-05 0.000260385 -0.000840542)
(-0.000305024 0.000328231 -0.000371877)
(-0.000348312 0.000347208 -0.000580109)
(-0.000238135 0.00035526 -0.000625708)
(-0.000216696 0.000371788 -0.00075703)
(-2.89343e-05 0.000377581 -0.000784633)
(-0.000291272 0.000290998 -0.000176843)
(-0.00032934 0.00030475 -0.000372232)
(-0.000220658 0.000310565 -0.000412311)
(-0.000200303 0.000322745 -0.000531017)
(-2.43435e-05 0.000327416 -0.00055477)
(-0.000465411 3.96873e-05 -0.000350956)
(-0.000548957 4.4568e-05 -0.000693851)
(-0.000379828 4.77106e-05 -0.000787128)
(-0.000341332 5.13571e-05 -0.00100584)
(-5.6412e-05 5.3721e-05 -0.00106455)
(-0.000460336 0.000287034 -0.000317202)
(-0.000540908 0.000309061 -0.000651419)
(-0.00037303 0.000318037 -0.00073979)
(-0.000335327 0.000332321 -0.000951545)
(-5.4053e-05 0.000338335 -0.00100694)
(-0.000442754 0.000318594 -0.000145463)
(-0.000517947 0.00034375 -0.000462539)
(-0.000356568 0.000354453 -0.000540978)
(-0.000321034 0.000370925 -0.000740163)
(-5.03884e-05 0.000377743 -0.00078863)
(-0.000434463 0.000474183 -9.23335e-05)
(-0.000505041 0.000503061 -0.00039174)
(-0.000345855 0.000515955 -0.00046313)
(-0.000312036 0.000538938 -0.00065236)
(-4.7241e-05 0.000547003 -0.000695918)
(-0.000413025 0.000412309 0.000178002)
(-0.000476176 0.000433747 -9.26657e-05)
(-0.000320699 0.000442025 -0.000146417)
(-0.000289993 0.00045962 -0.000318556)
(-4.23209e-05 0.000464699 -0.000353501)
(-0.000679108 5.65161e-05 -0.000862337)
(-0.000814819 6.97664e-05 -0.00132946)
(-0.000573556 7.59008e-05 -0.0014867)
(-0.000514314 8.56394e-05 -0.00179133)
(-9.27379e-05 9.00856e-05 -0.00189646)
(-0.000665594 0.000404124 -0.000805446)
(-0.000795494 0.000446219 -0.00125853)
(-0.000557756 0.000466975 -0.00140398)
(-0.000500211 0.000496929 -0.00169744)
(-8.82858e-05 0.000511022 -0.0017929)
(-0.000635815 0.00044437 -0.000572994)
(-0.000751957 0.000496594 -0.00100093)
(-0.00052285 0.000520674 -0.00113143)
(-0.000470267 0.000555603 -0.00140478)
(-7.8512e-05 0.0005714 -0.00148912)
(-0.000611937 0.000651761 -0.000478134)
(-0.000719177 0.00071715 -0.000886635)
(-0.000498747 0.000749894 -0.00100179)
(-0.000449481 0.000793472 -0.00126014)
(-7.23582e-05 0.000812788 -0.00133268)
(-0.000568553 0.000567952 -0.000104839)
(-0.000653824 0.000611336 -0.00047891)
(-0.000446542 0.000635177 -0.000574622)
(-0.000407384 0.000664975 -0.00080777)
(-5.90614e-05 0.000678472 -0.000866324)
(-0.000944955 9.65221e-05 -0.000535946)
(-0.00117347 0.000115373 -0.00123521)
(-0.0008417 0.000130317 -0.00150002)
(-0.000751095 0.00014507 -0.0019658)
(-0.000161688 0.000157111 -0.00215124)
(-0.000925476 0.000576384 -0.000453171)
(-0.00113958 0.000637597 -0.0011183)
(-0.00081194 0.000673322 -0.00136249)
(-0.000724251 0.000718882 -0.00179994)
(-0.000149635 0.000745684 -0.00196744)
(-0.000881909 0.000645906 -0.000128106)
(-0.00107651 0.000715644 -0.000746463)
(-0.000760414 0.000756648 -0.0009551)
(-0.000678734 0.000808228 -0.00136337)
(-0.00013483 0.000837959 -0.00150259)
(-0.000853645 0.000942436 1.04749e-05)
(-0.00102881 0.0010252 -0.000564445)
(-0.000719357 0.00107289 -0.000747352)
(-0.000642941 0.00113608 -0.00111999)
(-0.000119858 0.00116994 -0.00123861)
(-0.000796685 0.000795194 0.000506143)
(-0.000946056 0.000852154 9.65351e-06)
(-0.000649559 0.000880408 -0.000129894)
(-0.000581703 0.000924044 -0.000455733)
(-0.000100924 0.00094348 -0.000540322)
(-0.00139655 0.000139049 -0.00140003)
(-0.00177907 0.000186477 -0.00236378)
(-0.00130413 0.000213175 -0.00283148)
(-0.00116555 0.000251362 -0.00349358)
(-0.000278188 0.000273666 -0.00384583)
(-0.00134814 0.000811953 -0.00124872)
(-0.00170499 0.000934954 -0.00216332)
(-0.00123937 0.00101189 -0.00257809)
(-0.00110517 0.00109937 -0.00319584)
(-0.000255849 0.00115969 -0.00349562)
(-0.00127025 0.000907989 -0.000818338)
(-0.00157909 0.00105042 -0.00165707)
(-0.00113972 0.00113578 -0.00201821)
(-0.00101775 0.00123552 -0.00257981)
(-0.000217589 0.00130021 -0.00283545)
(-0.00120179 0.00128615 -0.000584097)
(-0.00147714 0.00147341 -0.00135948)
(-0.00105426 0.00157524 -0.00165829)
(-0.000940733 0.00170128 -0.00216611)
(-0.000190819 0.00177523 -0.00236885)
(-0.00107778 0.00107636 9.47077e-05)
(-0.00129 0.00120037 -0.00058559)
(-0.000911901 0.00126872 -0.00082119)
(-0.0008178 0.00134666 -0.00125302)
(-0.000143284 0.00139495 -0.00140685)
(-0.00193552 0.000247631 -0.000879248)
(-0.00260524 0.000315397 -0.00233062)
(-0.00197149 0.000383246 -0.00314025)
(-0.00176546 0.000442174 -0.00419756)
(-0.000514523 0.000506661 -0.00486461)
(-0.00186555 0.00115811 -0.000663035)
(-0.00246926 0.00134432 -0.00198905)
(-0.00184445 0.00148662 -0.0027021)
(-0.00164179 0.00163266 -0.00363399)
(-0.000449954 0.00175608 -0.0041998)
(-0.00174379 0.00131053 -3.31175e-05)
(-0.00227667 0.00151948 -0.00126329)
(-0.00168316 0.00167646 -0.00184319)
(-0.001496 0.00183794 -0.00270417)
(-0.00039086 0.00196471 -0.00314463)
(-0.00165052 0.00185567 0.000284591)
(-0.00210326 0.00209694 -0.000791606)
(-0.00152598 0.0022702 -0.00126447)
(-0.00135353 0.00246319 -0.00199215)
(-0.000322907 0.00259886 -0.0023361)
(-0.00149522 0.00149224 0.00120429)
(-0.00186214 0.00164754 0.000282664)
(-0.00131699 0.00174065 -3.6398e-05)
(-0.00116739 0.00186261 -0.000668143)
(-0.000254914 0.0019323 -0.00088693)
(-0.00288748 0.000354466 -0.00225562)
(-0.00404055 0.000527448 -0.00423924)
(-0.003171 0.00065054 -0.00566974)
(-0.00288995 0.000814488 -0.00720354)
(-0.000945481 0.000937788 -0.00852576)
(-0.00271071 0.00165803 -0.00185341)
(-0.00374447 0.00200229 -0.00366443)
(-0.00288424 0.00230897 -0.00485345)
(-0.00260289 0.00259278 -0.0061946)
(-0.000822163 0.0028797 -0.00720506)
(-0.00253346 0.00185551 -0.00106123)
(-0.00338949 0.00224777 -0.00268064)
(-0.00258051 0.00257332 -0.00368022)
(-0.00231922 0.00287729 -0.00485728)
(-0.000658096 0.00316384 -0.00567592)
(-0.00230725 0.00252387 -0.00049157)
(-0.00302649 0.00301965 -0.00191805)
(-0.00225472 0.00338236 -0.00268201)
(-0.00201236 0.00373773 -0.00366909)
(-0.000534844 0.00403342 -0.0042464)
(-0.00202351 0.00202017 0.000674841)
(-0.002531 0.00230391 -0.000494467)
(-0.0018626 0.00252984 -0.00106601)
(-0.00166828 0.00270722 -0.00186104)
(-0.00036163 0.00288368 -0.00226656)
(-0.00397781 0.000649273 -0.00144558)
(-0.00602009 0.000888905 -0.00448693)
(-0.00493588 0.00119806 -0.00706364)
(-0.00462168 0.00144914 -0.00971141)
(-0.00183887 0.00182514 -0.0124153)
(-0.00373037 0.00235263 -0.00087256)
(-0.00546997 0.00290293 -0.0034501)
(-0.00437462 0.00347622 -0.00557595)
(-0.00399352 0.00397903 -0.00762536)
(-0.00146253 0.00460611 -0.00971464)
(-0.00341084 0.00267239 0.000323648)
(-0.00489628 0.00326579 -0.00206765)
(-0.00385979 0.0038479 -0.00370021)
(-0.00349178 0.00436345 -0.00558041)
(-0.00121085 0.00492345 -0.00707085)
(-0.00311903 0.00359202 0.00105011)
(-0.00429419 0.00428361 -0.000848039)
(-0.00327696 0.00488504 -0.00206895)
(-0.00291794 0.0054601 -0.00345564)
(-0.000901295 0.00600895 -0.0044954)
(-0.0026978 0.00269191 0.00270329)
(-0.00360327 0.00311314 0.00104608)
(-0.00268358 0.00340427 0.000317889)
(-0.00236808 0.00372446 -0.000882402)
(-0.000660962 0.0039708 -0.00145849)
(-0.00601601 0.000925422 -0.00328961)
(-0.0096598 0.00156293 -0.00734914)
(-0.00839538 0.00213658 -0.0118001)
(-0.00824167 0.00290005 -0.0157757)
(-0.00365037 0.00363786 -0.0214661)
(-0.00536409 0.00342707 -0.0022583)
(-0.00844876 0.00442151 -0.0057122)
(-0.00705933 0.00567237 -0.00905802)
(-0.0067415 0.00672371 -0.0121201)
(-0.00291304 0.00822421 -0.0157727)
(-0.00499194 0.00377796 -0.00084967)
(-0.00741412 0.00484965 -0.00384978)
(-0.00609304 0.00608009 -0.00652453)
(-0.00568983 0.00704684 -0.00906676)
(-0.00214938 0.00838298 -0.0118088)
(-0.00425995 0.00490425 0.000378076)
(-0.00614618 0.00613401 -0.0020222)
(-0.00486214 0.00740123 -0.00385029)
(-0.00443877 0.00843663 -0.0057198)
(-0.00157553 0.00964697 -0.00735734)
(-0.003725 0.00371764 0.00225521)
(-0.00491714 0.00425259 0.000372439)
(-0.00379086 0.00498384 -0.000857003)
(-0.00344446 0.0053563 -0.00227144)
(-0.000937655 0.00600776 -0.00330582)
(-0.00816498 0.00167934 -0.00187295)
(-0.0145324 0.00252227 -0.00816011)
(-0.0133639 0.00393609 -0.0163396)
(-0.0142888 0.00509947 -0.0240655)
(-0.00753933 0.00751339 -0.0362651)
(-0.00729487 0.00479284 -0.000376316)
(-0.0122712 0.00640232 -0.00504189)
(-0.0107832 0.00875211 -0.0111735)
(-0.0107085 0.0106883 -0.0158166)
(-0.00512431 0.0142645 -0.0240713)
(-0.00650572 0.00530866 0.00169656)
(-0.0105724 0.00695574 -0.00258832)
(-0.00907709 0.00905594 -0.00697461)
(-0.00877639 0.0107644 -0.0111821)
(-0.00395791 0.0133403 -0.0163504)
(-0.00559534 0.00669708 0.00328141)
(-0.00852329 0.00850655 0.000349905)
(-0.00697451 0.0105538 -0.00258932)
(-0.00642502 0.012257 -0.00505151)
(-0.00254266 0.0145137 -0.00817312)
(-0.00463748 0.00462593 0.00585257)
(-0.00671566 0.00558378 0.00327311)
(-0.00532736 0.00649231 0.00168754)
(-0.00481718 0.00728339 -0.000394163)
(-0.00169735 0.0081499 -0.00189294)
(-0.0124959 0.00241799 -0.00334481)
(-0.0241276 0.00467901 -0.0112622)
(-0.0243029 0.00730175 -0.024861)
(-0.0281634 0.0111539 -0.0369561)
(-0.0158699 0.0158517 -0.0647981)
(-0.0101798 0.00699646 -0.000893249)
(-0.0192468 0.00999285 -0.00686744)
(-0.0178348 0.0150364 -0.0156357)
(-0.0196372 0.019605 -0.0230802)
(-0.0111751 0.0281352 -0.0369367)
(-0.00940544 0.00743563 0.00130877)
(-0.0160865 0.0102412 -0.00358023)
(-0.0146866 0.014664 -0.010088)
(-0.0150646 0.0178127 -0.0156541)
(-0.00732293 0.0242832 -0.0248697)
(-0.007284 0.00906181 0.00364128)
(-0.012018 0.0119966 0.000239373)
(-0.0102633 0.0160646 -0.00357779)
(-0.0100221 0.0192254 -0.00687908)
(-0.00470047 0.0241056 -0.0112676)
(-0.00637732 0.00636162 0.00612305)
(-0.00908371 0.0072683 0.0036316)
(-0.00745808 0.00938929 0.00129831)
(-0.00702483 0.0101638 -0.000913491)
(-0.00243886 0.0124806 -0.00336504)
(-0.0163548 0.00412793 0.000633847)
(-0.0360509 0.00690993 -0.0113401)
(-0.039069 0.0131558 -0.0355478)
(-0.0542113 0.0189918 -0.0646678)
(-0.0355038 0.0354437 -0.130892)
(-0.0134826 0.00944557 0.0038899)
(-0.027016 0.0140841 -0.00303601)
(-0.0270021 0.0235237 -0.0185233)
(-0.0320008 0.0319816 -0.0294747)
(-0.0190495 0.0541783 -0.0646775)
(-0.0115628 0.00984237 0.00683767)
(-0.0219707 0.0140632 0.000615533)
(-0.0211537 0.0211166 -0.0092163)
(-0.0235566 0.0269717 -0.0185415)
(-0.0131955 0.0390205 -0.0355595)
(-0.0091168 0.011511 0.00949648)
(-0.0157426 0.0157187 0.00617881)
(-0.0140936 0.0219416 0.000616115)
(-0.0141146 0.0269999 -0.00305194)
(-0.00694433 0.0360207 -0.0113599)
(-0.00721212 0.00719085 0.0122333)
(-0.0115401 0.00909554 0.00948155)
(-0.00987163 0.0115364 0.00682326)
(-0.00947968 0.0134625 0.00385878)
(-0.00415595 0.0163247 0.000607958)
(-0.0248773 0.0056711 0.00301755)
(-0.0603006 0.0129837 -0.00870583)
(-0.0776449 0.0243588 -0.0429018)
(-0.123364 0.0465077 -0.0867668)
(-0.0830528 0.0830404 -0.214584)
(-0.0173616 0.0132012 0.0071262)
(-0.0416565 0.0219449 6.39462e-05)
(-0.0442727 0.0413488 -0.0176489)
(-0.0657546 0.0656938 -0.036083)
(-0.0465393 0.123324 -0.086713)
(-0.0158386 0.0130432 0.00979794)
(-0.0321413 0.0194578 0.00434644)
(-0.0338457 0.0338056 -0.00694251)
(-0.0413889 0.0442346 -0.0176777)
(-0.0243941 0.0776155 -0.0428961)
(-0.0107279 0.0144593 0.0125949)
(-0.0209002 0.0208644 0.00978381)
(-0.0194958 0.0321049 0.00435289)
(-0.0219946 0.0416221 4.64729e-05)
(-0.0130219 0.0602645 -0.00870743)
(-0.00922065 0.00918993 0.0146218)
(-0.0144956 0.0106972 0.0125789)
(-0.0130819 0.0158073 0.00978491)
(-0.0132411 0.0173303 0.00709522)
(-0.00570359 0.0248559 0.00299771)
(-0.0285719 0.00823209 0.017348)
(-0.0819324 0.0156855 0.0048264)
(-0.116585 0.0385124 -0.0450472)
(-0.249963 0.0716383 -0.177698)
(-0.148776 0.169778 -0.52308)
(-0.0208722 0.0162228 0.0211761)
(-0.0517859 0.0271222 0.0167336)
(-0.0631578 0.0594321 -0.00593862)
(-0.100766 0.100772 -0.0269686)
(-0.0718804 0.249887 -0.177674)
(-0.0172437 0.0153123 0.0223797)
(-0.0387087 0.0237863 0.0191376)
(-0.0431877 0.0431281 0.0079622)
(-0.0594597 0.0631095 -0.00598668)
(-0.038599 0.116482 -0.0450315)
(-0.0120644 0.0163362 0.0239084)
(-0.0239845 0.023951 0.0235268)
(-0.0238342 0.0386666 0.0191435)
(-0.0271608 0.0517676 0.0167086)
(-0.015744 0.0818766 0.00479669)
(-0.00933791 0.00930055 0.0236769)
(-0.0163783 0.012027 0.0238875)
(-0.0153566 0.0171977 0.0223617)
(-0.0162637 0.0208386 0.0211308)
(-0.00827628 0.0285234 0.0173183)
(-0.0380048 0.00951106 0.0326841)
(-0.122078 0.0249678 0.039894)
(-0.200558 0.0643055 0.0318794)
(-0.469142 0.112083 -0.0699786)
(-1.16164 0.414833 -0.958773)
(-0.0220583 0.0182285 0.0314188)
(-0.0687465 0.0362097 0.0366284)
(-0.0868349 0.094098 0.0305672)
(-0.212374 0.212324 -0.00880879)
(-0.291524 0.507614 -0.201183)
(-0.0192651 0.0157756 0.0315695)
(-0.0465513 0.0262507 0.0342317)
(-0.0589748 0.0588922 0.0353848)
(-0.0941223 0.0867754 0.0305823)
(-0.064355 0.200615 0.0319663)
(-0.0111769 0.0157545 0.0302533)
(-0.0256607 0.0256099 0.0334711)
(-0.0263138 0.0464969 0.0342382)
(-0.0362952 0.0687152 0.0366075)
(-0.0250447 0.121998 0.0398624)
(-0.00903683 0.00898504 0.0288589)
(-0.0158089 0.0111251 0.0302311)
(-0.0158386 0.0192097 0.031553)
(-0.01828 0.0220067 0.031384)
(-0.00956308 0.0379836 0.0326733)
(-0.0214808 0.00699663 0.0736653)
(-0.0784604 0.0124435 0.101115)
(-0.104681 0.0377337 0.226899)
(-0.535918 0.100452 0.330039)
(-1.74546 0.455263 -2.55525)
(-0.0157817 0.0151293 0.0616724)
(-0.051857 0.0213898 0.0775598)
(-0.0670034 0.0603065 0.138909)
(-0.264728 0.182904 0.242283)
(-0.59622 0.69287 0.544101)
(-0.0146273 0.0141577 0.052433)
(-0.0348372 0.0206214 0.0678966)
(-0.0459773 0.0459409 0.100959)
(-0.0602484 0.0670264 0.138816)
(-0.0378714 0.104846 0.226885)
(-0.0088329 0.0136273 0.0454396)
(-0.0199973 0.019948 0.0531636)
(-0.0206904 0.0347788 0.0679103)
(-0.0214671 0.0517901 0.077534)
(-0.0124817 0.0783082 0.101109)