/*--------------------------------*- C++ -*----------------------------------*\
| =========                 |                                                 |
| \\      /  F ield         | OpenFOAM: The Open Source CFD Toolbox           |
|  \\    /   O peration     | Version:  5.x                                   |
|   \\  /    A nd           | Web:      www.OpenFOAM.org                      |
|    \\/     M anipulation  |                                                 |
\*---------------------------------------------------------------------------*/
FoamFile
{
    version     2.0;
    format      ascii;
    class       volScalarField;
    location    "0.051";
    object      interFace;
}
// * * * * * * * * * * * * * * * * * * * * * * * * * * * * * * * * * * * * * //

dimensions      [0 0 0 0 0 0 0];

internalField   nonuniform List<scalar> 
1553
(
0
0
0
0
0
0
0
0
0
0
0
0
0
0
0
0
0
0
0
0
0
0
0
0
0
0
0
0
0
0
0
0
0
0
0
0
0
0
0
0
0
0
0
0
0
0
0
0
0
0
0
0
0
0
0
0
0
0
0
0
0
0
0
0
0
0
0
0
0
0
0
0
0
0
0
0
0
0
0
0
0
0
0
0
0
0
0
0
0
0
0
0
0
0
0
0
0
0
0
0
0
0
0
0
0
0
0
0
0
0
0
0
0
0
0
0
0
0
0
0
0
0
0
0
0
0
0
0
0
0
0
0
0
0
0
0
0
0
0
0
0
0
0
0
0
0
0
0
0
0
0
0
0
0
0
0
0
0
0
0
0
0
0
0
0
0
0
0
0
0
0
0
0
0
0
0
0
0
0
0
0
0
0
0
0
0
0
0
0
0
0
0
0
0
0
0
0
0
0
0
0
0
0
0
0
0
0
0
0
0
0
0
0
0
0
0
0
0
0
0
0
0
0
0
0
0
0
0
0
0
0
0
0
0
0
0
0
0
0
0
0
0
0
0
0
0
0
0
0
0
0
0
0
0
0
0
0
0
0
0
0
0
0
0
0
0
0
0
0
0
0
0
0
0
0
0
0
0
0
0
0
0
0
0
0
0
0
0
0
0
0
0
0
0
0
0
0
0
0
0
0
0
0
0
0
0
0
0
0
0
0
0
0
0
0
0
0
0
0
0
0
0
0
0
0
0
0
0
0
0
0
0
0
0
0
0
0
0
0
0
0
0
0
0
0
0
0
0
0
0
0
0
0
0
0
0
0
0
0
0
0
0
0
0
0
0
0
0
0
0
0
0
0
0
0
0
0
0
0
0
0
0
0
0
0
0
0
0
0
0
0
0
0
0
0
0
0
0
0
0
0
0
0
0
0
0
0
0
0
0
0
0
0
0
0
0
0
0
0
0
0
0
0
0
0
0
0
0
0
0
0
0
0
0
0
0
0
0
0
0
0
0
0
0
0
0
0
0
0
0
0
0
0
0
0
0
0
0
0
0
0
0
0
0
0
0
0
0
0
0
0
0
0
0
0
0
0
0
0
0
0
0
0
0
0
0
0
0
0
0
0
0
0
0
0
0
0
0
0
0
0
0
0
0
0
0
0
0
0
0
0
0
0
0
0
0
0
0
0
0
0
0
0
0
0
0
0
0
0
0
0
0
0
0
0
0
0
0
0
0
0
0
0
0
0
0
0
0
0
0
0
0
0
0
0
0
0
0
0
0
0
0
0
0
0
0
0
0
0
0
0
0
0
0
0
0
0
0
0
0
0
0
0
0
0
0
0
0
0
0
0
0
0
0
0
0
0
0
0
0
0
0
0
0
0
0
0
0
0
0
0
0
0
0
0
0
0
0
0
0
0
0
0
0
0
0
0
0
0
0
0
0
0
0
0
0
0
0
0
0
0
0
0
0
0
0
0
0
0
0
0
0
0
0
0
0
0
0
0
0
0
0
0
0
0
0
0
0
0
0
0
0
0
0
0
0
0
0
0
0
0
0
0
0
0
0
0
0
0
0
0
0
0
0
0
0
0
0
0
0
0
0
0
0
0
0
0
0
0
0
0
0
0
0
0
0
0
0
0
0
0.830516
0
0
0
0
0
0
0
0
0
0
0
0
0
0
0
0
0
0
0
0
0
0
0
0
0.30054
0.748838
0
0
0
0
0
0
0
0
0
0
0
0
0
0
0
0
0
0
0
0
0
0
0
0.487692
0
0
0
0
0
0
0
0
0
0
0
0
0
0
0
0
0
0
0
0
0
0
0
0
0
0
0
0
0
0
0
0
0
0
0
0
0
0
0
0
0
0
0
0
0
0
0
0
0
0.423152
0.854057
0
0
0
0
0
0
0
0
0
0
0
0
0
0
0
0
0
0
0
0
0
0
0
0.328694
0.84924
0
0
0
0
0
0
0
0
0
0
0
0
0
0
0
0
0
0
0
0
0
0
0
0
0
0
0
0
0
0
0
0
0
0
0
0
0
0
0
0
0
0
0
0
0
0
0
0
0
0
0
0
0
0
0
0
0
0
0
0
0
0
0
0
0
0
0
0
0
0
0
0
0
0
0
0
0
0
0
0
0
0
0
0
0
0
0
0
0
0
0
0
0
0
0
0
0
0
0
0
0
0
0
0
0
0
0
0
0
0
0
0
0
0
0
0
0
0
0
0
0
0
0
0
0
0
0
0
0
0
0
0
0
0
0
0
0
0
0
0
0
0
0
0
0
0
0
0
0
0
0
0
0
0
0.864022
0
0
0
0
0
0.756685
0.218843
0.487836
0.912827
0
0.733595
0.912923
0
0.864214
0
0
0
0
0
0
0.858832
0
0.558818
0.827807
0.289962
0.558951
0.692141
0.154296
0.423285
0.285078
0.554067
0.0162216
0.28521
0
0.507954
0.849152
0
0
0.936341
0
0.597683
0.0598378
0.328827
0.728466
0.997455
0.45961
0.728599
0
0.508131
0
0
0
0.936518
0
0
0.84438
0
0
0
0
0
0.460791
0.550388
0.773309
0.594027
0.595231
0.638869
0.415949
0.371173
0.281532
0.504408
0.504452
0.549251
0.32633
0.326374
0.460836
0.550521
0.773397
0.594115
0.595319
0.638914
0.416037
0.569533
0.0316904
0.300684
0.373673
0.642666
0.104824
0.373817
0.467322
0.263639
0.263687
0.377682
0.308482
0.422478
0.422526
0.556938
0.532536
0.353255
0.646531
0.398099
0.691375
0.512094
0.556986
0.532632
0.353351
0.646675
0.398147
0.691471
0.51219
0.550454
0.819377
0.862972
0.863016
0.684894
0.684938
0.728532
0.646603
0.6222
0.622248
0.915525
0.487763
0.78104
0.781088
0.237915
0.104636
0.10468
0.148275
0.149479
0.193073
0.193117
0.327534
0.373537
0.194255
0.417131
0.239097
0.461973
0.282692
0.327578
0.373625
0.194343
0.417263
0.239141
0.462062
0.28278
0.14962
0.149668
0.194464
0.125265
0.0356255
0.0804214
0.0804694
0
0.479797
0.74879
0
0
0.552931
0.821924
0
0.479989
0
0.821972
0
0.553123
0
0.418517
0.239236
0.28408
0.214882
0.304475
0.349319
0.170038
0.418613
0.239332
0.284128
0.21493
0.304619
0.349415
0.170134
0.417197
0.4632
0.463244
0.68612
0.32876
0.551636
0.551681
0.508181
0.508229
0.373744
0.304546
0.573468
0.438983
0.439031
0.107066
0.0174258
0.0610198
0.061064
0.105862
0.0622241
0.0622682
0
0.602412
0.853969
0
0
0.464338
0.733327
0
0.602589
0
0.733371
0
0.464514
0
0.196685
0.286282
0.32992
0.150639
0.331125
0.195481
0.151843
0.196729
0.286415
0.330009
0.150727
0.331213
0.195525
0.151931
0.865314
0.732035
0.552797
0.596391
0.776877
0.641233
0.820471
0.86549
0.552929
0.732255
0.596567
0.777054
0.641366
0.820692
0.848378
0.561667
0.83066
0.365803
0.634796
0.0969537
0.365947
0.100887
0.0764863
0.0765343
0.0112477
0.12133
0.0560435
0.0560915
0.190504
0.345384
0.166103
0.280097
0.210947
0.324941
0.14566
0.190552
0.345479
0.166199
0.280241
0.210995
0.325037
0.145756
0.777009
0.597774
0.821852
0.483732
0.528576
0.752654
0.70781
0.597918
0.777249
0.822044
0.483924
0.52872
0.752846
0.70805
0.286348
0.555271
0.419583
0.419627
0.420788
0.420832
0.285144
0.280168
0.435048
0.435096
0.54909
0.300611
0.414605
0.414653
0.153091
0.199094
0.199138
0.0634506
0.243937
0.108249
0.108293
0
0
0
0
0
0
0
0
0.687439
0.911517
0.752725
0.61824
0.842319
0.976803
0
0.687535
0.911661
0.752773
0.618336
0.842463
0.976899
0.465542
0.688418
0.50918
0.510385
0.733261
0.734465
0.689623
0.465719
0.509313
0.688639
0.510517
0.733437
0.734641
0.689843
0.24271
0.467995
0.288713
0.332307
0.333555
0.377149
0.197868
0.242754
0.468083
0.288801
0.332439
0.3336
0.377238
0.197956
0.14175
0.141798
0.186593
0.296677
0.207037
0.251833
0.251881
0
0
0
0
0
0.54506
0.897084
0
0
0
0.89718
0
0.545252
0
0.524641
0.459354
0.504198
0.728276
0.703875
0.748719
0.683432
0.524785
0.459546
0.504342
0.728468
0.704115
0.748911
0.683672
0.332373
0.557658
0.557702
0.601296
0.423218
0.466812
0.466857
0.410647
0.231366
0.27621
0.386294
0.475887
0.520731
0.34145
0.410743
0.231462
0.276258
0.386342
0.476031
0.520827
0.341546
0.500311
0.500359
0.365874
0.475958
0.74488
0.610395
0.610443
0
0
0
0
0
0
0
0.734531
0.957407
0.598843
0.600047
0.822924
0.824128
0.958611
0.734575
0.957495
0.598931
0.600136
0.823056
0.82426
0.9587
0.560089
0.470448
0.33476
0.334804
0.379603
0.515247
0.515291
0.614401
0.728396
0.593959
0.818085
0.972964
0.838527
0.952522
0.614305
0.728348
0.593863
0.817941
0.972868
0.838383
0.952426
0
0
0
0
0
0.945975
0
0
0
0
0
0
0.946152
0
0.649708
0.739305
0.603661
0.424379
0.784147
0.469221
0.604865
0.649752
0.739437
0.603749
0.424467
0.784235
0.469265
0.604954
0.826493
0.647255
0.511567
0.871335
0.556409
0.78049
0.735647
0.647387
0.826713
0.511743
0.871512
0.556542
0.780666
0.735868
0
0
0
0
0
0.978907
0
0.451582
0.606463
0.606511
0.361942
0.651306
0.406738
0.406786
0.541198
0.87536
0.696079
0.630791
0.740923
0.675635
0.496354
0.541246
0.875456
0.696175
0.630935
0.740971
0.675731
0.49645
0.589904
0.769138
0.813982
0.655144
0.699988
0.924066
0.879222
0.590048
0.769378
0.814174
0.655336
0.700132
0.924258
0.879462
0.739371
0
0.693324
0.693368
0.87381
0.873854
0.558884
)
;

boundaryField
{
    inlet
    {
        type            calculated;
        value           uniform 0;
    }
    wall
    {
        type            calculated;
        value           uniform 0;
    }
    outlet
    {
        type            calculated;
        value           uniform 0;
    }
    procBoundary1to0
    {
        type            processor;
        value           uniform 0;
    }
    procBoundary1to3
    {
        type            processor;
        value           uniform 0;
    }
}


// ************************************************************************* //
