/*--------------------------------*- C++ -*----------------------------------*\
| =========                 |                                                 |
| \\      /  F ield         | OpenFOAM: The Open Source CFD Toolbox           |
|  \\    /   O peration     | Version:  5.x                                   |
|   \\  /    A nd           | Web:      www.OpenFOAM.org                      |
|    \\/     M anipulation  |                                                 |
\*---------------------------------------------------------------------------*/
FoamFile
{
    version     2.0;
    format      ascii;
    class       surfaceScalarField;
    location    "0.051";
    object      phi;
}
// * * * * * * * * * * * * * * * * * * * * * * * * * * * * * * * * * * * * * //

dimensions      [0 3 -1 0 0 0 0];

internalField   nonuniform List<scalar> 
4297
(
2.24372e-08
-1.06471e-07
-1.6007e-08
5.32528e-08
-1.06648e-07
-1.95505e-08
6.89887e-08
-1.06237e-07
-4.49272e-09
9.12318e-08
-1.06243e-07
-1.09592e-08
-1.05208e-07
1.87676e-08
2.20027e-08
-8.45662e-08
-5.01238e-08
5.36279e-08
-8.47947e-08
-5.34783e-08
6.97143e-08
-8.44837e-08
-3.78381e-08
9.22413e-08
-8.45355e-08
-4.42332e-08
-8.36599e-08
-1.38499e-08
2.1594e-08
-6.98806e-08
-4.32217e-08
5.34859e-08
-7.01138e-08
-4.65743e-08
6.96574e-08
-6.98342e-08
-3.08197e-08
9.22739e-08
-6.98974e-08
-3.72535e-08
-6.91998e-08
-6.79983e-09
2.14416e-08
-3.74951e-08
-6.14412e-08
5.37614e-08
-3.77462e-08
-6.46934e-08
7.0136e-08
-3.7614e-08
-4.85951e-08
9.2935e-08
-3.77104e-08
-5.49853e-08
-3.73093e-08
-2.41655e-08
2.1114e-08
-5.7913e-08
5.35909e-08
-6.11896e-08
7.00362e-08
-4.50278e-08
9.29128e-08
-5.14431e-08
-2.05848e-08
8.08734e-09
-4.72557e-08
-2.8903e-08
2.56146e-08
-4.68416e-08
-2.75274e-08
3.55493e-08
-4.59121e-08
-5.03005e-09
3.61557e-08
-4.57253e-08
-2.20243e-09
-4.50337e-08
3.43563e-08
9.67091e-09
-5.06294e-08
-6.8537e-08
2.66616e-08
-5.01511e-08
-6.71581e-08
3.64274e-08
-4.92768e-08
-4.42378e-08
3.68709e-08
-4.90626e-08
-4.13384e-08
-4.84165e-08
-4.05817e-09
1.03113e-08
-4.32758e-08
-7.19108e-08
2.70036e-08
-4.28544e-08
-7.05627e-08
3.66571e-08
-4.21404e-08
-4.7608e-08
3.7008e-08
-4.19484e-08
-4.47172e-08
-4.14121e-08
-7.36334e-09
1.12662e-08
-2.88164e-08
-9.6889e-08
2.77101e-08
-2.84425e-08
-9.55539e-08
3.72534e-08
-2.79384e-08
-7.23404e-08
3.75101e-08
-2.77789e-08
-6.94104e-08
-2.74439e-08
-3.16124e-08
1.17257e-08
-9.8928e-08
2.79933e-08
-9.7613e-08
3.74438e-08
-7.43986e-08
3.76242e-08
-7.14769e-08
-3.36504e-08
2.81096e-08
-1.12047e-07
-5.10477e-08
6.21029e-08
-1.12226e-07
-4.99205e-08
8.01137e-08
-1.11712e-07
-1.14607e-08
9.79574e-08
-1.1171e-07
-8.41788e-09
-1.10518e-07
5.43822e-08
2.78705e-08
-9.54243e-08
-1.19635e-07
6.25791e-08
-9.56532e-08
-1.18439e-07
8.09798e-08
-9.52566e-08
-7.90934e-08
9.91239e-08
-9.52923e-08
-7.58993e-08
-9.42805e-08
-1.16953e-08
2.76477e-08
-7.83684e-08
-1.23608e-07
6.2483e-08
-7.86059e-08
-1.22445e-07
8.09584e-08
-7.83176e-08
-8.30211e-08
9.91702e-08
-7.83799e-08
-7.98405e-08
-7.75991e-08
-1.54879e-08
2.74554e-08
-4.36869e-08
-1.66721e-07
6.27463e-08
-4.39362e-08
-1.65518e-07
8.14763e-08
-4.38632e-08
-1.25525e-07
9.98996e-08
-4.39623e-08
-1.22251e-07
-4.35813e-08
-5.70243e-08
2.72027e-08
-1.69084e-07
6.25886e-08
-1.679e-07
8.13828e-08
-1.27878e-07
9.98719e-08
-1.24618e-07
-5.9322e-08
2.46969e-08
-1.13487e-07
-7.6515e-08
6.08302e-08
-1.13113e-07
-7.28098e-08
8.09546e-08
-1.11484e-07
-1.85605e-08
9.61252e-08
-1.11208e-07
-1.05665e-08
-1.09282e-07
7.65838e-08
2.64012e-08
-1.01205e-07
-1.7076e-07
6.26423e-08
-1.00831e-07
-1.66961e-07
8.28704e-08
-9.9374e-08
-1.11431e-07
9.80736e-08
-9.91165e-08
-1.03194e-07
-9.74059e-08
-1.39309e-08
2.67353e-08
-8.31702e-08
-1.80408e-07
6.29246e-08
-8.28394e-08
-1.76626e-07
8.31204e-08
-8.16334e-08
-1.20957e-07
9.82998e-08
-8.14155e-08
-1.12721e-07
-8.00413e-08
-2.32121e-08
2.78883e-08
-4.84151e-08
-2.40282e-07
6.4151e-08
-4.81605e-08
-2.36462e-07
8.43837e-08
-4.73855e-08
-1.80006e-07
9.95842e-08
-4.72406e-08
-1.71626e-07
-4.64409e-08
-8.08097e-08
2.81605e-08
-2.45995e-07
6.43759e-08
-2.42188e-07
8.45682e-08
-1.85687e-07
9.97408e-08
-1.77317e-07
-8.63905e-08
4.73264e-08
-1.74826e-07
-1.13913e-07
1.01271e-07
-1.749e-07
-1.08652e-07
1.30207e-07
-1.73394e-07
-2.95286e-08
1.55771e-07
-1.7325e-07
-1.80976e-08
-1.70586e-07
1.08591e-07
4.77942e-08
-1.50793e-07
-2.51393e-07
1.02818e-07
-1.50926e-07
-2.4596e-07
1.32392e-07
-1.49684e-07
-1.64715e-07
1.58415e-07
-1.496e-07
-1.52869e-07
-1.47316e-07
-2.27159e-08
4.76771e-08
-1.22753e-07
-2.65191e-07
1.02832e-07
-1.22926e-07
-2.5978e-07
1.32493e-07
-1.22011e-07
-1.78292e-07
1.58594e-07
-1.2199e-07
-1.66432e-07
-1.20243e-07
-3.58633e-08
4.786e-08
-6.78244e-08
-3.5269e-07
1.03722e-07
-6.80547e-08
-3.47199e-07
1.33799e-07
-6.77017e-08
-2.64393e-07
1.6023e-07
-6.77711e-08
-2.52277e-07
-6.69358e-08
-1.19545e-07
4.76379e-08
-3.60685e-07
1.03604e-07
-3.55232e-07
1.33752e-07
-2.72345e-07
1.60258e-07
-2.6024e-07
-1.27314e-07
6.01036e-08
-2.29637e-07
-1.64021e-07
1.31795e-07
-2.29219e-07
-1.55497e-07
1.70713e-07
-2.2609e-07
-4.3999e-08
2.03215e-07
-2.2556e-07
-2.61241e-08
-2.21018e-07
1.52195e-07
6.23222e-08
-1.99572e-07
-3.57758e-07
1.35213e-07
-1.99205e-07
-3.48866e-07
1.7484e-07
-1.96464e-07
-2.33971e-07
2.07773e-07
-1.96008e-07
-2.15355e-07
-1.9201e-07
-3.15535e-08
6.25807e-08
-1.62111e-07
-3.79092e-07
1.35599e-07
-1.61801e-07
-3.70204e-07
1.75282e-07
-1.59583e-07
-2.54858e-07
2.08267e-07
-1.59218e-07
-2.36209e-07
-1.56068e-07
-5.1667e-08
6.40575e-08
-8.97697e-08
-5.02281e-07
1.3784e-07
-8.96095e-08
-4.93176e-07
1.7792e-07
-8.83609e-08
-3.75698e-07
2.11193e-07
-8.81766e-08
-3.56593e-07
-8.64701e-08
-1.68626e-07
6.4215e-08
-5.14665e-07
1.38083e-07
-5.05603e-07
1.7818e-07
-3.87906e-07
2.11482e-07
-3.68803e-07
-1.80456e-07
9.16552e-08
-3.21601e-07
-2.34437e-07
1.9108e-07
-3.2143e-07
-2.2176e-07
2.4456e-07
-3.17291e-07
-6.47794e-08
2.89941e-07
-3.16693e-07
-3.87229e-08
-3.09923e-07
2.11569e-07
9.36731e-08
-2.77802e-07
-5.07676e-07
1.95477e-07
-2.77728e-07
-4.94376e-07
2.5039e-07
-2.7419e-07
-3.3199e-07
2.96698e-07
-2.73695e-07
-3.04665e-07
-2.67804e-07
-4.5649e-08
9.37218e-08
-2.24495e-07
-5.38831e-07
1.95808e-07
-2.24537e-07
-5.25483e-07
2.50895e-07
-2.21872e-07
-3.62266e-07
2.97319e-07
-2.21537e-07
-3.34794e-07
-2.17015e-07
-7.45114e-08
9.4825e-08
-1.2212e-07
-7.12714e-07
1.9846e-07
-1.22319e-07
-6.99032e-07
2.54474e-07
-1.21117e-07
-5.3247e-07
3.01538e-07
-1.21043e-07
-5.04155e-07
-1.18809e-07
-2.38417e-07
9.46293e-08
-7.30492e-07
1.98451e-07
-7.16871e-07
2.54599e-07
-5.49974e-07
3.01774e-07
-5.21608e-07
-2.55223e-07
1.30501e-07
-4.54791e-07
-3.33032e-07
2.71588e-07
-4.53935e-07
-3.13554e-07
3.47284e-07
-4.46711e-07
-9.21472e-08
4.09964e-07
-4.45347e-07
-5.30127e-08
-4.3419e-07
2.99956e-07
1.34856e-07
-3.9388e-07
-7.2056e-07
2.79491e-07
-3.93159e-07
-6.99792e-07
3.57246e-07
-3.86825e-07
-4.69635e-07
4.21131e-07
-3.85667e-07
-4.28237e-07
-3.75777e-07
-6.14218e-08
1.35314e-07
-3.18077e-07
-7.67136e-07
2.80406e-07
-3.17484e-07
-7.46254e-07
3.5839e-07
-3.12374e-07
-5.14707e-07
4.22469e-07
-3.11467e-07
-4.73079e-07
-3.03699e-07
-1.04012e-07
1.38142e-07
-1.7221e-07
-1.0137e-06
2.85531e-07
-1.7198e-07
-9.91928e-07
3.6468e-07
-1.69263e-07
-7.54735e-07
4.29596e-07
-1.68835e-07
-7.11707e-07
-1.64723e-07
-3.33858e-07
1.38368e-07
-1.04062e-06
2.86092e-07
-1.01882e-06
3.65345e-07
-7.80731e-07
4.30382e-07
-7.3759e-07
-3.58449e-07
1.83722e-07
-6.21357e-07
-4.69008e-07
3.74602e-07
-6.20397e-07
-4.39756e-07
4.77184e-07
-6.09554e-07
-1.3148e-07
5.61679e-07
-6.07432e-07
-7.42913e-08
-5.9013e-07
4.15691e-07
1.89564e-07
-5.38198e-07
-1.01099e-06
3.86269e-07
-5.37344e-07
-9.79558e-07
4.92492e-07
-5.27649e-07
-6.57771e-07
5.78976e-07
-5.2561e-07
-5.96551e-07
-5.10262e-07
-8.47855e-08
1.90329e-07
-4.32953e-07
-1.08079e-06
3.87938e-07
-4.32402e-07
-1.04881e-06
4.94526e-07
-4.24991e-07
-7.23961e-07
5.81103e-07
-4.23305e-07
-6.61967e-07
-4.11538e-07
-1.462e-07
1.93847e-07
-2.32908e-07
-1.42638e-06
3.95356e-07
-2.3285e-07
-1.39299e-06
5.04274e-07
-2.29273e-07
-1.05938e-06
5.92024e-07
-2.28483e-07
-9.94285e-07
-2.22474e-07
-4.64942e-07
1.93897e-07
-1.46614e-06
3.95914e-07
-1.43255e-06
5.05155e-07
-1.09755e-06
5.93029e-07
-1.03193e-06
-5.00399e-07
2.70827e-07
-9.02125e-07
-6.63153e-07
5.47966e-07
-8.99679e-07
-6.18155e-07
6.96737e-07
-8.81751e-07
-1.83907e-07
8.16324e-07
-8.78044e-07
-9.72455e-08
-8.50098e-07
5.94248e-07
2.81554e-07
-7.81964e-07
-1.43507e-06
5.67931e-07
-7.79941e-07
-1.38568e-06
7.21886e-07
-7.64197e-07
-9.29289e-07
8.44284e-07
-7.61203e-07
-8.35799e-07
-7.361e-07
-1.10022e-07
2.82549e-07
-6.28264e-07
-1.53965e-06
5.70005e-07
-6.2671e-07
-1.48951e-06
7.24857e-07
-6.1402e-07
-1.029e-06
8.47956e-07
-6.11954e-07
-9.34325e-07
-5.92056e-07
-2.01776e-07
2.8943e-07
-3.36577e-07
-2.03037e-06
5.82698e-07
-3.35874e-07
-1.9771e-06
7.40584e-07
-3.29023e-07
-1.50227e-06
8.65852e-07
-3.28059e-07
-1.40346e-06
-3.17416e-07
-6.48723e-07
2.90138e-07
-2.09183e-06
5.84234e-07
-2.03775e-06
7.42557e-07
-1.55981e-06
8.68239e-07
-1.46027e-06
-7.01193e-07
3.67946e-07
-1.21697e-06
-9.27355e-07
7.36926e-07
-1.21353e-06
-8.59639e-07
9.35333e-07
-1.18615e-06
-2.58784e-07
1.09415e-06
-1.17927e-06
-1.32701e-07
-1.13563e-06
8.20805e-07
3.8321e-07
-1.0589e-06
-2.00154e-06
7.6635e-07
-1.05539e-06
-1.92697e-06
9.74704e-07
-1.02952e-06
-1.29428e-06
1.1378e-06
-1.02274e-06
-1.15543e-06
-9.83362e-07
-1.48591e-07
3.86554e-07
-8.49794e-07
-2.16108e-06
7.72541e-07
-8.46818e-07
-2.08408e-06
9.81412e-07
-8.26268e-07
-1.44114e-06
1.14461e-06
-8.19988e-07
-1.30029e-06
-7.90451e-07
-2.80845e-07
3.96676e-07
-4.54088e-07
-2.84976e-06
7.93149e-07
-4.53004e-07
-2.7674e-06
1.00742e-06
-4.42832e-07
-2.09999e-06
1.17212e-06
-4.39433e-07
-1.94872e-06
-4.23978e-07
-8.97379e-07
3.97684e-07
-2.94158e-06
7.96028e-07
-2.8584e-06
1.01087e-06
-2.18577e-06
1.17555e-06
-2.03213e-06
-9.74016e-07
5.5084e-07
-1.7941e-06
-1.31362e-06
1.09445e-06
-1.78784e-06
-1.20775e-06
1.39179e-06
-1.74507e-06
-3.63626e-07
1.6191e-06
-1.73634e-06
-1.64888e-07
-1.66713e-06
1.18387e-06
5.78043e-07
-1.55247e-06
-2.85159e-06
1.14419e-06
-1.54971e-06
-2.73127e-06
1.45441e-06
-1.51454e-06
-1.83504e-06
1.68834e-06
-1.50996e-06
-1.61576e-06
-1.4474e-06
-1.84144e-07
5.75917e-07
-1.22495e-06
-3.09523e-06
1.1434e-06
-1.22753e-06
-2.97375e-06
1.45895e-06
-1.20516e-06
-2.06608e-06
1.697e-06
-1.20611e-06
-1.84221e-06
-1.15645e-06
-3.90249e-07
5.87071e-07
-6.49408e-07
-4.04382e-06
1.16568e-06
-6.51816e-07
-3.92173e-06
1.49398e-06
-6.40777e-07
-2.99269e-06
1.73977e-06
-6.43232e-07
-2.7574e-06
-6.16088e-07
-1.2532e-06
5.84711e-07
-4.17387e-06
1.16286e-06
-4.05345e-06
1.4964e-06
-3.12424e-06
1.74582e-06
-2.88815e-06
-1.36969e-06
7.38482e-07
-2.41274e-06
-1.81604e-06
1.45747e-06
-2.40141e-06
-1.65741e-06
1.84749e-06
-2.33234e-06
-4.97954e-07
2.13938e-06
-2.31052e-06
-2.00292e-07
-2.20096e-06
1.65374e-06
7.75372e-07
-2.10102e-06
-3.97452e-06
1.52863e-06
-2.09403e-06
-3.79192e-06
1.94777e-06
-2.03443e-06
-2.5521e-06
2.24906e-06
-2.0182e-06
-2.20938e-06
-1.91823e-06
-2.2455e-07
7.83845e-07
-1.67631e-06
-4.34042e-06
1.54085e-06
-1.66857e-06
-4.15624e-06
1.96366e-06
-1.61881e-06
-2.90452e-06
2.27045e-06
-1.60664e-06
-2.56057e-06
-1.53578e-06
-5.31324e-07
8.11787e-07
-8.97116e-07
-5.67353e-06
1.591e-06
-8.92827e-07
-5.4767e-06
2.02354e-06
-8.64759e-07
-4.17929e-06
2.33954e-06
-8.56788e-07
-3.82328e-06
-8.19938e-07
-1.71421e-06
8.15191e-07
-5.8829e-06
1.59769e-06
-5.68407e-06
2.02997e-06
-4.37472e-06
2.35047e-06
-4.01776e-06
-1.88522e-06
1.20173e-06
-3.71014e-06
-2.55278e-06
2.31436e-06
-3.67534e-06
-2.27205e-06
2.88503e-06
-3.55091e-06
-5.94321e-07
3.27031e-06
-3.51703e-06
-1.12801e-07
-3.3408e-06
2.53039e-06
1.28324e-06
-3.39209e-06
-5.61929e-06
2.45312e-06
-3.33516e-06
-5.30199e-06
3.05439e-06
-3.16445e-06
-3.53984e-06
3.44663e-06
-3.13546e-06
-2.9832e-06
-2.96665e-06
-1.42679e-07
1.30121e-06
-2.78991e-06
-6.2893e-06
2.48258e-06
-2.73986e-06
-5.93293e-06
3.08359e-06
-2.5729e-06
-4.0971e-06
3.48012e-06
-2.54246e-06
-3.55012e-06
-2.4048e-06
-6.35975e-07
1.40024e-06
-1.53194e-06
-8.38129e-06
2.6451e-06
-1.50224e-06
-7.95921e-06
3.25311e-06
-1.39781e-06
-5.9624e-06
3.60457e-06
-1.37709e-06
-5.34012e-06
-1.29635e-06
-2.34216e-06
1.4281e-06
-8.83948e-06
2.69286e-06
-8.39505e-06
3.30835e-06
-6.33351e-06
3.63891e-06
-5.67077e-06
-2.63715e-06
1.76886e-06
-5.32266e-06
-3.30059e-06
3.32742e-06
-5.19766e-06
-2.8454e-06
4.00918e-06
-4.85422e-06
-4.97347e-07
4.36269e-06
-4.75055e-06
2.89308e-07
-4.45817e-06
3.90245e-06
1.87637e-06
-5.19063e-06
-7.6853e-06
3.52031e-06
-5.02279e-06
-7.12082e-06
4.30196e-06
-4.59236e-06
-4.58338e-06
4.65606e-06
-4.40947e-06
-3.67839e-06
-4.12099e-06
2.52457e-07
2.01279e-06
-4.45613e-06
-9.09844e-06
3.70948e-06
-4.27276e-06
-8.37967e-06
4.4773e-06
-3.84144e-06
-5.61585e-06
4.75836e-06
-3.6448e-06
-4.59587e-06
-3.4538e-06
-5.47794e-07
2.27031e-06
-2.53856e-06
-1.26385e-05
4.13864e-06
-2.41734e-06
-1.1683e-05
4.90731e-06
-2.15483e-06
-8.41769e-06
5.10311e-06
-2.01019e-06
-7.17053e-06
-1.90042e-06
-2.93138e-06
2.38925e-06
-1.37604e-05
4.32015e-06
-1.26622e-05
5.07614e-06
-9.16311e-06
5.22863e-06
-7.75378e-06
-3.40279e-06
2.94742e-06
-8.62938e-06
-4.02729e-06
5.44773e-06
-8.35604e-06
-3.26525e-06
6.41807e-06
-7.61822e-06
4.72783e-08
6.76882e-06
-7.39608e-06
1.33293e-06
-6.87478e-06
6.33522e-06
3.21902e-06
-8.88115e-06
-1.07209e-05
5.794e-06
-8.44038e-06
-9.61147e-06
7.02253e-06
-7.60053e-06
-5.8296e-06
7.29246e-06
-7.14571e-06
-4.1987e-06
-6.5412e-06
1.28845e-06
3.64309e-06
-8.00093e-06
-1.36967e-05
6.41142e-06
-7.65969e-06
-1.19287e-05
7.46737e-06
-6.57289e-06
-7.69945e-06
7.51689e-06
-5.94633e-06
-5.84477e-06
-5.58764e-06
-7.91301e-09
4.03812e-06
-4.33771e-06
-2.04184e-05
7.50052e-06
-4.20761e-06
-1.85975e-05
8.31252e-06
-3.82073e-06
-1.19819e-05
8.25535e-06
-3.38176e-06
-9.67795e-06
-3.09701e-06
-3.36499e-06
4.1706e-06
-2.22619e-05
7.83825e-06
-2.04454e-05
8.76437e-06
-1.38138e-05
8.53054e-06
-1.08096e-05
-4.14833e-06
3.76682e-06
-1.20161e-05
-4.45593e-06
6.88449e-06
-1.13897e-05
-3.41907e-06
8.0992e-06
-1.0157e-05
1.01211e-06
8.51563e-06
-9.56023e-06
2.72342e-06
-8.65424e-06
9.22683e-06
4.41805e-06
-1.11755e-05
-1.60536e-05
8.0794e-06
-1.09596e-05
-1.37029e-05
9.19547e-06
-1.00626e-05
-7.04011e-06
9.42515e-06
-9.34188e-06
-4.64673e-06
-8.25491e-06
2.66739e-06
4.56499e-06
-8.65756e-06
-2.08543e-05
8.75414e-06
-8.65598e-06
-1.84215e-05
9.90998e-06
-8.93112e-06
-9.98677e-06
1.00296e-05
-8.25871e-06
-7.04759e-06
-7.05099e-06
9.47533e-07
4.61173e-06
-4.83437e-06
-2.89347e-05
8.48292e-06
-4.78165e-06
-2.6343e-05
1.08008e-05
-4.72945e-06
-1.85015e-05
1.12624e-05
-4.5894e-06
-1.38088e-05
-3.9367e-06
-3.53649e-06
4.66121e-06
-3.1748e-05
8.4835e-06
-2.89508e-05
1.10025e-05
-2.09568e-05
1.18925e-05
-1.61781e-05
-4.59421e-06
5.53414e-06
-1.70031e-05
-5.946e-06
9.9709e-06
-1.65105e-05
-3.94967e-06
1.19761e-05
-1.53923e-05
2.29382e-06
1.23024e-05
-1.41898e-05
4.98999e-06
-1.24512e-05
1.25933e-05
5.95103e-06
-1.54734e-05
-2.36114e-05
1.1147e-05
-1.51045e-05
-2.03048e-05
1.37334e-05
-1.48e-05
-1.02188e-05
1.40446e-05
-1.38939e-05
-5.25393e-06
-1.21392e-05
4.92151e-06
6.195e-06
-1.20711e-05
-3.05309e-05
1.12403e-05
-1.17719e-05
-2.67994e-05
1.46362e-05
-1.14163e-05
-1.67663e-05
1.52505e-05
-1.13196e-05
-1.02362e-05
-1.01433e-05
2.21484e-06
6.4594e-06
-6.85297e-06
-4.06971e-05
1.15943e-05
-6.64012e-06
-3.66098e-05
1.49372e-05
-6.37515e-06
-2.68855e-05
1.63578e-05
-6.13515e-06
-2.04139e-05
-5.71603e-06
-4.09142e-06
6.67063e-06
-4.52629e-05
1.18888e-05
-4.07079e-05
1.5293e-05
-3.0629e-05
1.68268e-05
-2.37372e-05
-6.13654e-06
7.20595e-06
-2.07034e-05
-9.42645e-06
1.22148e-05
-2.03964e-05
-4.99016e-06
1.47981e-05
-1.94702e-05
3.49529e-06
1.54216e-05
-1.79258e-05
7.40208e-06
-1.5619e-05
1.65207e-05
7.59083e-06
-1.98124e-05
-3.21829e-05
1.34165e-05
-1.91774e-05
-2.73495e-05
1.71345e-05
-1.81581e-05
-1.52489e-05
1.77327e-05
-1.73437e-05
-6.43423e-06
-1.50207e-05
7.32679e-06
8.01483e-06
-1.58464e-05
-4.26038e-05
1.41551e-05
-1.52247e-05
-3.68923e-05
1.7944e-05
-1.43827e-05
-2.43306e-05
1.92659e-05
-1.36448e-05
-1.5257e-05
-1.24589e-05
3.39914e-06
8.57316e-06
-9.22127e-06
-5.59986e-05
1.49989e-05
-8.79854e-06
-4.94618e-05
1.89579e-05
-8.24065e-06
-3.69865e-05
2.01765e-05
-7.81856e-06
-2.74588e-05
-7.4437e-06
-5.18744e-06
8.99357e-06
-6.34635e-05
1.5615e-05
-5.60007e-05
1.95817e-05
-4.26986e-05
2.04539e-05
-3.22853e-05
-9.69312e-06
1.05978e-05
-3.12772e-05
-1.45007e-05
1.89276e-05
-3.00116e-05
-7.95782e-06
2.25438e-05
-2.8989e-05
5.18021e-06
2.42419e-05
-2.67706e-05
1.02221e-05
-2.44385e-05
2.38294e-05
1.18469e-05
-3.14163e-05
-4.39896e-05
2.05306e-05
-2.97496e-05
-3.62952e-05
2.54434e-05
-2.79772e-05
-2.11736e-05
2.65721e-05
-2.56619e-05
-8.67164e-06
-2.27662e-05
1.0148e-05
1.3092e-05
-2.58349e-05
-6.13783e-05
2.23987e-05
-2.42319e-05
-5.17167e-05
2.77593e-05
-2.26349e-05
-3.50335e-05
2.87856e-05
-2.07698e-05
-2.11754e-05
-1.91754e-05
5.07704e-06
1.42007e-05
-1.56356e-05
-8.05099e-05
2.39951e-05
-1.44434e-05
-6.90446e-05
2.95276e-05
-1.33324e-05
-5.18214e-05
2.97929e-05
-1.20853e-05
-3.64086e-05
-1.08157e-05
-8.23543e-06
1.53932e-05
-9.44783e-05
2.55963e-05
-8.05125e-05
3.11908e-05
-6.14811e-05
3.10702e-05
-4.41013e-05
-1.47741e-05
1.37288e-05
-4.26643e-05
-1.98872e-05
2.36954e-05
-4.01062e-05
-1.01983e-05
2.90022e-05
-3.74411e-05
6.76601e-06
3.0165e-05
-3.40616e-05
1.50114e-05
-3.04504e-05
3.35593e-05
1.63482e-05
-4.45608e-05
-5.85579e-05
2.74899e-05
-4.12987e-05
-4.62445e-05
3.36993e-05
-3.7831e-05
-2.69931e-05
3.37795e-05
-3.39896e-05
-8.82383e-06
-2.92928e-05
1.49087e-05
1.87218e-05
-3.80465e-05
-8.67333e-05
3.10188e-05
-3.45897e-05
-7.07227e-05
3.75326e-05
-3.13311e-05
-4.80472e-05
3.71554e-05
-2.78003e-05
-2.69875e-05
-2.40134e-05
6.66044e-06
2.1228e-05
-2.4213e-05
-0.000115709
3.42839e-05
-2.15349e-05
-9.51554e-05
4.10043e-05
-1.90313e-05
-7.08416e-05
3.98232e-05
-1.66532e-05
-4.63746e-05
-1.4027e-05
-1.0529e-05
2.39046e-05
-0.000142573
3.77318e-05
-0.0001157
4.42542e-05
-8.6844e-05
4.23703e-05
-5.86726e-05
-2.01766e-05
2.24646e-05
-6.95121e-05
-2.57109e-05
3.78005e-05
-6.3744e-05
-1.09517e-05
4.62104e-05
-5.89454e-05
1.09142e-05
4.69054e-05
-5.24861e-05
2.48236e-05
-4.71995e-05
5.10158e-05
2.74387e-05
-7.75556e-05
-7.8085e-05
4.46475e-05
-6.92622e-05
-5.79351e-05
5.35822e-05
-6.23873e-05
-3.2486e-05
5.21913e-05
-5.38878e-05
-6.03109e-06
-4.6507e-05
2.46887e-05
3.40458e-05
-6.9177e-05
-0.000129293
5.32652e-05
-6.037e-05
-9.88343e-05
6.20795e-05
-5.35913e-05
-6.56575e-05
5.86504e-05
-4.49735e-05
-3.24728e-05
-3.81215e-05
1.08008e-05
3.94821e-05
-4.69962e-05
-0.000177527
6.00497e-05
-3.98032e-05
-0.00013629
6.89624e-05
-3.43692e-05
-9.89764e-05
6.34585e-05
-2.77692e-05
-5.80751e-05
-2.27851e-05
-1.13154e-05
4.66791e-05
-0.000236223
6.88478e-05
-0.00017748
7.72473e-05
-0.000129402
6.92167e-05
-7.81973e-05
-2.60056e-05
3.08052e-05
-9.84038e-05
-2.87573e-05
4.99682e-05
-8.70577e-05
-6.64262e-06
5.97234e-05
-7.87217e-05
2.06074e-05
5.78341e-05
-6.73784e-05
4.24778e-05
-5.82486e-05
7.51347e-05
4.01805e-05
-0.000117648
-9.91764e-05
6.18629e-05
-0.000100748
-6.59269e-05
7.2156e-05
-8.81088e-05
-3.33921e-05
6.69708e-05
-7.25666e-05
4.34242e-06
-6.01353e-05
4.2314e-05
5.28823e-05
-0.000110485
-0.000189493
7.81567e-05
-9.15546e-05
-0.000133302
8.76833e-05
-7.85912e-05
-8.47017e-05
7.83009e-05
-6.22887e-05
-3.33684e-05
-5.03907e-05
2.0478e-05
6.45826e-05
-8.09625e-05
-0.000271812
9.1127e-05
-6.49912e-05
-0.000189398
0.000100346
-5.32874e-05
-0.000133499
8.66621e-05
-4.0595e-05
-6.60852e-05
-3.12052e-05
-7.04615e-06
8.0564e-05
-0.000397713
0.000110051
-0.000271722
0.000117216
-0.000189579
9.79824e-05
-9.92736e-05
-2.90343e-05
5.0663e-05
-0.000164671
-2.44196e-05
8.05832e-05
-0.000141176
7.97694e-06
9.36296e-05
-0.000126545
4.45754e-05
8.76731e-05
-0.000104328
7.68427e-05
-8.8088e-05
0.000116043
6.79308e-05
-0.000205589
-0.000126368
0.000101058
-0.00017013
-7.00991e-05
0.000115265
-0.000146701
-2.74447e-05
0.000103917
-0.000115675
2.70376e-05
-9.40193e-05
7.66388e-05
9.5252e-05
-0.000203545
-0.000286967
0.00013452
-0.000160614
-0.000182086
0.000146281
-0.000134966
-0.000108198
0.000126125
-0.0001015
-2.73869e-05
-8.09679e-05
4.44263e-05
0.000118372
-0.000158328
-0.000435626
0.000160195
-0.000118781
-0.000273054
0.000169738
-9.56631e-05
-0.000182344
0.000140809
-6.8353e-05
-7.0304e-05
-5.10757e-05
7.61037e-06
0.000157937
-0.000713935
0.000203081
-0.000435376
0.000205144
-0.000286995
0.00016424
-0.000126409
-2.46408e-05
7.15917e-05
-0.000241272
-2.18674e-06
0.000105665
-0.000194212
4.68307e-05
0.000117691
-0.000170306
9.0671e-05
0.000105325
-0.000129278
0.000129744
-0.000105913
0.000170848
0.00010273
-0.000331826
-0.000138735
0.000139737
-0.000252457
-4.88609e-05
0.000154306
-0.000209859
-2.46116e-06
0.000128694
-0.000154868
7.82392e-05
-0.000118237
0.000129489
0.000159229
-0.000366788
-0.000411406
0.000205317
-0.000258699
-0.000221933
0.000209284
-0.000205842
-0.000116182
0.000169727
-0.000140315
-2.38206e-06
-0.000106215
9.0518e-05
0.000217146
-0.000324755
-0.000694981
0.00025812
-0.00021766
-0.000355067
0.000251882
-0.000159684
-0.000222264
0.000193652
-0.000103266
-4.91228e-05
-7.19846e-05
4.62908e-05
0.000324399
-0.00136303
0.000366284
-0.000694674
0.000331216
-0.000411248
0.000240725
-0.000138795
-2.22034e-06
0.00010667
-0.000388476
5.83771e-05
0.000155259
-0.000299643
0.000119501
0.000168001
-0.000251499
0.00016833
0.000147721
-0.000184267
0.000210273
-0.00014833
0.000250861
0.000161918
-0.000560231
-0.000129161
0.000220331
-0.000407266
3.49602e-07
0.000225566
-0.00032905
6.98551e-05
0.00018367
-0.000226111
0.00016198
-0.000168538
0.000209973
0.000274875
-0.000681299
-0.000565463
0.000340495
-0.000450946
-0.000243874
0.000328474
-0.000341085
-9.21261e-05
0.000250861
-0.000220918
7.00374e-05
-0.00015583
0.000168236
0.000392344
-0.000636248
-0.00113282
0.000450498
-0.000392781
-0.000471386
0.000406769
-0.000275355
-0.000244264
0.000299114
-0.000162471
8.51302e-08
-0.000107207
0.000118985
0.000635563
-0.00263482
0.000680631
-0.00113208
0.000559458
-0.000564923
0.000387685
-0.000129041
5.84383e-05
0.00014528
-0.000586023
0.000201308
0.000192893
-0.000396598
0.00025925
0.000199484
-0.000323839
0.000295228
0.000164991
-0.000212636
0.000325239
-0.000165724
0.000349869
0.000257523
-0.000967241
-5.72882e-06
0.000291092
-0.000603743
0.000173925
0.000279949
-0.000466088
0.000223247
0.000211855
-0.00028074
0.000298178
-0.000200133
0.000324882
0.000487326
-0.00145927
-0.000560924
0.000534225
-0.000772597
-0.000121919
0.000465397
-0.000534559
4.51717e-05
0.000323175
-0.000291881
0.000223401
-0.000193461
0.000295087
0.000805464
-0.00161241
-0.00178513
0.000771852
-0.000805856
-0.000404514
0.000602905
-0.000487406
-0.00012247
0.000395917
-0.000258175
0.000173366
-0.000145749
0.000258596
0.00161358
-0.001411
-0.00128265
-0.00175675
-0.00141037
0.00145906
-0.00178354
0.00096628
-0.000559077
0.000585326
-5.773e-06
0.000201465
0.000186826
-0.000821209
0.000429419
0.00024494
-0.000535201
0.000456711
0.000243983
-0.000420668
0.000469059
0.000202109
-0.000267711
0.000468903
-0.000202999
0.000465825
0.000333193
-0.00151039
0.000349815
0.000388576
-0.000873236
0.000456577
0.000358471
-0.000616887
0.000449572
0.000266854
-0.000359296
0.00048138
-0.000244738
0.000468546
0.000738808
-0.00280732
-3.3158e-06
0.000779514
-0.00129286
0.000256996
0.000615955
-0.000780142
0.000371986
0.000419742
-0.000389365
0.000449684
-0.000245661
0.000469024
0.00146927
-0.000624817
-0.000394819
-0.000331915
-0.00102353
-0.000670932
-0.000710921
-0.0013101
-0.000995693
0.00129268
-0.0014694
-5.13823e-05
0.000872558
-0.000739054
0.000256565
0.000534562
-0.000333952
0.00045595
-0.000187398
0.000456129
0.000490103
-0.00045022
-0.00207806
0.0028063
-0.000667093
-0.000333429
-0.00102374
-0.000392745
-0.000710337
-0.000624297
-0.000995819
-0.00131081
0.00150836
1.07823e-06
0.000819949
0.000349294
0.000429823
0.000215084
-0.00106522
0.000826159
0.00025549
-0.000599042
0.000747323
0.000238975
-0.000449836
0.00069752
0.000185822
-0.000252688
0.000631743
-0.000186621
0.000586841
0.000420709
-0.00215884
0.0010222
0.000428269
-0.00102674
0.000876711
0.000358334
-0.000719774
0.000789444
0.000251697
-0.000359514
0.000694842
-0.000239654
0.000631313
0.0011045
-0.00125934
0.00176064
-0.00108979
-0.00150298
-0.0011759
0.00103704
-0.0019332
0.00123092
0.000718913
-0.00103624
0.00100658
0.000449265
-0.000429652
0.00078947
-0.000255863
0.000697237
0.000494105
-0.00207211
-7.72028e-05
0.00193305
-0.000840608
0.00059165
0.000414297
0.000758768
0.000591146
-0.000625747
-0.0008427
-0.000519592
-0.00114854
-0.000626667
-0.00115205
-0.000517597
0.00102575
-0.00110307
0.00123069
0.000598562
-0.00042233
0.000875819
-0.000215307
0.000746508
0.000799988
0.000683224
0.000267632
-0.000879049
-0.000872565
-0.00197076
0.00151602
-0.000808356
-0.000244609
0.00215764
0.00176318
-0.00109011
-0.00125801
-0.00117274
-0.00150078
0.00106422
0.00102095
0.000825861
0.000160181
-0.000850101
0.00112357
0.00022013
-0.000516279
0.000972369
0.000205307
-0.000390132
0.000867147
0.000171119
-0.000224689
0.000758156
-0.0001724
0.000667409
0.000327731
-0.00153249
0.00137623
0.000345036
-0.000814202
0.00115733
0.000307053
-0.000602171
0.00103946
0.00022347
-0.000308307
0.000862044
-0.000206297
0.000757737
0.000752915
-0.00136619
0.0027023
-0.0010191
-0.000485839
-0.000356909
0.000821209
-0.000622095
0.00183245
-0.000435602
-0.000215636
-0.000210695
0.000601192
-0.000820763
0.00144518
0.000388949
-0.000346485
0.00103989
-0.000221056
0.000867206
0.000501974
0.00137503
-0.000668794
-0.000557529
-0.000740274
-0.000707634
-0.000569373
-0.000607549
0.000532796
-0.000755265
0.000799572
0.000813622
-0.000753375
0.00182978
-0.000434605
-0.000621756
-0.00020957
-0.000214168
0.000515422
-0.00032914
0.00115667
-0.000161094
0.000971816
0.00106725
0.00220832
0.000396974
-0.000332739
-0.0033399
-0.000668647
0.000337874
-0.000307454
-0.0003809
0.000481188
0.000537939
0.00153164
0.0027018
-0.00101751
-0.00136404
-0.000356351
-0.000483353
0.000849043
0.00137474
0.0011234
-4.53637e-06
-3.87807e-05
0.000991581
3.09164e-05
-7.566e-05
0.000912307
5.32713e-05
-8.36088e-05
0.000843148
6.25829e-05
-7.46107e-05
0.000762605
-6.34558e-05
0.000679281
8.36679e-05
5.10996e-05
0.00120186
8.97285e-05
-2.43716e-05
0.00109998
7.86667e-05
-2.71e-05
0.000994018
7.33879e-05
-8.05234e-05
0.000873235
-5.38308e-05
0.000761901
-0.000172576
0.000155613
0.00155747
0.00023478
0.000567728
0.000408909
-9.76224e-05
0.000384896
0.00134823
2.67529e-05
0.000100402
0.00119331
8.33643e-05
-9.27686e-05
0.000995525
-3.05477e-05
0.000842465
-8.43144e-05
0.00101509
0.000461803
-0.00123943
-0.000383552
0.00047665
0.0012478
9.01476e-05
0.000479325
6.63292e-05
0.000677572
9.18356e-05
0.000675033
5.69223e-05
-0.000676442
-0.000615884
-0.00112437
-0.000676472
2.44535e-05
0.000177323
0.00134486
7.597e-05
-8.75905e-05
0.00109998
5.54387e-06
0.000911008
-0.000504622
0.00347024
-0.000319009
0.000255911
-0.00290105
0.000306139
-0.000763646
0.000505949
0.000393529
0.000549653
0.00037601
0.000591268
-0.000392681
-0.000419764
-0.000273154
-0.000396655
-4.2724e-05
0.00154867
0.000237632
0.000150166
0.000414783
0.000572744
3.8489e-05
0.00120591
0.000989819
-6.13539e-05
3.84658e-05
0.000852996
-3.36723e-05
1.6819e-05
0.000829716
-1.68191e-05
-1.86889e-06
0.000769433
1.71557e-05
-1.3896e-05
0.000722193
-1.91731e-05
0.000634226
6.56919e-05
-3.36442e-05
0.00120662
3.1187e-05
7.53219e-05
0.00107598
3.09342e-06
9.50506e-05
0.000925192
1.25496e-05
-4.39018e-06
0.000854273
1.4924e-05
0.0007222
-0.000273902
0.00038007
0.00105977
0.000347181
-0.000102572
0.000114387
-0.000195554
0.000227374
0.00111783
-9.8792e-05
0.000190666
0.00100093
-9.05568e-07
-3.20201e-05
0.000925269
3.18686e-05
0.000769238
0.000302691
-3.33414e-06
0.000607505
-0.000527143
-0.000221402
0.000198427
0.000334058
0.000271722
0.000267928
0.000333465
-8.42414e-06
0.000181079
0.000211157
-0.000155134
-2.20349e-06
-0.000147804
0.00021231
-7.56236e-05
0.000270774
0.00111897
-1.70281e-05
-6.7598e-05
0.00107696
6.01844e-05
0.00082969
0.00830008
-0.00098435
0.000451746
-0.00080109
-0.00184775
-0.00161846
-0.00156967
-0.0019284
0.000518283
0.00105893
-0.0006119
0.000215568
-0.00098245
2.66192e-05
0.00105889
0.000353068
0.000394984
9.03516e-05
-0.000104731
-4.17616e-05
0.00120784
0.000852417
-1.94823e-05
-2.49755e-06
0.000942157
-2.50533e-05
8.08701e-05
0.000857073
-4.05663e-05
6.06768e-05
0.000760152
-2.55056e-05
6.96897e-05
0.000687242
2.36404e-05
0.000592667
-2.41362e-05
-0.00013586
0.00136153
-7.66121e-05
8.10652e-05
0.00112826
-8.62207e-05
2.86705e-05
0.000966807
-7.09788e-05
8.52835e-05
0.000823438
3.90552e-05
0.000687571
0.000115831
-0.000598628
0.00207302
-0.000335426
-0.000255507
-7.96263e-05
7.05063e-05
-0.000269809
0.00161714
-8.50007e-05
-8.96586e-05
7.15457e-05
-3.13611e-05
-7.20377e-05
0.00120351
-6.27128e-05
7.57504e-05
0.000966154
2.3665e-05
0.000760326
0.000279882
0.000443922
0.000369527
-0.000433573
-0.000421233
-0.000405814
-0.000430341
-0.000207968
0.000140983
-0.000390932
0.000522165
-8.28422e-05
-0.000117836
0.00162096
-8.56566e-05
-0.000270175
7.18664e-05
-8.93827e-05
-8.13527e-05
2.2384e-05
0.00112884
1.85853e-05
0.000857853
0.00153323
0.000946055
0.000333558
-0.000893562
-0.00191706
-0.000353752
0.000857751
-0.000667807
-0.000386261
-0.000727921
0.000628094
0.000241008
0.000245649
0.000255464
0.000202129
0.00046638
-0.000244255
-0.000171734
-0.000217194
-0.000127551
0.000130337
0.00207962
-0.000338326
-0.000594289
-8.20467e-05
-0.00025379
7.1809e-07
0.001361
0.000943603
-0.000134915
0.000640005
0.000776552
-0.000158486
0.000456773
0.000697276
-0.000157289
0.000299277
0.000625824
-0.000109823
0.000201231
0.000571614
0.000108381
0.000496968
-0.000260205
0.00130966
0.000952095
-0.000320664
0.000816091
0.000829404
-0.000284888
0.000477201
0.000753108
-0.000202598
0.000283601
0.000658778
0.000156383
0.000571866
-0.000523697
0.000229065
0.0016934
0.000316473
0.000878439
0.000791797
-0.000608768
0.00136835
0.00114996
-0.000478336
0.000609532
0.000940742
-0.000300855
0.000319195
0.000753078
0.000158033
0.000626034