/*--------------------------------*- C++ -*----------------------------------*\
| =========                 |                                                 |
| \\      /  F ield         | OpenFOAM: The Open Source CFD Toolbox           |
|  \\    /   O peration     | Version:  5.x                                   |
|   \\  /    A nd           | Web:      www.OpenFOAM.org                      |
|    \\/     M anipulation  |                                                 |
\*---------------------------------------------------------------------------*/
FoamFile
{
    version     2.0;
    format      ascii;
    class       volScalarField;
    location    "0.051";
    object      phiIB;
}
// * * * * * * * * * * * * * * * * * * * * * * * * * * * * * * * * * * * * * //

dimensions      [0 2 -1 0 0 0 0];

internalField   nonuniform List<scalar> 
1553
(
-7.77327e-05
-7.77316e-05
-7.77427e-05
-7.77425e-05
-7.77673e-05
-7.77023e-05
-7.77011e-05
-7.77123e-05
-7.77122e-05
-7.77372e-05
-7.77039e-05
-7.77026e-05
-7.77136e-05
-7.77135e-05
-7.77385e-05
-7.76894e-05
-7.7688e-05
-7.76991e-05
-7.76989e-05
-7.7724e-05
-7.76923e-05
-7.76908e-05
-7.77018e-05
-7.77016e-05
-7.77267e-05
-0.000170381
-0.000170382
-0.000170387
-0.000170392
-0.000170399
-0.00017037
-0.000170371
-0.000170376
-0.000170381
-0.000170389
-0.000170363
-0.000170365
-0.000170369
-0.000170374
-0.000170382
-0.000170356
-0.000170357
-0.000170362
-0.000170367
-0.000170375
-0.000170353
-0.000170355
-0.00017036
-0.000170365
-0.000170373
-0.000358006
-0.000358006
-0.000358022
-0.00035803
-0.000358061
-0.000357968
-0.000357968
-0.000357984
-0.000357992
-0.000358023
-0.000357958
-0.000357959
-0.000357974
-0.000357982
-0.000358014
-0.000357937
-0.000357938
-0.000357953
-0.000357961
-0.000357993
-0.000357935
-0.000357936
-0.000357951
-0.000357959
-0.00035799
-0.000488834
-0.000488836
-0.000488851
-0.000488864
-0.000488895
-0.000488795
-0.000488797
-0.000488813
-0.000488826
-0.000488857
-0.00048878
-0.000488782
-0.000488798
-0.000488811
-0.000488842
-0.000488758
-0.00048876
-0.000488776
-0.000488789
-0.000488821
-0.000488753
-0.000488755
-0.000488771
-0.000488784
-0.000488816
-0.000661157
-0.000661159
-0.000661184
-0.000661201
-0.000661251
-0.000661097
-0.000661099
-0.000661125
-0.000661142
-0.000661193
-0.000661077
-0.000661079
-0.000661105
-0.000661122
-0.000661173
-0.000661044
-0.000661046
-0.000661071
-0.000661089
-0.00066114
-0.000661038
-0.00066104
-0.000661066
-0.000661083
-0.000661135
-0.000803825
-0.000803828
-0.000803862
-0.000803885
-0.000803952
-0.000803746
-0.000803749
-0.000803783
-0.000803807
-0.000803876
-0.000803718
-0.000803721
-0.000803756
-0.00080378
-0.000803849
-0.000803674
-0.000803677
-0.000803712
-0.000803736
-0.000803806
-0.000803666
-0.000803669
-0.000803704
-0.000803728
-0.000803798
-0.00096755
-0.000967554
-0.000967601
-0.000967634
-0.000967728
-0.000967442
-0.000967446
-0.000967494
-0.000967527
-0.000967622
-0.000967403
-0.000967408
-0.000967456
-0.000967489
-0.000967585
-0.000967343
-0.000967348
-0.000967397
-0.000967431
-0.000967528
-0.000967332
-0.000967338
-0.000967387
-0.000967421
-0.000967518
-0.00111604
-0.00111605
-0.00111611
-0.00111616
-0.00111629
-0.00111589
-0.00111589
-0.00111596
-0.00111601
-0.00111614
-0.00111583
-0.00111584
-0.00111591
-0.00111596
-0.00111609
-0.00111575
-0.00111576
-0.00111583
-0.00111587
-0.00111601
-0.00111574
-0.00111575
-0.00111581
-0.00111586
-0.001116
-0.00127457
-0.00127458
-0.00127466
-0.00127473
-0.00127491
-0.00127436
-0.00127437
-0.00127446
-0.00127453
-0.00127471
-0.00127429
-0.0012743
-0.00127439
-0.00127446
-0.00127464
-0.00127418
-0.00127419
-0.00127428
-0.00127435
-0.00127454
-0.00127416
-0.00127417
-0.00127426
-0.00127433
-0.00127452
-0.00142578
-0.00142579
-0.00142593
-0.00142602
-0.00142629
-0.00142548
-0.00142549
-0.00142563
-0.00142572
-0.001426
-0.00142538
-0.00142539
-0.00142553
-0.00142562
-0.0014259
-0.00142523
-0.00142524
-0.00142537
-0.00142546
-0.00142575
-0.00142521
-0.00142522
-0.00142535
-0.00142544
-0.00142572
-0.0015807
-0.00158072
-0.00158091
-0.00158105
-0.00158142
-0.00158029
-0.00158031
-0.00158051
-0.00158065
-0.00158103
-0.00158013
-0.00158016
-0.00158035
-0.0015805
-0.00158088
-0.00157992
-0.00157994
-0.00158014
-0.00158028
-0.00158067
-0.00157988
-0.0015799
-0.0015801
-0.00158024
-0.00158063
-0.00173222
-0.00173228
-0.00173258
-0.00173281
-0.00173337
-0.0017316
-0.00173166
-0.00173197
-0.0017322
-0.00173278
-0.0017313
-0.00173137
-0.0017317
-0.00173196
-0.00173255
-0.00173091
-0.00173099
-0.00173134
-0.00173162
-0.00173222
-0.00173081
-0.0017309
-0.00173125
-0.00173154
-0.00173215
-0.00188396
-0.00188407
-0.00188451
-0.00188483
-0.00188558
-0.00188306
-0.00188318
-0.00188367
-0.00188403
-0.0018848
-0.00188261
-0.00188276
-0.00188327
-0.00188366
-0.00188447
-0.00188197
-0.00188217
-0.00188273
-0.00188314
-0.00188399
-0.0018817
-0.00188195
-0.00188256
-0.001883
-0.00188387
-0.0020332
-0.0020334
-0.00203413
-0.00203453
-0.00203557
-0.002032
-0.00203221
-0.00203294
-0.0020334
-0.0020345
-0.00203099
-0.00203136
-0.00203232
-0.00203292
-0.00203408
-0.00202938
-0.00202996
-0.00203131
-0.00203216
-0.00203332
-0.00202863
-0.00202934
-0.00203091
-0.00203193
-0.0020331
-0.00218013
-0.00218026
-0.00218096
-0.00218136
-0.00218256
-0.00217828
-0.00217859
-0.00217956
-0.00218006
-0.00218133
-0.00217748
-0.00217767
-0.00217876
-0.00217955
-0.00218093
-0.00217751
-0.00217723
-0.00217762
-0.00217852
-0.00218018
-0.0021781
-0.0021775
-0.00217742
-0.0021782
-0.00218004
-0.00232081
-0.00232044
-0.00232076
-0.00232051
-0.00232162
-0.0023187
-0.00231838
-0.00231917
-0.00231931
-0.00232047
-0.00232092
-0.00231963
-0.00231909
-0.00231918
-0.00232074
-0.00232539
-0.00232286
-0.00231962
-0.00231837
-0.00232039
-0.00232853
-0.00232544
-0.00232096
-0.00231869
-0.00232075
-0.0024504
-0.00244959
-0.00244918
-0.00244826
-0.00244981
-0.00245131
-0.00244941
-0.00244758
-0.00244658
-0.00244821
-0.00245556
-0.00245316
-0.00244972
-0.00244761
-0.00244915
-0.00245829
-0.00245617
-0.00245316
-0.00244942
-0.00244952
-0.00246041
-0.00245833
-0.00245559
-0.00245135
-0.00245032
-0.00255982
-0.00255904
-0.0025587
-0.00255801
-0.00256196
-0.0025604
-0.00255907
-0.00255728
-0.00255517
-0.00255797
-0.00256268
-0.0025616
-0.00256038
-0.0025573
-0.00255865
-0.00256198
-0.00256147
-0.00256156
-0.00255903
-0.00255893
-0.00256217
-0.00256198
-0.00256264
-0.00256039
-0.00255978
-0.00264972
-0.00264874
-0.00264976
-0.0026513
-0.00265733
-0.00264437
-0.00264474
-0.00264631
-0.00264662
-0.00265121
-0.0026412
-0.00264243
-0.0026453
-0.0026463
-0.00264967
-0.00263633
-0.00263831
-0.00264232
-0.00264464
-0.00264861
-0.00263372
-0.00263629
-0.00264106
-0.00264426
-0.00264965
-0.00271309
-0.00271364
-0.00271724
-0.00272222
-0.00273087
-0.00269992
-0.00270213
-0.00270804
-0.00271329
-0.00272209
-0.00269025
-0.00269395
-0.00270165
-0.00270801
-0.0027171
-0.00267985
-0.00268475
-0.0026938
-0.00270197
-0.00271343
-0.00267406
-0.00267979
-0.00269004
-0.00269971
-0.00271279
-0.00275679
-0.00275967
-0.002767
-0.00277466
-0.00278643
-0.00273747
-0.00274238
-0.00275154
-0.00276114
-0.0027745
-0.00271989
-0.00272731
-0.00273922
-0.00275148
-0.00276679
-0.00270449
-0.00271365
-0.00272711
-0.00274214
-0.0027593
-0.00269384
-0.0027044
-0.00271962
-0.00273716
-0.00275633
-0.00278597
-0.00278926
-0.00279901
-0.00280728
-0.00282216
-0.00275904
-0.00276459
-0.00277649
-0.00278855
-0.00280711
-0.00274103
-0.00274755
-0.00276125
-0.00277643
-0.00279877
-0.00272663
-0.00273319
-0.00274731
-0.00276431
-0.0027888
-0.00272116
-0.00272658
-0.00274073
-0.0027587
-0.00278544
-0.00280065
-0.00280625
-0.002818
-0.00282848
-0.00284771
-0.00276299
-0.00277356
-0.00278793
-0.00280552
-0.00282828
-0.00273007
-0.00274539
-0.00276402
-0.00278787
-0.00281777
-0.00270501
-0.00272525
-0.0027452
-0.00277325
-0.00280574
-0.00267481
-0.00270486
-0.00272979
-0.0027626
-0.0028001
-0.00282907
-0.00282965
-0.00283621
-0.00284083
-0.00286059
-0.00279219
-0.00279619
-0.00280712
-0.00281769
-0.00284059
-0.00277494
-0.00277936
-0.00279184
-0.0028071
-0.00283591
-0.00275915
-0.00276521
-0.00277901
-0.0027958
-0.00282894
-0.00276789
-0.00275915
-0.00277456
-0.00279176
-0.00282828
-0.0028064
-0.00281316
-0.00282357
-0.00283527
-0.00286321
-0.0027393
-0.0027634
-0.00278171
-0.00280355
-0.00283512
-0.00266333
-0.00271041
-0.00274113
-0.00278168
-0.00282351
-0.00260676
-0.00267635
-0.00271036
-0.00276314
-0.00281283
-0.00245421
-0.0026064
-0.0026632
-0.0027389
-0.00280598
-0.00284128
-0.00283944
-0.00284361
-0.00284611
-0.00287333
-0.00279115
-0.00279676
-0.00280092
-0.00281118
-0.00284574
-0.00278278
-0.00278142
-0.00279039
-0.0028009
-0.00284324
-0.00272711
-0.00276395
-0.00278091
-0.00279621
-0.00283872
-0.00281643
-0.0027272
-0.00278233
-0.00279067
-0.00284073
-0.00276088
-0.00277144
-0.00278598
-0.0028054
-0.00284584
-0.00265062
-0.00268369
-0.00270803
-0.00275153
-0.00280537
-0.00248789
-0.00261038
-0.00264975
-0.00270783
-0.00278611
-0.00240458
-0.0025752
-0.00261032
-0.00268317
-0.00277134
-0.0016064
-0.00240312
-0.00248757
-0.00264972
-0.00276103
-0.00279881
-0.00279761
-0.00280991
-0.00281098
-0.00285072
-0.00264778
-0.00270994
-0.0027389
-0.00276093
-0.00281057
-0.00255449
-0.00266691
-0.00270622
-0.0027386
-0.00280942
-0.00237097
-0.00271374
-0.00266619
-0.00270872
-0.00279655
-0.00257585
-0.0023726
-0.00255306
-0.00264598
-0.00279774
-0.00273524
-0.00272082
-0.0027411
-0.00274931
-0.00279117
-0.00251661
-0.00256629
-0.00263904
-0.00268201
-0.00274959
-0.00250006
-0.00250251
-0.00259836
-0.00263846
-0.00274155
-0.00224491
-0.00220334
-0.00250267
-0.00256516
-0.00272098
-0.00112127
-0.00192485
-0.00250414
-0.00251433
-0.00273578
-0.00282276
-0.00277367
-0.00278466
-0.00275483
-0.00279225
-0.00274554
-0.00270014
-0.00273445
-0.00271573
-0.00275453
-0.00286388
-0.00279232
-0.00278528
-0.00273342
-0.00278386
-0.00284499
-0.00269145
-0.00279204
-0.00269779
-0.00277202
-0.00129531
-0.00267385
-0.00286494
-0.00274174
-0.00282058
-0.00266204
-0.00263952
-0.00266612
-0.00265523
-0.00268611
-0.00258496
-0.00258253
-0.00259951
-0.00262286
-0.0026557
-0.00251027
-0.00251867
-0.00257112
-0.00259805
-0.00266585
-0.00261114
-0.00244649
-0.00251739
-0.00257959
-0.00263815
-0.00364889
-0.0029365
-0.00251068
-0.00258019
-0.00266028
-0.00262956
-0.00262787
-0.00265094
-0.00262676
-0.00266217
-0.00257767
-0.00256213
-0.00259249
-0.00259944
-0.00262682
-0.00237585
-0.00251925
-0.00255857
-0.00259017
-0.0026495
-0.00212578
-0.00241007
-0.00251973
-0.00255837
-0.00262471
-0.00139144
-0.00232025
-0.00237274
-0.00257315
-0.00262603
-0.00250768
-0.00248282
-0.00250181
-0.00249073
-0.00250993
-0.00250837
-0.00248054
-0.00247525
-0.00248709
-0.00249049
-0.00248649
-0.00240612
-0.00247253
-0.00247449
-0.00250095
-0.00210642
-0.00237038
-0.00240171
-0.00247672
-0.0024785
-0.00133181
-0.00200405
-0.00248268
-0.00250306
-0.00250386
-0.00260474
-0.00257635
-0.00255106
-0.00251364
-0.00252229
-0.002615
-0.00258592
-0.00257157
-0.00251791
-0.00251327
-0.00290842
-0.00276072
-0.00263354
-0.00257017
-0.00255057
-0.00274992
-0.0027362
-0.00275954
-0.0025814
-0.00257411
-0.00524865
-0.00326619
-0.00290936
-0.00260314
-0.00260365
-0.00231024
-0.00229917
-0.00230702
-0.00228842
-0.00229934
-0.00230374
-0.00223603
-0.00228565
-0.00227257
-0.00228648
-0.00228049
-0.00229843
-0.00230605
-0.00228748
-0.00230552
-0.00250044
-0.0020897
-0.00229968
-0.00223382
-0.00229492
-0.00280059
-0.00245521
-0.00229034
-0.00229994
-0.00230657
-0.00231215
-0.00231886
-0.002316
-0.00229548
-0.00230159
-0.00233911
-0.00234329
-0.00232229
-0.00230634
-0.00229429
-0.0022471
-0.00235864
-0.00232103
-0.00232248
-0.00231514
-0.00253076
-0.00247689
-0.00236226
-0.00234283
-0.0023176
-0.00215199
-0.00251895
-0.00225381
-0.00233761
-0.00231232
-0.00191873
-0.00192027
-0.00192216
-0.00190199
-0.00190177
-0.00189811
-0.00189718
-0.00191281
-0.0019055
-0.00190033
-0.0018825
-0.00189143
-0.00190382
-0.00191476
-0.00192103
-0.00193755
-0.00186052
-0.00188971
-0.00189699
-0.00191746
-0.00195829
-0.0019357
-0.0018828
-0.0018998
-0.00191739
-0.00161225
-0.00161758
-0.00162576
-0.00162386
-0.00163304
-0.00162412
-0.00162857
-0.00161857
-0.00162298
-0.00162285
-0.00163163
-0.00164518
-0.00162019
-0.00161955
-0.00162522
-0.00170566
-0.00170359
-0.00164446
-0.00162855
-0.00161627
-0.00162804
-0.00170379
-0.0016318
-0.00162494
-0.00161186
-0.000816405
-0.000809203
-0.000812712
-0.000821106
-0.000832904
-0.000829302
-0.000819226
-0.000814267
-0.000813521
-0.00082034
-0.000847894
-0.000843618
-0.000831843
-0.000814937
-0.000812057
-0.000862525
-0.000852816
-0.000842119
-0.00081883
-0.000807666
-0.000860165
-0.000862455
-0.000847078
-0.000829787
-0.00081531
-0.000422268
-0.000416867
-0.000414998
-0.00040798
-0.00041005
-0.000447626
-0.000439365
-0.000424619
-0.000416573
-0.000407003
-0.000507685
-0.000477064
-0.000443006
-0.000425305
-0.000414334
-0.000589508
-0.000542638
-0.000475569
-0.000438945
-0.000415273
-0.000637833
-0.000591022
-0.000507491
-0.000448281
-0.000421244
-0.00243194
-0.00297566
-0.00293518
-0.00266144
-0.0025661
-0.00209508
-0.00246487
-0.00268702
-0.00406269
-0.00362941
-0.002686
-0.0024013
-0.00152994
-0.00260042
-0.0024252
-0.00298479
-0.00258798
-0.002479
-0.00256208
-0.00209348
-0.00263974
-0.00190362
-0.000972767
-0.00147458
-0.000794872
-0.00205651
0.00192474
-0.000790922
-0.00229178
0.00201476
-0.00132593
-0.00514759
-0.00319331
-0.003479
-0.00507034
-0.00276988
-0.00354269
-0.0032583
-0.00253509
-0.002451
-0.00328762
-0.00309213
-0.00331591
-0.00407791
-0.00516163
-0.00271077
-0.00212712
-0.00390909
-0.0027277
-0.00276761
-0.00351928
-0.00274876
-0.00310757
-0.0024147
-0.00329408
-0.00248019
-0.00248305
-0.00290704
-0.00278001
-0.00202997
-0.00244428
-0.0025323
-0.00238083
-0.00388001
-0.00382229
-0.00241557
-0.00372325
-0.0035062
-0.00338603
-0.00400969
-0.00370257
-0.00421987
-0.00325826
-0.00324889
-0.00274607
-0.00413152
-0.00406085
-0.00388161
-0.00372785
-0.00243688
-0.00366723
-0.00344303
-0.00338631
-0.00392131
-0.00239048
-0.0012566
-0.00128289
-0.00426655
-0.00294628
-0.00408025
-0.00424075
-0.0023943
-0.00373684
-0.00371448
-0.00489274
-0.00342525
-0.00349705
-0.00342373
-0.00354662
-0.0033448
-0.00392802
-0.00247943
-0.00368472
-0.0019832
-0.00438023
-0.0035181
-0.00332908
-0.00386466
-0.00248282
-0.00365801
-0.00199217
-0.00429162
-0.00382936
-0.00275201
-0.00296835
-0.00298464
-0.00342124
-0.00337812
-0.00363369
-0.00395777
-0.00324858
-0.0032479
-0.00196215
-0.00393063
-0.00288441
-0.00290009
-0.00429934
-0.00422916
-0.00420057
-0.0044077
-0.00433661
-0.00449687
-0.00446758
-0.0042723
-0.00494929
-0.00437645
-0.00435925
-0.00438551
-0.00399304
-0.00450309
-0.00426437
-0.0049052
-0.00431771
-0.00429636
-0.00436646
-0.00395929
-0.00446523
-0.00415348
-0.00413797
-0.00420129
-0.00425079
-0.00377898
-0.00403101
-0.00401987
-0.00261605
-0.00372664
-0.0026754
-0.00272997
-0.00272589
-0.00396509
-0.00293288
-0.00261441
-0.00371906
-0.00283466
-0.00293031
-0.00272236
-0.00394493
-0.00271992
-0.00401136
-0.00440041
-0.00414081
-0.00451309
-0.00514442
-0.00499014
-0.00448221
-0.00398978
-0.0043426
-0.00410427
-0.00449401
-0.005126
-0.00497291
-0.00445409
-0.00462015
-0.00389503
-0.00386238
-0.00314498
-0.00510938
-0.00380388
-0.00378241
-0.00341752
-0.00341659
-0.00461484
-0.00508392
-0.00317945
-0.00367991
-0.0036722
-0.00320571
-0.00238547
-0.00373674
-0.0037175
-0.00398176
-0.00275202
-0.0027462
-0.00234932
-0.0015328
-0.00201104
-0.00299314
-0.00286349
-0.00342101
-0.00289309
-0.00233718
-0.00152109
-0.00209619
-0.00289748
-0.00284985
-0.00339205
-0.00296982
-0.00429089
-0.00240047
-0.00441555
-0.00423569
-0.00247122
-0.00439262
-0.00349457
-0.00428247
-0.00235453
-0.00437175
-0.00418986
-0.00244276
-0.00436297
-0.00347
-0.00283089
-0.00328695
-0.00343259
-0.0037717
-0.00318442
-0.00370641
-0.00294971
-0.00280895
-0.00341698
-0.00326805
-0.00376335
-0.00317594
-0.00369608
-0.00291388
-0.001946
0.000634743
-0.00111731
-0.000936581
-0.00204749
0.00202762
-0.000941296
-0.00387051
-0.00203635
-0.00203358
-0.00298284
-0.00252685
-0.00345105
-0.00344383
-0.00470812
-0.00171888
-0.0039408
-0.00458939
-0.00387055
-0.00389715
-0.00433053
-0.00469653
-0.00169754
-0.00394044
-0.00456342
-0.00387482
-0.00387974
-0.00431448
-0.00265439
-0.0034374
-0.00245583
-0.00333607
-0.00315891
-0.00301724
-0.00319598
-0.00342537
-0.00264123
-0.00245571
-0.00333306
-0.00315553
-0.00301913
-0.00319215
-0.00351302
-0.00259972
-0.00375722
-0.00373686
-0.00338193
-0.00336302
-0.00506324
-0.00528885
-0.00335546
-0.00335028
-0.00285936
-0.002612
-0.00382934
-0.00381882
-0.00117143
0.00168366
0.00153773
-0.000565013
0.000217262
-0.000933596
-0.000956683
-0.00250453
-0.00281702
-0.00268944
-0.00268651
-0.00260187
-0.00294176
-0.00268554
-0.00262295
-0.00330959
-0.00284621
-0.00289716
-0.00308124
-0.00299319
-0.00277376
-0.00262354
-0.00330598
-0.00284211
-0.00289856
-0.00308263
-0.00299242
-0.00277528
-0.00365459
-0.00302174
-0.00328414
-0.00346725
-0.00289545
-0.00253595
-0.00249921
-0.00363329
-0.00326676
-0.00299413
-0.00345298
-0.00287726
-0.00252213
-0.00248046
-0.00159395
-0.00191892
0.00100492
-0.000393165
0.000451693
-0.00140098
-0.00202998
-0.00157435
-0.00192689
0.000976873
-0.000369088
0.000397268
-0.00139892
-0.00200903
0.00100827
0.00100552
0.000590088
5.40597e-05
0.00700613
0.00256342
0.00255391
-0.00240669
-0.00172409
-0.0019228
-0.00165164
-0.00224581
-0.00184964
-0.00213146
-0.00240716
-0.00171421
-0.00224425
-0.00213644
-0.00224035
-0.00184054
-0.00164325
-0.00321882
-0.00338644
-0.00336794
-0.00264573
-0.00235959
-0.00242393
-0.00288008
-0.00321283
-0.00337392
-0.00335827
-0.00264787
-0.00235089
-0.00241463
-0.0028672
-0.000773787
-0.00182427
-0.00180764
-0.00215151
-0.000163782
-0.0022574
-0.00224625
-0.00176146
-0.000640895
-0.000863293
0.000654547
-0.00133335
-0.00130268
0.000831871
-0.00175316
-0.000641427
-0.000953356
0.000666947
-0.00135223
-0.00128241
0.00080533
-0.0022124
-0.00218896
-0.0012915
-0.000198431
-0.00185338
-0.00141539
-0.00142737
-0.00254497
-0.00222342
-0.00236475
-0.00257519
-0.00254297
-0.0023697
-0.00256953
-0.00285714
-0.00267289
-0.00312129
-0.00290634
-0.00276983
-0.00274626
-0.00264303
-0.00285366
-0.00267184
-0.00311862
-0.00289728
-0.00276214
-0.00273244
-0.00263598
-0.00111644
0.000484612
0.00131098
0.00131549
0.00114536
-0.000327851
-0.000363757
-0.00278561
-0.00290698
-0.00317902
-0.00283988
-0.00255052
-0.00272501
-0.00262711
-0.00278556
-0.0029059
-0.003182
-0.00284362
-0.00255136
-0.00273362
-0.00262609
-0.00227945
-0.00229293
-0.00236659
-0.00264138
-0.00274202
-0.00135771
-0.00182699
-0.00226118
-0.00227002
-0.00214549
-0.00178704
-0.00272232
-0.0013235
-0.00262229
-0.000965909
-0.00178381
-0.00117644
0.00151998
-0.00204249
0.00066881
-0.000621943
-0.000980362
-0.0017399
-0.00118261
0.00150009
-0.00203466
0.000649792
-0.00063051
-0.00206657
-0.00146202
-0.002351
-0.00217744
-0.00212144
-0.00220269
-0.0019681
-0.00145473
-0.00205444
-0.00232542
-0.00216302
-0.00210105
-0.00219655
-0.00195073
-0.00251226
-0.00239167
-0.00258707
-0.000886818
-0.00156817
7.37224e-05
-0.000875534
0.00210977
9.53588e-05
0.000120004
0.00319559
-0.00029093
0.00286605
0.00283027
0.000384079
-0.00113586
-0.00109079
-0.000816365
-0.00111479
-0.000926294
0.00091467
0.000395302
-0.00111942
-0.00109079
-0.00082208
-0.00115617
-0.000953136
0.00092014
-0.00170375
-0.00222323
-0.00232546
-0.00131732
-0.00112475
-0.00204557
-0.00209379
-0.0016971
-0.00221703
-0.00235676
-0.00132958
-0.00111998
-0.00202499
-0.00209746
-0.00130892
-0.00206977
-0.00146203
-0.00144543
-0.00188941
-0.00185242
7.39593e-05
)
;

boundaryField
{
    inlet
    {
        type            fixedValue;
        value           uniform 0;
    }
    wall
    {
        type            zeroGradient;
    }
    outlet
    {
        type            fixedValue;
        value           uniform 0;
    }
    procBoundary1to0
    {
        type            processor;
        value           nonuniform List<scalar> 
320
(
-7.77329e-05
-7.77033e-05
-7.77052e-05
-7.76908e-05
-7.76938e-05
-0.000170383
-0.000170371
-0.000170365
-0.000170357
-0.000170355
-0.000358007
-0.00035797
-0.00035796
-0.00035794
-0.000357938
-0.000488837
-0.000488798
-0.000488783
-0.000488761
-0.000488757
-0.000661161
-0.000661101
-0.000661081
-0.000661048
-0.000661043
-0.00080383
-0.00080375
-0.000803722
-0.000803679
-0.000803671
-0.000967555
-0.000967447
-0.000967408
-0.000967349
-0.000967339
-0.00111605
-0.00111589
-0.00111584
-0.00111576
-0.00111575
-0.00127457
-0.00127437
-0.00127429
-0.00127418
-0.00127417
-0.00142579
-0.00142549
-0.00142539
-0.00142524
-0.00142522
-0.00158071
-0.0015803
-0.00158014
-0.00157993
-0.00157989
-0.00173224
-0.00173161
-0.00173131
-0.00173093
-0.00173083
-0.00188397
-0.00188307
-0.00188263
-0.00188199
-0.00188173
-0.00203322
-0.00203202
-0.00203101
-0.00202941
-0.00202866
-0.00218014
-0.0021783
-0.0021775
-0.00217752
-0.0021781
-0.00232082
-0.0023187
-0.00232092
-0.00232537
-0.00232851
-0.00245041
-0.00245131
-0.00245556
-0.00245829
-0.00246041
-0.00255985
-0.00256042
-0.0025627
-0.00256201
-0.0025622
-0.00264974
-0.00264441
-0.00264125
-0.00263638
-0.00263378
-0.00271314
-0.00269998
-0.00269031
-0.00267993
-0.00267414
-0.00275685
-0.00273755
-0.00271997
-0.00270458
-0.00269393
-0.00278603
-0.00275913
-0.00274112
-0.00272676
-0.0027213
-0.00280075
-0.00276308
-0.00273015
-0.00270508
-0.00267487
-0.00282916
-0.00279236
-0.00277511
-0.00275947
-0.00276833
-0.00280652
-0.00273937
-0.00266331
-0.00260672
-0.00245363
-0.00284133
-0.00279146
-0.00278322
-0.00272789
-0.00281869
-0.0027609
-0.00265066
-0.00248745
-0.00240495
-0.00160128
-0.00279883
-0.00264803
-0.00255427
-0.0023731
-0.00258402
-0.00273534
-0.00251685
-0.00250312
-0.00225029
-0.00111816
-0.00282285
-0.00274558
-0.00286542
-0.00284481
-0.00129416
-0.00266199
-0.0025846
-0.0025101
-0.00261067
-0.00363957
-0.0026291
-0.00257728
-0.00237646
-0.00214386
-0.00146232
-0.00250727
-0.00250505
-0.00248199
-0.00210685
-0.00134281
-0.00260524
-0.00261394
-0.00291089
-0.00276813
-0.00523948
-0.00230758
-0.00230529
-0.0022783
-0.00250692
-0.00281591
-0.00230915
-0.00233648
-0.00224729
-0.00252283
-0.00216667
-0.00191679
-0.00189783
-0.00188075
-0.0019387
-0.00195387
-0.00161027
-0.00162356
-0.00163062
-0.00170449
-0.00162666
-0.000816396
-0.000829569
-0.000847861
-0.000862891
-0.000860224
-0.00042172
-0.000448017
-0.000507861
-0.000590716
-0.000638377
-0.00298666
-0.00208708
-0.00264967
-0.00407071
-0.00156022
-0.00258799
-0.00100631
0.00196716
-0.000808235
0.00205702
-0.00348645
-0.00513995
-0.00356463
-0.00331926
-0.00253479
-0.00408775
-0.00391871
-0.00268594
-0.00296787
-0.00258316
-0.00224144
-0.00325957
-0.00411254
-0.00420407
-0.00379684
-0.00396261
-0.00363974
-0.00126007
-0.00408563
-0.0042677
-0.00490286
-0.00348735
-0.00374736
-0.00391843
-0.00434704
-0.00248485
-0.00441054
-0.004502
-0.00423686
-0.00437227
-0.00450696
-0.0043516
-0.00415869
-0.00403521
-0.00378342
-0.00372837
-0.00396287
-0.00272828
-0.00514747
-0.00448306
-0.00439396
-0.0037428
-0.00275604
-0.00238736
-0.00153556
-0.00343074
-0.00299747
-0.00239983
-0.00349882
-0.00423576
-0.00380761
-0.00295163
-0.00329319
0.000638933
0.00202452
-0.000945187
-0.00298657
-0.00345508
-0.00204236
-0.00394515
-0.00433241
-0.00458975
-0.00265514
-0.00319741
-0.00333975
-0.000554672
-0.000933907
0.00168428
-0.00302509
-0.00249708
-0.00365981
0.00100366
-0.00203464
-0.000392732
0.000996149
0.00255863
0.00701123
-0.0017266
-0.00184874
-0.00164652
-0.00338642
-0.00287882
-0.00235711
-0.00134689
0.000808785
-0.000649269
0.00131293
-0.000313461
0.000522826
-0.00230874
-0.00134838
-0.00264311
-0.00176901
-0.000608003
0.00150789
-0.00235137
-0.00196871
-0.00207064
-0.00240168
8.15927e-05
-0.000877549
0.00319174
0.00286636
0.00010382
-0.001089
0.000920143
-0.000815356
-0.00222299
-0.00210009
-0.001328
)
;
    }
    procBoundary1to3
    {
        type            processor;
        value           nonuniform List<scalar> 
320
(
-7.76907e-05
-7.76892e-05
-7.77002e-05
-7.77e-05
-7.77251e-05
-0.000170353
-0.000170354
-0.000170359
-0.000170364
-0.000170372
-0.000357933
-0.000357933
-0.000357948
-0.000357956
-0.000357988
-0.000488751
-0.000488752
-0.000488768
-0.000488781
-0.000488813
-0.000661035
-0.000661037
-0.000661062
-0.000661079
-0.000661131
-0.000803662
-0.000803665
-0.0008037
-0.000803724
-0.000803794
-0.000967328
-0.000967332
-0.000967381
-0.000967415
-0.000967513
-0.00111573
-0.00111574
-0.00111581
-0.00111585
-0.001116
-0.00127415
-0.00127416
-0.00127425
-0.00127432
-0.00127451
-0.0014252
-0.00142521
-0.00142534
-0.00142543
-0.00142571
-0.00157987
-0.00157989
-0.00158009
-0.00158023
-0.00158062
-0.0017308
-0.00173088
-0.00173124
-0.00173153
-0.00173213
-0.00188168
-0.00188193
-0.00188254
-0.00188298
-0.00188385
-0.0020286
-0.00202931
-0.00203089
-0.00203191
-0.00203308
-0.00217809
-0.00217748
-0.00217739
-0.00217817
-0.00218001
-0.00232855
-0.00232546
-0.00232096
-0.00231868
-0.00232074
-0.0024604
-0.00245832
-0.00245559
-0.00245136
-0.0024503
-0.00256213
-0.00256195
-0.00256261
-0.00256035
-0.00255973
-0.00263365
-0.00263622
-0.00264099
-0.00264419
-0.00264959
-0.00267396
-0.00267969
-0.00268993
-0.0026996
-0.00271268
-0.00269373
-0.00270427
-0.00271947
-0.002737
-0.00275617
-0.00272099
-0.00272641
-0.00274054
-0.00275849
-0.00278523
-0.00267472
-0.00270473
-0.0027296
-0.00276238
-0.00279983
-0.0027674
-0.00275878
-0.00277419
-0.00279142
-0.00282793
-0.0024544
-0.00260646
-0.002663
-0.00273865
-0.00280557
-0.00281457
-0.00272614
-0.00278138
-0.00279006
-0.00284017
-0.00160636
-0.00240377
-0.0024875
-0.00264952
-0.00276048
-0.00238677
-0.00236912
-0.00255167
-0.00264494
-0.0027966
0.000621658
-0.00172611
-0.00250168
-0.00251338
-0.00273508
-0.00125438
-0.00371182
-0.00286273
-0.00274027
-0.0028194
-0.00408258
-0.00299276
-0.00250975
-0.00257868
-0.00265966
-0.000864248
-0.00224731
-0.00236721
-0.00257074
-0.00262509
0.00197816
-0.00151919
-0.00247839
-0.00250171
-0.00250236
-0.00406329
-0.00351594
-0.00290673
-0.00260196
-0.00260191
-0.00292835
-0.00245209
-0.00229296
-0.00229752
-0.00230516
-0.00221486
-0.00252918
-0.00226215
-0.00233919
-0.00231125
-0.0019578
-0.00193749
-0.00188382
-0.00189976
-0.00191668
-0.00163397
-0.00170558
-0.00163121
-0.00162432
-0.0016103
-0.000859724
-0.000861858
-0.000846459
-0.000829116
-0.000814794
-0.000636132
-0.000590164
-0.000505944
-0.00044744
-0.000420075
-0.00161685
-0.00255322
-0.0036267
-0.00211487
-0.00263491
-0.00258279
0.00189046
-0.000790588
-0.00147562
-0.00346996
-0.00506256
-0.00132207
-0.00399701
-0.00272851
-0.0051469
-0.00330357
-0.00247139
-0.00274376
-0.00211151
-0.00244596
-0.00264738
-0.00318747
-0.00382765
-0.00432277
-0.00364352
-0.00395579
-0.0036636
-0.00408258
-0.00423358
-0.00127716
-0.00487327
-0.00350267
-0.00374947
-0.00387925
-0.00430729
-0.00247843
-0.00440419
-0.00436485
-0.00417489
-0.00431771
-0.00447817
-0.00428604
-0.00414624
-0.00401916
-0.00377647
-0.0039469
-0.00271988
-0.00283403
-0.00512291
-0.00445448
-0.00434437
-0.00370763
-0.00274186
-0.0023832
-0.00338876
-0.00296562
-0.00209813
-0.00376405
-0.0029123
-0.00326481
-0.00235287
-0.00346666
-0.0041852
0.00202842
-0.000947635
-0.00114146
-0.00298
-0.0034417
-0.00203051
-0.00393464
-0.00431406
-0.00456413
-0.00264039
-0.00319254
-0.00333024
-0.000574604
-0.000956419
0.00153567
-0.00299105
-0.0024791
-0.00363174
0.000968197
-0.00200406
-0.000372296
0.00100978
0.00256156
0.00700028
-0.00184496
-0.00164669
-0.002241
-0.00337525
-0.00286951
-0.00235174
-0.00133574
0.000800272
-0.000629222
0.00132037
-0.000382104
0.000452529
-0.00130957
-0.00262536
-0.00214224
-0.00232023
-0.00194827
-0.00205086
-0.0017489
-0.000639641
0.00149735
6.43302e-05
-0.000878956
-0.00257609
0.00320293
0.00283936
0.000108788
-0.00110301
0.000932558
-0.000812222
-0.00222294
-0.00208969
-0.00131383
)
;
    }
}


// ************************************************************************* //
