/*--------------------------------*- C++ -*----------------------------------*\
| =========                 |                                                 |
| \\      /  F ield         | OpenFOAM: The Open Source CFD Toolbox           |
|  \\    /   O peration     | Version:  5.x                                   |
|   \\  /    A nd           | Web:      www.OpenFOAM.org                      |
|    \\/     M anipulation  |                                                 |
\*---------------------------------------------------------------------------*/
FoamFile
{
    version     2.0;
    format      ascii;
    class       volVectorField;
    location    "0.051";
    object      U;
}
// * * * * * * * * * * * * * * * * * * * * * * * * * * * * * * * * * * * * * //

dimensions      [0 1 -1 0 0 0 0];

internalField   nonuniform List<vector> 
1553
(
(-5.94153e-07 -1.17587e-05 0.00482616)
(5.55738e-06 -1.1771e-05 0.0048251)
(5.62678e-06 -1.17241e-05 0.0048278)
(9.75438e-06 -1.17202e-05 0.00482583)
(1.02774e-05 -1.1609e-05 0.00483194)
(-7.29949e-07 -1.15663e-05 0.00481898)
(5.59063e-06 -1.15951e-05 0.00481795)
(5.6754e-06 -1.15572e-05 0.00482076)
(9.86588e-06 -1.15611e-05 0.0048188)
(1.03886e-05 -1.14459e-05 0.00482504)
(-8.08539e-07 -7.2594e-06 0.00482111)
(5.56628e-06 -7.28778e-06 0.00482008)
(5.66065e-06 -7.26122e-06 0.00482291)
(9.86563e-06 -7.26837e-06 0.00482093)
(1.03963e-05 -7.19055e-06 0.00482718)
(-8.71472e-07 -7.34041e-06 0.00481768)
(5.58881e-06 -7.36861e-06 0.00481667)
(5.6948e-06 -7.34287e-06 0.00481956)
(9.93656e-06 -7.35111e-06 0.0048176)
(1.04691e-05 -7.27889e-06 0.00482392)
(-9.23797e-07 -8.12795e-07 0.00481884)
(5.56381e-06 -8.4314e-07 0.00481782)
(5.67815e-06 -8.4448e-07 0.00482073)
(9.92962e-06 -8.57764e-07 0.00481876)
(1.04711e-05 -8.43349e-07 0.00482508)
(-6.46119e-07 -4.53585e-06 -0.00093324)
(2.38038e-06 -4.50117e-06 -0.000932865)
(3.25563e-06 -4.406e-06 -0.00093238)
(4.61166e-06 -4.388e-06 -0.000931625)
(3.57484e-06 -4.31415e-06 -0.000931173)
(-4.13413e-07 -6.19043e-06 -0.000933594)
(2.50551e-06 -6.13441e-06 -0.000933221)
(3.36494e-06 -6.02085e-06 -0.000932725)
(4.7004e-06 -5.99419e-06 -0.000931969)
(3.64869e-06 -5.91094e-06 -0.000931501)
(-3.22337e-07 -5.02462e-06 -0.000934443)
(2.54978e-06 -4.97928e-06 -0.000934063)
(3.39573e-06 -4.89824e-06 -0.000933563)
(4.72151e-06 -4.87686e-06 -0.000932803)
(3.66087e-06 -4.81572e-06 -0.000932334)
(-1.95135e-07 -4.46845e-06 -0.000934898)
(2.63189e-06 -4.42494e-06 -0.000934522)
(3.46735e-06 -4.35049e-06 -0.00093402)
(4.78294e-06 -4.32954e-06 -0.000933262)
(3.71201e-06 -4.27191e-06 -0.000932784)
(-1.35975e-07 -1.75449e-06 -0.000935393)
(2.66774e-06 -1.72103e-06 -0.000935012)
(3.49114e-06 -1.68584e-06 -0.00093451)
(4.8001e-06 -1.67293e-06 -0.000933749)
(3.72054e-06 -1.65618e-06 -0.000933274)
(-2.87462e-07 -1.23435e-05 0.00327533)
(6.5437e-06 -1.23573e-05 0.00327524)
(7.02187e-06 -1.22979e-05 0.00327925)
(1.11788e-05 -1.22925e-05 0.00327916)
(1.09436e-05 -1.21623e-05 0.00328594)
(-3.84677e-07 -1.30138e-05 0.00326783)
(6.58748e-06 -1.30374e-05 0.00326775)
(7.08408e-06 -1.29823e-05 0.00327184)
(1.13101e-05 -1.29818e-05 0.00327175)
(1.10738e-05 -1.28462e-05 0.00327867)
(-4.21265e-07 -8.74615e-06 0.00326789)
(6.57505e-06 -8.77108e-06 0.0032678)
(7.07736e-06 -8.73747e-06 0.00327189)
(1.13148e-05 -8.74197e-06 0.0032718)
(1.10836e-05 -8.65279e-06 0.00327873)
(-4.86667e-07 -8.4491e-06 0.00326334)
(6.59616e-06 -8.47481e-06 0.00326324)
(7.11318e-06 -8.44748e-06 0.00326739)
(1.13948e-05 -8.45359e-06 0.00326731)
(1.11661e-05 -8.37313e-06 0.00327432)
(-5.2305e-07 -1.34373e-06 0.00326339)
(6.57667e-06 -1.37174e-06 0.00326328)
(7.09858e-06 -1.38518e-06 0.00326743)
(1.13892e-05 -1.39896e-06 0.00326735)
(1.11669e-05 -1.39671e-06 0.00327437)
(-7.93042e-07 -1.22569e-05 0.000311021)
(6.30933e-06 -1.22193e-05 0.000311348)
(7.17612e-06 -1.2047e-05 0.00031517)
(1.13065e-05 -1.2015e-05 0.000315937)
(1.05778e-05 -1.18081e-05 0.000322065)
(-6.16175e-07 -1.36274e-05 0.000304392)
(6.51218e-06 -1.35798e-05 0.00030473)
(7.37368e-06 -1.33887e-05 0.000308656)
(1.1538e-05 -1.33524e-05 0.000309441)
(1.07847e-05 -1.31263e-05 0.000315723)
(-5.76657e-07 -9.51979e-06 0.000303462)
(6.54785e-06 -9.48394e-06 0.000303803)
(7.40339e-06 -9.34827e-06 0.000307742)
(1.15689e-05 -9.32225e-06 0.000308529)
(1.08111e-05 -9.16577e-06 0.000314828)
(-4.57309e-07 -8.97462e-06 0.000299203)
(6.68369e-06 -8.93862e-06 0.00029955)
(7.53537e-06 -8.81103e-06 0.000303551)
(1.17206e-05 -8.7854e-06 0.000304348)
(1.09464e-05 -8.63874e-06 0.000310742)
(-4.25934e-07 -1.89383e-06 0.000298657)
(6.71144e-06 -1.87395e-06 0.000299007)
(7.55661e-06 -1.83021e-06 0.000303012)
(1.17413e-05 -1.82169e-06 0.00030381)
(1.09626e-05 -1.79073e-06 0.000310211)
(-1.51483e-07 -1.92061e-05 0.00242158)
(1.06938e-05 -1.92085e-05 0.00242201)
(1.1612e-05 -1.90425e-05 0.00242915)
(1.80754e-05 -1.90186e-05 0.00243009)
(1.72929e-05 -1.87287e-05 0.00244158)
(-2.05899e-07 -2.05761e-05 0.00240915)
(1.0852e-05 -2.0585e-05 0.00240958)
(1.17954e-05 -2.04138e-05 0.00241688)
(1.83798e-05 -2.03936e-05 0.00241786)
(1.75828e-05 -2.00856e-05 0.00242962)
(-2.30023e-07 -1.39356e-05 0.00240802)
(1.0856e-05 -1.39516e-05 0.00240845)
(1.18033e-05 -1.38437e-05 0.00241577)
(1.84037e-05 -1.38356e-05 0.00241674)
(1.76103e-05 -1.36344e-05 0.00242854)
(-2.76515e-07 -1.32544e-05 0.00240016)
(1.09439e-05 -1.32715e-05 0.00240059)
(1.19114e-05 -1.31784e-05 0.00240801)
(1.85892e-05 -1.31727e-05 0.002409)
(1.77906e-05 -1.29905e-05 0.00242097)
(-3.07899e-07 -2.02549e-06 0.00239953)
(1.0932e-05 -2.05342e-06 0.00239996)
(1.19021e-05 -2.0678e-06 0.00240738)
(1.85916e-05 -2.08303e-06 0.00240837)
(1.77984e-05 -2.08143e-06 0.00242036)
(-4.39429e-07 -2.50897e-05 0.000910483)
(1.38784e-05 -2.50434e-05 0.000911123)
(1.52631e-05 -2.47104e-05 0.000920005)
(2.37478e-05 -2.46446e-05 0.000921462)
(2.2452e-05 -2.41566e-05 0.000935747)
(-3.14438e-07 -2.71905e-05 0.000894928)
(1.42456e-05 -2.71404e-05 0.000895595)
(1.56491e-05 -2.67763e-05 0.000904749)
(2.42842e-05 -2.67081e-05 0.000906259)
(2.294e-05 -2.61757e-05 0.000920971)
(-2.99557e-07 -1.85095e-05 0.000893156)
(1.42924e-05 -1.84753e-05 0.000893826)
(1.56953e-05 -1.82233e-05 0.000903015)
(2.43484e-05 -1.81779e-05 0.000904533)
(2.30017e-05 -1.78173e-05 0.000919297)
(-2.09913e-07 -1.74664e-05 0.000883268)
(1.45318e-05 -1.74311e-05 0.000883953)
(1.59465e-05 -1.71972e-05 0.000893309)
(2.46903e-05 -1.71536e-05 0.000894861)
(2.33125e-05 -1.68202e-05 0.000909892)
(-1.99694e-07 -2.74955e-06 0.000882259)
(1.45615e-05 -2.74445e-06 0.000882945)
(1.59727e-05 -2.69949e-06 0.000892314)
(2.47255e-05 -2.69692e-06 0.000893869)
(2.33458e-05 -2.65231e-06 0.000908922)
(2.16778e-07 -3.52986e-05 0.0019734)
(2.02167e-05 -3.52729e-05 0.00197449)
(2.19519e-05 -3.48271e-05 0.0019882)
(3.3823e-05 -3.47474e-05 0.00199052)
(3.2083e-05 -3.40166e-05 0.00201246)
(2.01379e-07 -3.79099e-05 0.0019496)
(2.06732e-05 -3.78885e-05 0.00195074)
(2.24605e-05 -3.74109e-05 0.00196487)
(3.46094e-05 -3.733e-05 0.00196729)
(3.28138e-05 -3.65412e-05 0.0019899)
(1.80145e-07 -2.55963e-05 0.00194688)
(2.07154e-05 -2.55939e-05 0.00194802)
(2.25102e-05 -2.52838e-05 0.0019622)
(3.46926e-05 -2.5234e-05 0.00196462)
(3.28959e-05 -2.47145e-05 0.00198734)
(1.52642e-07 -2.41519e-05 0.0019318)
(2.09857e-05 -2.41533e-05 0.00193297)
(2.28204e-05 -2.388e-05 0.00194741)
(3.51789e-05 -2.38374e-05 0.00194988)
(3.33503e-05 -2.33658e-05 0.00197303)
(1.17601e-07 -3.30351e-06 0.00193028)
(2.09873e-05 -3.33633e-06 0.00193144)
(2.28261e-05 -3.34474e-06 0.00194591)
(3.5207e-05 -3.36158e-06 0.00194839)
(3.33827e-05 -3.34492e-06 0.00197158)
(4.79493e-07 -4.96844e-05 0.00119989)
(2.86838e-05 -4.95881e-05 0.00120136)
(3.12945e-05 -4.88255e-05 0.00121939)
(4.80153e-05 -4.86584e-05 0.0012225)
(4.51341e-05 -4.74689e-05 0.00125136)
(6.05529e-07 -5.37156e-05 0.00116823)
(2.95154e-05 -5.36211e-05 0.00116977)
(3.21938e-05 -5.27856e-05 0.00118847)
(4.93292e-05 -5.26191e-05 0.00119175)
(4.63237e-05 -5.1308e-05 0.00122169)
(6.03765e-07 -3.63089e-05 0.00116443)
(2.96135e-05 -3.62495e-05 0.001166)
(3.2296e-05 -3.56812e-05 0.00118482)
(4.94929e-05 -3.55789e-05 0.00118814)
(4.64878e-05 -3.46929e-05 0.00121824)
(6.87036e-07 -3.40704e-05 0.0011443)
(3.01431e-05 -3.40129e-05 0.00114592)
(3.28644e-05 -3.34868e-05 0.00116517)
(5.03179e-05 -3.33903e-05 0.00116861)
(4.72395e-05 -3.25763e-05 0.00119938)
(6.75682e-07 -4.58956e-06 0.00114218)
(3.01971e-05 -4.60283e-06 0.00114381)
(3.29187e-05 -4.54105e-06 0.0011631)
(5.04037e-05 -4.54808e-06 0.00116657)
(4.73285e-05 -4.45953e-06 0.00119742)
(1.31483e-06 -6.80687e-05 0.00173423)
(3.97081e-05 -6.79598e-05 0.00173674)
(4.30937e-05 -6.68216e-05 0.0017636)
(6.58063e-05 -6.65697e-05 0.00176873)
(6.19695e-05 -6.47221e-05 0.00181167)
(1.36959e-06 -7.33856e-05 0.00168711)
(4.09159e-05 -7.32625e-05 0.00168979)
(4.44391e-05 -7.19899e-05 0.00171775)
(6.78412e-05 -7.17049e-05 0.00172316)
(6.38171e-05 -6.96693e-05 0.00176781)
(1.3636e-06 -4.95265e-05 0.00168121)
(4.11033e-05 -4.94499e-05 0.00168388)
(4.46507e-05 -4.85908e-05 0.00171196)
(6.81269e-05 -4.83775e-05 0.00171738)
(6.40696e-05 -4.70236e-05 0.00176231)
(1.37363e-06 -4.64013e-05 0.00165147)
(4.18516e-05 -4.63456e-05 0.00165422)
(4.55115e-05 -4.55971e-05 0.00168297)
(6.9409e-05 -4.54086e-05 0.00168851)
(6.52157e-05 -4.41883e-05 0.00173454)
(1.3339e-06 -5.8539e-06 0.00164819)
(4.19075e-05 -5.891e-06 0.00165092)
(4.55877e-05 -5.86587e-06 0.00167975)
(6.95362e-05 -5.86802e-06 0.00168528)
(6.53295e-05 -5.78831e-06 0.00173149)
(2.65922e-06 -9.84018e-05 0.00130622)
(5.80581e-05 -9.81254e-05 0.00130964)
(6.32863e-05 -9.62386e-05 0.00134512)
(9.6103e-05 -9.57752e-05 0.00135193)
(8.95514e-05 -9.28165e-05 0.0014084)
(2.91847e-06 -0.00010675 0.00124337)
(6.01519e-05 -0.000106498 0.00124706)
(6.55583e-05 -0.000104442 0.00128417)
(9.94132e-05 -0.000103991 0.00129154)
(9.25101e-05 -0.000100684 0.00135069)
(2.88877e-06 -7.19464e-05 0.00123471)
(6.03654e-05 -7.18174e-05 0.00123854)
(6.57922e-05 -7.04608e-05 0.00127614)
(9.9861e-05 -7.02269e-05 0.00128367)
(9.29701e-05 -6.79615e-05 0.00134338)
(3.02161e-06 -6.70877e-05 0.0011944)
(6.16374e-05 -6.69679e-05 0.00119849)
(6.71489e-05 -6.56969e-05 0.00123727)
(0.000101913 -6.54862e-05 0.0012453)
(9.48534e-05 -6.34006e-05 0.00130663)
(2.97193e-06 -8.34272e-06 0.00118951)
(6.17562e-05 -8.39342e-06 0.00119368)
(6.72738e-05 -8.2667e-06 0.00123271)
(0.000102158 -8.30094e-06 0.00124088)
(9.51249e-05 -8.0515e-06 0.00130248)
(4.23872e-06 -0.000133154 0.00159223)
(7.86146e-05 -0.000132764 0.00159814)
(8.53911e-05 -0.000129944 0.00165095)
(0.000129112 -0.000129115 0.00166258)
(0.000120481 -0.000124497 0.00174699)
(4.52806e-06 -0.000144925 0.00149796)
(8.17202e-05 -0.000144393 0.00150447)
(8.89209e-05 -0.000140998 0.00156009)
(0.00013439 -0.000139994 0.00157255)
(0.000125099 -0.000134722 0.00166121)
(4.64429e-06 -9.84885e-05 0.0014844)
(8.25398e-05 -9.8019e-05 0.00149093)
(8.97886e-05 -9.54935e-05 0.00154693)
(0.000135389 -9.46153e-05 0.00155955)
(0.000125922 -9.10796e-05 0.00164904)
(4.86557e-06 -9.15999e-05 0.00142525)
(8.47153e-05 -9.12033e-05 0.00143199)
(9.23247e-05 -8.90335e-05 0.00148957)
(0.000138805 -8.82031e-05 0.00150256)
(0.000128754 -8.50832e-05 0.00159487)
(4.89262e-06 -1.14158e-05 0.00141776)
(8.51062e-05 -1.13815e-05 0.00142446)
(9.27888e-05 -1.11356e-05 0.00148226)
(0.00013934 -1.10091e-05 0.00149526)
(0.000129146 -1.06888e-05 0.00158817)
(8.04687e-06 -0.000195913 0.00129115)
(0.000116778 -0.000195018 0.00129921)
(0.000127727 -0.00019023 0.00136833)
(0.000192182 -0.000188902 0.00138332)
(0.000176884 -0.000181539 0.0014926)
(8.85617e-06 -0.000214617 0.0011667)
(0.000122278 -0.000213751 0.00117568)
(0.000133635 -0.000208499 0.00124866)
(0.000200575 -0.000207061 0.0012656)
(0.000184248 -0.000198675 0.00138142)
(8.82632e-06 -0.000144659 0.0011467)
(0.000122893 -0.000144292 0.0011562)
(0.000134413 -0.000140982 0.00123072)
(0.000202007 -0.000140208 0.00124797)
(0.000185569 -0.000134299 0.0013657)
(9.14205e-06 -0.000133734 0.00106568)
(0.000125955 -0.00013343 0.00107633)
(0.000137719 -0.000130371 0.00115429)
(0.000207261 -0.000129771 0.00117312)
(0.000190364 -0.000124272 0.0012947)
(9.03072e-06 -1.65396e-05 0.00105353)
(0.000126256 -1.66525e-05 0.00106467)
(0.000138071 -1.63391e-05 0.00114377)
(0.000208108 -1.63842e-05 0.00116313)
(0.000191252 -1.55572e-05 0.00128562)
(1.16198e-05 -0.000262113 0.00145989)
(0.000155798 -0.000260766 0.0014744)
(0.000169502 -0.000253953 0.00157798)
(0.000253434 -0.000251109 0.0016052)
(0.000233782 -0.000239731 0.00177062)
(1.27573e-05 -0.000289442 0.00127111)
(0.000163681 -0.00028747 0.00128762)
(0.000178843 -0.000278676 0.0013976)
(0.000267214 -0.000275412 0.00142736)
(0.00024516 -0.000261673 0.00160317)
(1.33543e-05 -0.000199509 0.0012354)
(0.00016656 -0.000197368 0.00125283)
(0.000181556 -0.000189863 0.00136545)
(0.000270437 -0.000187098 0.00139681)
(0.000247962 -0.000177796 0.00157517)
(1.4635e-05 -0.000184774 0.00111561)
(0.000173328 -0.000182735 0.00113384)
(0.000189114 -0.000175986 0.00125078)
(0.000279285 -0.000173044 0.00128477)
(0.000254777 -0.000165171 0.00146958)
(1.51052e-05 -2.45983e-05 0.00109637)
(0.000175347 -2.41041e-05 0.0011145)
(0.000191247 -2.27466e-05 0.00123221)
(0.000281256 -2.21092e-05 0.0012671)
(0.000256112 -2.09351e-05 0.0014539)
(2.18017e-05 -0.000391326 0.00117483)
(0.000234871 -0.000388366 0.0011934)
(0.000258517 -0.000376925 0.00132548)
(0.000384897 -0.000372932 0.0013594)
(0.000348087 -0.000354806 0.00156989)
(2.45283e-05 -0.00043919 0.000923113)
(0.000248758 -0.00043541 0.000945622)
(0.000273372 -0.000421109 0.00108919)
(0.000406223 -0.000415529 0.00113)
(0.000366213 -0.000394208 0.0013565)
(2.53809e-05 -0.000300161 0.000881583)
(0.000252946 -0.00029807 0.000903373)
(0.000278389 -0.000287794 0.00104761)
(0.000411798 -0.000282802 0.00108829)
(0.0003702 -0.000267877 0.0013216)
(2.64572e-05 -0.000272762 0.000731401)
(0.000261125 -0.000271751 0.000753803)
(0.000288641 -0.000263614 0.000900641)
(0.000426149 -0.00025948 0.000942055)
(0.000381716 -0.000245535 0.00118672)
(2.62119e-05 -3.68182e-05 0.000707789)
(0.000262093 -3.70861e-05 0.000730341)
(0.000290659 -3.60657e-05 0.000877677)
(0.000429884 -3.52319e-05 0.00091831)
(0.00038466 -3.24302e-05 0.00116687)
(2.92868e-05 -0.000522903 0.00124191)
(0.000306457 -0.000517502 0.00127774)
(0.0003355 -0.000498876 0.00148321)
(0.000497944 -0.000488951 0.00154374)
(0.000452092 -0.000460982 0.00186421)
(3.42075e-05 -0.000582828 0.000872513)
(0.000329762 -0.000577634 0.000912037)
(0.000363228 -0.000556686 0.00112482)
(0.000534657 -0.000546648 0.00119568)
(0.000480061 -0.000510068 0.00154063)
(3.4055e-05 -0.000391222 0.000782191)
(0.00033259 -0.000389188 0.000828643)
(0.000366474 -0.000378412 0.00105136)
(0.000544562 -0.000375049 0.00112383)
(0.000489851 -0.000347578 0.00147893)
(3.57886e-05 -0.000358572 0.00052067)
(0.000342572 -0.000355773 0.000575493)
(0.000377368 -0.000345922 0.00082549)
(0.000565503 -0.000343028 0.000908078)
(0.000508355 -0.000319903 0.00127049)
(3.63397e-05 -4.96956e-05 0.000460211)
(0.00034524 -4.90922e-05 0.000519151)
(0.000379218 -4.73307e-05 0.000777337)
(0.00057059 -4.75299e-05 0.000867135)
(0.0005137 -4.25731e-05 0.00123301)
(5.64902e-05 -0.000774334 0.000919134)
(0.000476163 -0.00076745 0.000968722)
(0.000524495 -0.000748029 0.00122525)
(0.000766066 -0.000733326 0.00131425)
(0.000679848 -0.000689725 0.00171936)
(6.27925e-05 -0.000899085 0.000408785)
(0.000501063 -0.000884686 0.000475972)
(0.000557001 -0.000853116 0.000762065)
(0.000822185 -0.000835597 0.000866314)
(0.000723448 -0.000779655 0.00130998)
(7.04282e-05 -0.000651993 0.000259266)
(0.000522112 -0.000634602 0.000332433)
(0.000573558 -0.000587113 0.000645633)
(0.000839526 -0.000570388 0.00076081)
(0.000737973 -0.000537997 0.00121982)
(7.96987e-05 -0.000594743 -6.93344e-05)
(0.000565945 -0.000581243 1.29186e-05)
(0.000621215 -0.000537634 0.000327908)
(0.000871326 -0.000516166 0.000470114)
(0.000757456 -0.000491448 0.000959104)
(8.34841e-05 -9.91107e-05 -0.000159333)
(0.000579221 -9.53129e-05 -7.10576e-05)
(0.000638633 -8.61266e-05 0.000253239)
(0.000885732 -7.79791e-05 0.000401126)
(0.000764094 -7.1836e-05 0.000908099)
(7.77062e-05 -0.00105164 0.000859334)
(0.000612586 -0.00102827 0.000941306)
(0.000681019 -0.000979245 0.00132991)
(0.000992266 -0.000953439 0.00147744)
(0.000872357 -0.000885584 0.00207727)
(9.98539e-05 -0.001243 6.86759e-05)
(0.000683056 -0.00121422 0.000183899)
(0.000753568 -0.00113659 0.000623137)
(0.00108284 -0.00110035 0.000816017)
(0.000940213 -0.00100982 0.00147273)
(0.000105639 -0.000869332 -0.000190016)
(0.000718971 -0.000852233 -5.81928e-05)
(0.000794849 -0.000812566 0.000395221)
(0.00111903 -0.000771247 0.000621955)
(0.000965973 -0.000698448 0.00132427)
(0.00011618 -0.000777182 -0.000671676)
(0.000739825 -0.000759274 -0.000522445)
(0.000834555 -0.00073833 -6.2636e-05)
(0.00119699 -0.000702727 0.000178346)
(0.00101529 -0.000631636 0.000931495)
(0.00012265 -0.000141931 -0.000837945)
(0.000757822 -0.000135429 -0.000673434)
(0.000851392 -0.000124523 -0.000196167)
(0.00122575 -0.000119175 6.1117e-05)
(0.00103899 -9.62559e-05 0.000847285)
(0.000137254 -0.00159247 0.000463831)
(0.000946717 -0.00155159 0.000606536)
(0.00106059 -0.00148034 0.00110467)
(0.00151377 -0.00141898 0.00131398)
(0.00130152 -0.00131619 0.00205827)
(0.000176388 -0.00194883 -0.000528427)
(0.00105552 -0.00188457 -0.000354109)
(0.00118908 -0.00178815 0.00018951)
(0.0016721 -0.00169141 0.000477156)
(0.00140432 -0.00153299 0.00130702)
(0.000200667 -0.00139231 -0.000923303)
(0.00110735 -0.00134091 -0.00071327)
(0.00125367 -0.00127285 -0.000129289)
(0.00176893 -0.00120802 0.000188551)
(0.00146576 -0.00107919 0.00109631)
(0.000227076 -0.00124269 -0.00160633)
(0.001175 -0.00119649 -0.00135735)
(0.00132197 -0.00112902 -0.000720203)
(0.00186584 -0.001077 -0.000361693)
(0.00153726 -0.000968418 0.000591198)
(0.000246111 -0.000267552 -0.00188475)
(0.00122101 -0.000248557 -0.00160748)
(0.00137315 -0.000222093 -0.000931825)
(0.00192958 -0.000197817 -0.000537442)
(0.00157766 -0.000158543 0.000445493)
(0.000218588 -0.00208158 8.32143e-05)
(0.00125347 -0.00202534 0.000327701)
(0.00138844 -0.00192864 0.00111586)
(0.0019463 -0.00182259 0.00147177)
(0.00164589 -0.00166619 0.00264996)
(0.000271819 -0.00263078 -0.00141445)
(0.00140102 -0.00253465 -0.00108932)
(0.0015848 -0.00237115 -0.00026039)
(0.00220091 -0.00222634 0.000212806)
(0.00180229 -0.00197222 0.00146516)
(0.000313129 -0.00194719 -0.00217429)
(0.00151302 -0.00185543 -0.00176585)
(0.00169663 -0.00172224 -0.000829538)
(0.00234524 -0.00161006 -0.000261454)
(0.00190785 -0.00141425 0.00110798)
(0.000362085 -0.00173866 -0.00324455)
(0.00162598 -0.00165351 -0.0027612)
(0.00183017 -0.0015409 -0.0017727)
(0.00250902 -0.00142875 -0.00109753)
(0.00200449 -0.0012825 0.000312287)
(0.000396668 -0.000424037 -0.00380741)
(0.00171077 -0.000389487 -0.0032461)
(0.00192139 -0.000340291 -0.00218268)
(0.00260371 -0.000299062 -0.00142408)
(0.00205948 -0.000246425 6.70766e-05)
(0.000379797 -0.00314775 -0.000302832)
(0.00197934 -0.0030233 4.73987e-05)
(0.00220454 -0.00290778 0.00100021)
(0.00304855 -0.00272512 0.00152831)
(0.00252193 -0.00254334 0.00293735)
(0.000498871 -0.00420724 -0.00234165)
(0.00220958 -0.00397897 -0.00182208)
(0.00249107 -0.0037343 -0.000749962)
(0.00339833 -0.00342532 -3.01734e-05)
(0.00270372 -0.00307566 0.00151809)
(0.000606626 -0.00322232 -0.00356785)
(0.00245213 -0.0030127 -0.00289653)
(0.00275795 -0.00278505 -0.00164958)
(0.0037072 -0.00251822 -0.000750134)
(0.00288626 -0.00223194 0.000989652)
(0.000707134 -0.00287585 -0.00509397)
(0.00264688 -0.00267679 -0.00425587)
(0.00298555 -0.00248219 -0.00290713)
(0.00395168 -0.00223962 -0.00183281)
(0.00300165 -0.0020093 2.6831e-05)
(0.000804394 -0.000834221 -0.00609646)
(0.0028458 -0.000737274 -0.00509361)
(0.00319509 -0.000636304 -0.00357839)
(0.00418024 -0.000528681 -0.00235235)
(0.00312631 -0.000408402 -0.0003234)
(0.000566099 -0.00420048 -0.00101886)
(0.00255661 -0.00397009 -0.000390111)
(0.00286924 -0.00374775 0.00101546)
(0.0038843 -0.00344387 0.00190743)
(0.00310915 -0.00313987 0.00397915)
(0.000787597 -0.00589725 -0.00421155)
(0.00299276 -0.00547993 -0.00327723)
(0.00337656 -0.00502221 -0.00165696)
(0.00447007 -0.0045059 -0.000412224)
(0.00341315 -0.00392077 0.00189699)
(0.000980552 -0.00469939 -0.00653589)
(0.00343137 -0.00428906 -0.0052296)
(0.00384289 -0.00387927 -0.00327319)
(0.00498574 -0.00341255 -0.00165719)
(0.00371638 -0.00290539 0.0010047)
(0.00119562 -0.00426742 -0.00901748)
(0.00381291 -0.00385069 -0.00738273)
(0.00425308 -0.0034698 -0.00524071)
(0.00544433 -0.00303102 -0.0032884)
(0.00393921 -0.00259566 -0.000410685)
(0.00139467 -0.00143204 -0.0110887)
(0.00422899 -0.00123347 -0.00901636)
(0.00466254 -0.00101796 -0.00654684)
(0.00586016 -0.000825408 -0.00422271)
(0.00416831 -0.000603309 -0.00104112)
(0.00100601 -0.00646541 -0.0014725)
(0.00401369 -0.00602427 -0.00049687)
(0.00450181 -0.00568433 0.00125802)
(0.00601367 -0.0051358 0.00252277)
(0.00467232 -0.00470436 0.00494829)
(0.00142854 -0.00972633 -0.00577644)
(0.00476409 -0.00882027 -0.00418059)
(0.00535571 -0.00802459 -0.00214127)
(0.0069536 -0.00699126 -0.000247101)
(0.00510376 -0.00605154 0.00250724)
(0.00190904 -0.0080282 -0.00981595)
(0.00571492 -0.00711802 -0.0074467)
(0.00633012 -0.00636855 -0.00472007)
(0.00798671 -0.00539402 -0.00213929)
(0.00565208 -0.00453934 0.00124398)
(0.0023353 -0.00742889 -0.0137003)
(0.00642375 -0.00646365 -0.0104807)
(0.00707971 -0.00575593 -0.00746298)
(0.00878352 -0.00480506 -0.00419505)
(0.00599302 -0.00405515 -0.000526085)
(0.00287189 -0.00291311 -0.0180196)
(0.00738788 -0.00237792 -0.0136972)
(0.00798869 -0.00195017 -0.00982733)
(0.00968801 -0.00147034 -0.00578715)
(0.00643268 -0.00104684 -0.00149849)
(0.00153685 -0.00867603 -0.00219949)
(0.00528719 -0.00780756 -0.000660972)
(0.00588837 -0.00728451 0.00184762)
(0.00757603 -0.00633144 0.00372976)
(0.0056311 -0.00567768 0.00712215)
(0.00237752 -0.0142439 -0.00885349)
(0.00662793 -0.0124325 -0.00622045)
(0.00730956 -0.0110029 -0.00319755)
(0.00912059 -0.00916999 -0.000240908)
(0.00628486 -0.00762654 0.00371354)
(0.00334384 -0.0126235 -0.0158768)
(0.00852736 -0.0105889 -0.0116493)
(0.00914983 -0.00920051 -0.0074563)
(0.0109523 -0.00736 -0.00319396)
(0.00723677 -0.00593819 0.00183372)
(0.00441044 -0.0124717 -0.0221666)
(0.0100504 -0.0101013 -0.0164599)
(0.0105384 -0.00857717 -0.0116702)
(0.012384 -0.00667887 -0.00623651)
(0.00776161 -0.00533818 -0.000691465)
(0.00571367 -0.00575895 -0.030178)
(0.0124219 -0.00445997 -0.0221535)
(0.0125728 -0.00339283 -0.0158892)
(0.0141922 -0.00242885 -0.00886171)
(0.0086282 -0.00158685 -0.00222712)
(0.00254115 -0.0133923 -0.00263284)
(0.008061 -0.0118159 -7.65481e-05)
(0.00889222 -0.0109383 0.00304525)
(0.0112912 -0.00927278 0.00574104)
(0.00820449 -0.00825307 0.00953516)
(0.0040514 -0.0234083 -0.0118519)
(0.0104197 -0.0198119 -0.00694818)
(0.0113346 -0.0173318 -0.00326036)
(0.0138668 -0.0139171 0.00136855)
(0.00922419 -0.011343 0.00571919)
(0.00613012 -0.0213444 -0.0251383)
(0.0141357 -0.0173588 -0.0165608)
(0.0147858 -0.0148415 -0.0103183)
(0.0172801 -0.011389 -0.00325402)
(0.0108883 -0.00894401 0.00303295)
(0.00802632 -0.0217312 -0.0369394)
(0.0169202 -0.0169679 -0.0237088)
(0.0173044 -0.014189 -0.0165802)
(0.0197656 -0.0104725 -0.00696632)
(0.01177 -0.00811618 -0.000112375)
(0.0108917 -0.0109537 -0.0585256)
(0.0216778 -0.008092 -0.0369364)
(0.0212836 -0.00618674 -0.0251388)
(0.0233547 -0.00411039 -0.0118585)
(0.0133398 -0.00259615 -0.00264981)
(0.0040843 -0.0182638 -0.00127265)
(0.0109649 -0.0149823 0.00214745)
(0.0117042 -0.0138534 0.00610898)
(0.0140674 -0.0109054 0.009429)
(0.00958447 -0.00965341 0.0141243)
(0.00727381 -0.0367513 -0.0143046)
(0.0152178 -0.0289194 -0.00737786)
(0.0156255 -0.02437 -0.00220471)
(0.018103 -0.0181679 0.003849)
(0.0108365 -0.0141302 0.00940135)
(0.0119193 -0.0377186 -0.0346411)
(0.0233445 -0.0273514 -0.0211866)
(0.0224561 -0.0225199 -0.0121664)
(0.0243072 -0.0156941 -0.00219155)
(0.0137865 -0.011768 0.00609103)
(0.0176596 -0.0458479 -0.0540321)
(0.030403 -0.0304705 -0.0326642)
(0.0272829 -0.0233949 -0.0212308)
(0.0288544 -0.0152816 -0.00740372)
(0.0149182 -0.0110206 0.00209697)
(0.0273749 -0.0273858 -0.0869453)
(0.0457975 -0.017708 -0.0539775)
(0.0376585 -0.0119709 -0.0346493)
(0.0366831 -0.00733892 -0.0143015)
(0.018205 -0.00414435 -0.00130653)
(0.00595461 -0.027016 0.000310116)
(0.0154423 -0.0217875 0.00587661)
(0.0161737 -0.0196354 0.0103107)
(0.0193119 -0.015116 0.0148414)
(0.0131184 -0.0131951 0.0191845)
(0.0109581 -0.056785 -0.0176504)
(0.02252 -0.0431512 -0.00452669)
(0.022565 -0.0356139 0.00110231)
(0.0254755 -0.0255403 0.00978316)
(0.0150393 -0.0193816 0.0148169)
(0.0195861 -0.061109 -0.0575438)
(0.036606 -0.0426635 -0.0286079)
(0.0337897 -0.0338765 -0.0149456)
(0.0355442 -0.0226453 0.00111291)
(0.0195538 -0.0162483 0.0103118)
(0.0294202 -0.0739897 -0.100054)
(0.0497003 -0.0497378 -0.0451653)
(0.0425833 -0.0366677 -0.0286238)
(0.0430986 -0.0225829 -0.00455089)
(0.0217165 -0.0155135 0.00584558)
(0.0440945 -0.0442761 -0.224046)
(0.073928 -0.029566 -0.100058)
(0.0609964 -0.0196753 -0.0574824)
(0.0567057 -0.0110496 -0.0176539)
(0.0269261 -0.00602746 0.000333483)
(0.0096368 -0.0369901 0.010097)
(0.0209622 -0.0259212 0.015619)
(0.0206643 -0.0234993 0.020537)
(0.0229383 -0.0162468 0.0239932)
(0.0141481 -0.0142422 0.0281512)
(0.0203983 -0.0945563 -0.0115577)
(0.0339511 -0.0633875 0.00396001)
(0.0299379 -0.0496219 0.0105677)
(0.0318149 -0.0318937 0.0192518)
(0.0161527 -0.0230001 0.0239503)
(0.0409371 -0.12013 -0.0651261)
(0.0658789 -0.0679926 -0.0245837)
(0.0521803 -0.0522493 -0.0062665)
(0.0495601 -0.0300306 0.0105933)
(0.0234222 -0.0207346 0.0205173)
(0.0730375 -0.212113 -0.145299)
(0.10168 -0.101768 -0.0529027)
(0.0678997 -0.0658682 -0.0246531)
(0.0633072 -0.0340291 0.00391865)
(0.0258498 -0.0209956 0.015549)
(0.153806 -0.153399 -0.289674)
(0.212122 -0.0729987 -0.145158)
(0.12007 -0.0409428 -0.0650716)
(0.0944502 -0.0204802 -0.0115406)
(0.0369575 -0.00970232 0.0100806)
(0.0114761 -0.04986 0.026333)
(0.02588 -0.0341475 0.0318138)
(0.0245547 -0.0301673 0.0341337)
(0.0269333 -0.0201691 0.0364181)
(0.0175205 -0.0176409 0.0373235)
(0.0265189 -0.131989 0.00827332)
(0.0446333 -0.083369 0.0249865)
(0.0378843 -0.0624309 0.0288608)
(0.0388708 -0.0389529 0.0353312)
(0.0200486 -0.0270227 0.0363969)
(0.0605794 -0.194851 -0.0587741)
(0.0953542 -0.0995704 -0.0055198)
(0.0690238 -0.0691546 0.012869)
(0.0623415 -0.0380059 0.028868)
(0.0300398 -0.0246564 0.0341595)
(0.12665 -0.412698 -0.238417)
(0.170379 -0.17035 -0.0380989)
(0.0994466 -0.0953637 -0.00556215)
(0.0833158 -0.0447049 0.024931)
(0.0340475 -0.0259481 0.0318005)
(0.163897 -0.136369 -0.816567)
(0.412643 -0.127127 -0.238204)
(0.194618 -0.060736 -0.0583771)
(0.13184 -0.026675 0.00822022)
(0.049736 -0.0115685 0.0264584)
(0.015111 -0.0561941 0.0598324)
(0.0287425 -0.0333486 0.0552518)
(0.025272 -0.029232 0.0552738)
(0.0261263 -0.0175621 0.0512993)
(0.0152223 -0.0153385 0.0496415)
(0.0372538 -0.178351 0.0636985)
(0.0543501 -0.100582 0.0619743)
(0.040265 -0.0708367 0.0574866)
(0.0393249 -0.0394177 0.0555915)
(0.0174459 -0.0261623 0.0512408)
(0.0955299 -0.291834 0.0626179)
(0.136623 -0.128767 0.0582127)
(0.0865309 -0.0866367 0.0635771)
(0.0708007 -0.0404134 0.0575103)
(0.0291728 -0.0253343 0.0552459)
(0.157239 -0.692733 -0.153069)
(0.28804 -0.287816 0.0277793)
(0.128626 -0.136217 0.0582089)
(0.100532 -0.0544892 0.0619095)
(0.0333194 -0.0286765 0.0551661)
(0.388508 -1.39797 -1.28187)
(0.715225 -0.413855 -0.280269)
(0.292049 -0.0954895 0.0628382)
(0.177978 -0.0374732 0.0636294)
(0.0563414 -0.0151496 0.0598352)
(0.006918 -0.0468835 0.105861)
(0.0213225 -0.027764 0.0884328)
(0.0205992 -0.0282037 0.0782566)
(0.0213053 -0.0159159 0.0673119)
(0.0158418 -0.0160221 0.0591743)
(0.0250198 -0.121023 0.140433)
(0.0381523 -0.0791464 0.109525)
(0.0314581 -0.05399 0.0966699)
(0.0325786 -0.0326956 0.0773446)
(0.0157356 -0.0214226 0.0672939)
(0.0571657 -0.18034 0.293868)
(0.090732 -0.091242 0.185194)
(0.0671601 -0.0672685 0.140979)
(0.0538733 -0.0316452 0.0966451)
(0.0280234 -0.0207281 0.0782735)
(0.141055 -0.75135 0.515306)
(0.232895 -0.340605 0.354655)
(0.0912539 -0.090527 0.18524)
(0.079014 -0.0383185 0.109415)
(0.027643 -0.02136 0.0884445)
(0.233169 -0.694072 -5.39664)
(0.934089 -0.716456 0.774722)
(0.180958 -0.0575074 0.294263)
(0.120681 -0.0251754 0.140168)
(0.0468324 -0.00705307 0.105986)
(-0.00228251 -0.0212478 0.112282)
(0.00120623 -0.0121366 0.0969651)
(0.00419746 -0.0105469 0.0860803)
(0.00708821 -0.00731559 0.074386)
(0.0068797 -0.00701521 0.0640902)
(0.00670981 0.0111128 0.137135)
(0.0113767 -0.00567986 0.118486)
(0.00844846 -0.00857377 0.105779)
(0.0101512 -0.0102866 0.0871556)
(0.00717998 -0.00710716 0.0743115)
(-0.0140988 -0.00263338 0.259376)
(-0.0174938 -0.00218723 0.185071)
(-0.000427386 0.000337582 0.146024)
(0.00855489 -0.00870666 0.105902)
(0.0105282 -0.00423112 0.0860123)
(-0.0495906 0.105394 0.350207)
(-0.0804694 0.0806324 0.238223)
(0.00228111 0.0183025 0.184683)
(0.00560945 -0.0117612 0.118463)
(0.0122283 -0.00103242 0.0968439)
(-0.332549 0.923279 -5.40744)
(-0.485557 0.279241 0.394662)
(0.00489233 0.0145197 0.258923)
(-0.0117699 -0.00717388 0.137478)
(0.02179 0.00235001 0.11213)
(-0.00845537 -0.0195048 0.0730993)
(-0.00499901 -0.0048442 0.0726984)
(-0.00204214 -0.00728347 0.069907)
(-0.00071417 -0.00244327 0.0655899)
(0.00500501 -0.00526181 0.0588063)
(0.00563869 0.0226845 0.100284)
(0.00687452 0.00639041 0.0948669)
(0.00016929 0.00601335 0.0832679)
(0.00113526 -0.00120374 0.0777985)
(0.00218676 0.000527563 0.0655187)
(-0.0263256 -0.0315598 0.0521035)
(-0.0231762 0.00275322 0.0799929)
(-0.00927953 0.00890118 0.0850241)
(-0.00619945 -0.000379101 0.083393)
(0.00690727 0.00186701 0.069798)
(-0.0221132 0.245215 -0.232305)
(-0.0338969 0.0345364 0.00557429)
(-0.00290596 0.0229349 0.0796627)
(-0.00625215 -0.00682175 0.0949397)
(0.00462289 0.00488039 0.0725105)
(-0.160834 0.353847 -2.9892)
(-0.268873 0.0990298 -0.430447)
(0.0299668 0.0261272 0.0513544)
(-0.0227398 -0.00587617 0.100798)