/*--------------------------------*- C++ -*----------------------------------*\
| =========                 |                                                 |
| \\      /  F ield         | OpenFOAM: The Open Source CFD Toolbox           |
|  \\    /   O peration     | Version:  5.x                                   |
|   \\  /    A nd           | Web:      www.OpenFOAM.org                      |
|    \\/     M anipulation  |                                                 |
\*---------------------------------------------------------------------------*/
FoamFile
{
    version     2.0;
    format      ascii;
    class       volScalarField;
    location    "0.14";
    object      p;
}
// * * * * * * * * * * * * * * * * * * * * * * * * * * * * * * * * * * * * * //

dimensions      [0 2 -2 0 0 0 0];

internalField   nonuniform List<scalar> 
160
(
-1.78169e-07
-1.27108e-07
-1.61441e-07
-1.829e-07
-3.66147e-07
-4.62737e-07
-3.77982e-07
-3.83702e-07
-1.49648e-07
3.45738e-07
5.162e-08
-4.45504e-07
1.46365e-07
-9.42654e-07
-5.48805e-07
-8.21986e-07
5.72359e-07
-1.26463e-06
-1.15697e-06
-1.18892e-06
-7.86372e-07
-2.26875e-07
-4.68017e-07
-8.80551e-07
-1.6781e-06
-1.57847e-06
-1.60838e-06
-1.34036e-06
-2.17943e-06
-2.24839e-06
-2.25653e-06
-2.0799e-06
-2.5964e-06
-2.71854e-06
-2.60882e-06
-2.47617e-06
-3.16621e-06
-3.34303e-06
-3.24289e-06
-3.03818e-06
-1.27108e-07
1.40206e-06
6.90089e-07
3.44585e-07
-4.62737e-07
5.14592e-06
2.60877e-06
1.15587e-06
3.45738e-07
2.32447e-05
1.15843e-05
2.60498e-06
-9.42654e-07
5.03704e-06
1.62976e-06
9.15983e-07
-1.26463e-06
-2.56971e-05
-1.17156e-05
-3.01312e-06
-2.26875e-07
-8.40397e-06
-5.66091e-06
-2.78781e-06
-1.57847e-06
-3.28562e-06
-2.90401e-06
-2.7013e-06
-2.24839e-06
-4.11144e-06
-3.22406e-06
-3.12558e-06
-2.71854e-06
-4.12805e-06
-3.41221e-06
-3.44714e-06
-3.34303e-06
-4.29926e-06
-3.81598e-06
-3.85535e-06
-1.61441e-07
6.90089e-07
4.20661e-07
1.71811e-07
-3.77982e-07
2.60877e-06
1.56762e-06
5.32934e-07
5.162e-08
1.15843e-05
7.56495e-06
1.29562e-06
-5.48805e-07
1.62976e-06
7.2365e-07
-9.40136e-08
-1.15697e-06
-1.17156e-05
-8.25873e-06
-2.58677e-06
-4.68017e-07
-5.66091e-06
-4.58799e-06
-1.80649e-06
-1.60838e-06
-2.90401e-06
-2.69017e-06
-2.46936e-06
-2.25653e-06
-3.22406e-06
-2.93686e-06
-2.88056e-06
-2.60882e-06
-3.41221e-06
-3.10409e-06
-3.10637e-06
-3.24289e-06
-3.81598e-06
-3.56792e-06
-3.62928e-06
-1.829e-07
3.44585e-07
1.71811e-07
1.5916e-07
-3.83702e-07
1.15587e-06
5.32934e-07
4.02559e-07
-4.45504e-07
2.60498e-06
1.29562e-06
6.80992e-07
-8.21986e-07
9.15983e-07
-9.40136e-08
5.44756e-08
-1.18892e-06
-3.01312e-06
-2.58677e-06
-1.15163e-06
-8.80551e-07
-2.78781e-06
-1.80649e-06
-2.09275e-06
-1.34036e-06
-2.7013e-06
-2.46936e-06
-2.77688e-06
-2.0799e-06
-3.12558e-06
-2.88056e-06
-3.20034e-06
-2.47617e-06
-3.44714e-06
-3.10637e-06
-3.55707e-06
-3.03818e-06
-3.85535e-06
-3.62928e-06
-3.80283e-06
)
;

boundaryField
{
    inlet
    {
        type            zeroGradient;
    }
    outlet
    {
        type            totalPressure;
        rho             rho;
        psi             none;
        gamma           1;
        p0              uniform 0;
        value           nonuniform List<scalar> 
16
(
-1.8235e-11
-2.75705e-11
-1.48418e-11
-1.37977e-11
-2.75705e-11
0
0
0
-1.48418e-11
0
0
0
-1.37977e-11
0
0
0
)
;
    }
    walls
    {
        type            zeroGradient;
    }
    procBoundary0to1
    {
        type            processor;
        value           nonuniform List<scalar> 
16
(
-3.41888e-06
-3.58245e-06
-3.54275e-06
-3.34908e-06
-3.58245e-06
-4.21321e-06
-3.91993e-06
-3.95454e-06
-3.54275e-06
-3.91993e-06
-3.82464e-06
-3.83026e-06
-3.34908e-06
-3.95454e-06
-3.83026e-06
-3.92086e-06
)
;
    }
}


// ************************************************************************* //
