/*--------------------------------*- C++ -*----------------------------------*\
| =========                 |                                                 |
| \\      /  F ield         | OpenFOAM: The Open Source CFD Toolbox           |
|  \\    /   O peration     | Version:  5.x                                   |
|   \\  /    A nd           | Web:      www.OpenFOAM.org                      |
|    \\/     M anipulation  |                                                 |
\*---------------------------------------------------------------------------*/
FoamFile
{
    version     2.0;
    format      ascii;
    class       surfaceScalarField;
    location    "0.14";
    object      phi;
}
// * * * * * * * * * * * * * * * * * * * * * * * * * * * * * * * * * * * * * //

dimensions      [0 3 -1 0 0 0 0];

internalField   nonuniform List<scalar> 
384
(
-5.81627e-12
3.84772e-11
-5.81627e-12
-1.52573e-12
1.5008e-11
-4.5624e-11
1.51863e-12
1.95044e-11
-3.09442e-11
2.98558e-11
-2.16549e-11
-1.74443e-11
3.87974e-11
-1.74443e-11
-2.82932e-12
1.17289e-11
-1.76176e-10
8.81781e-12
1.88361e-11
-1.13599e-10
3.93526e-11
-6.3494e-11
-3.38821e-11
4.22413e-11
-3.38821e-11
4.57309e-13
2.4317e-11
-5.01395e-10
2.25783e-11
3.54563e-11
-2.99191e-10
5.78388e-11
-1.1695e-10
-2.42022e-11
2.30071e-11
-2.42022e-11
-1.16173e-12
-6.92913e-11
-6.75629e-10
2.85487e-11
-1.01802e-11
-3.89628e-10
6.2398e-11
-1.52563e-10
1.65266e-11
1.8752e-11
1.65266e-11
1.34089e-12
-2.64336e-10
-2.40768e-10
4.4248e-12
-1.09391e-10
-1.68845e-10
3.26533e-11
-1.03096e-10
-6.75456e-12
1.50527e-11
-6.75456e-12
2.16781e-11
-2.89936e-10
4.41576e-11
2.97307e-11
-1.33931e-10
-1.40535e-11
2.40278e-11
-3.66847e-11
-2.19812e-11
1.21411e-11
-2.19812e-11
1.79427e-11
-3.064e-10
1.28931e-10
3.71646e-11
-1.49189e-10
4.58079e-11
3.3479e-11
5.54349e-12
-6.66901e-12
8.72854e-12
-6.66901e-12
1.13655e-11
-2.94518e-10
2.12598e-10
1.93856e-11
-1.45215e-10
1.063e-10
3.83635e-11
5.40342e-11
8.98494e-12
2.4941e-11
8.98494e-12
8.41482e-13
-2.16769e-10
3.15088e-10
9.96173e-12
-1.03068e-10
1.4885e-10
4.04391e-11
9.41612e-11
4.96861e-11
4.96861e-11
-3.43474e-12
4.3569e-10
-3.79211e-11
2.93336e-10
1.38659e-10
-4.5624e-11
1.5008e-11
-1.52573e-12
-3.22418e-13
-2.92567e-10
-3.22418e-13
1.67234e-11
-1.62214e-10
-3.1667e-12
-6.04317e-11
-4.86354e-12
-1.76176e-10
1.17289e-11
-2.82932e-12
1.81978e-11
-6.81315e-10
1.81978e-11
9.24804e-11
-3.47586e-10
-2.50928e-12
-7.13317e-11
-8.76205e-12
-5.01395e-10
2.4317e-11
4.57309e-13
1.13795e-10
-1.91169e-09
1.13795e-10
3.15984e-10
-8.72372e-10
2.34049e-11
-2.31764e-11
-1.0177e-11
-6.75629e-10
-6.92913e-11
-1.16173e-12
1.48605e-10
-3.56016e-09
1.48605e-10
4.69174e-10
-1.61449e-09
3.19235e-11
4.38477e-11
-9.1043e-12
-2.40768e-10
-2.64336e-10
1.34089e-12
-7.30255e-12
-4.0271e-09
-7.30255e-12
2.06388e-10
-1.98591e-09
-1.11196e-11
3.99593e-11
-1.96753e-11
4.41576e-11
-2.89936e-10
2.16781e-11
-6.32031e-11
-3.81238e-09
-6.32031e-11
-5.90286e-11
-1.98648e-09
-1.76589e-11
-7.75716e-12
-2.65186e-11
1.28931e-10
-3.064e-10
1.79427e-11
-2.40127e-11
-3.50649e-09
-2.40127e-11
-6.66685e-11
-1.89838e-09
3.70964e-13
-4.13045e-11
-5.08682e-12
2.12598e-10
-2.94518e-10
1.13655e-11
-2.60711e-11
-3.02915e-09
-2.60711e-11
-1.0803e-10
-1.71097e-09
8.46095e-13
-5.74726e-11
7.41975e-12
3.15088e-10
-2.16769e-10
8.41482e-13
-6.35889e-11
-2.2718e-09
-6.35889e-11
-1.75796e-10
-1.4177e-09
-3.22128e-11
-9.06055e-11
8.70832e-12
4.3569e-10
-3.43474e-12
-6.43981e-11
-6.43981e-11
-3.0556e-10
-1.1173e-11
1.49644e-11
-3.09442e-11
1.95044e-11
1.51863e-12
-3.1667e-12
-1.62214e-10
1.67234e-11
1.02205e-11
-1.0672e-10
1.02205e-11
-3.43084e-11
1.07119e-12
-1.13599e-10
1.88361e-11
8.81781e-12
-2.50928e-12
-3.47586e-10
9.24804e-11
5.7273e-11
-2.26285e-10
5.7273e-11
-3.06608e-11
1.10574e-11
-2.99191e-10
3.54563e-11
2.25783e-11
2.34049e-11
-8.72372e-10
3.15984e-10
1.93532e-10
-5.66539e-10
1.93532e-10
1.06194e-11
3.01816e-11
-3.89628e-10
-1.01802e-11
2.85487e-11
3.19235e-11
-1.61449e-09
4.69174e-10
2.80059e-10
-1.06281e-09
2.80059e-10
5.18654e-11
4.28316e-11
-1.68845e-10
-1.09391e-10
4.4248e-12
-1.11196e-11
-1.98591e-09
2.06388e-10
1.19199e-10
-1.32345e-09
1.19199e-10
2.84248e-11
1.82672e-11
-1.40535e-11
-1.33931e-10
2.97307e-11
-1.76589e-11
-1.98648e-09
-5.90286e-11
-3.35751e-12
-1.35205e-09
-3.35751e-12
1.5908e-12
-4.3665e-13
4.58079e-11
-1.49189e-10
3.71646e-11
3.70964e-13
-1.89838e-09
-6.66685e-11
-1.23879e-11
-1.32653e-09
-1.23879e-11
-1.81113e-11
3.78939e-12
1.063e-10
-1.45215e-10
1.93856e-11
8.46095e-13
-1.71097e-09
-1.0803e-10
-4.1664e-11
-1.24151e-09
-4.1664e-11
-3.25826e-11
-2.55386e-12
1.4885e-10
-1.03068e-10
9.96173e-12
-3.22128e-11
-1.4177e-09
-1.75796e-10
-4.93323e-11
-1.20727e-09
-4.93323e-11
-7.89644e-11
-9.29211e-12
2.93336e-10
-3.79211e-11
-1.1173e-11
-3.0556e-10
-1.96893e-10
-1.96893e-10
-4.0186e-11
-2.16549e-11
2.98558e-11
-4.86354e-12
-6.04317e-11
1.07119e-12
-3.43084e-11
-2.17303e-11
-6.3494e-11
3.93526e-11
-8.76205e-12
-7.13317e-11
1.10574e-11
-3.06608e-11
-7.72922e-12
-1.1695e-10
5.78388e-11
-1.0177e-11
-2.31764e-11
3.01816e-11
1.06194e-11
2.68497e-11
-1.52563e-10
6.2398e-11
-9.1043e-12
4.38477e-11
4.28316e-11
5.18654e-11
7.32988e-11
-1.03096e-10
3.26533e-11
-1.96753e-11
3.99593e-11
1.82672e-11
2.84248e-11
1.05513e-10
-3.66847e-11
2.40278e-11
-2.65186e-11
-7.75716e-12
-4.3665e-13
1.5908e-12
1.21966e-10
5.54349e-12
3.3479e-11
-5.08682e-12
-4.13045e-11
3.78939e-12
-1.81113e-11
1.17592e-10
5.40342e-11
3.83635e-11
7.41975e-12
-5.74726e-11
-2.55386e-12
-3.25826e-11
1.00478e-10
9.41612e-11
4.04391e-11
8.70832e-12
-9.06055e-11
-9.29211e-12
-7.89644e-11
6.02355e-11
1.38659e-10
1.49644e-11
-4.0186e-11
)
;

boundaryField
{
    inlet
    {
        type            calculated;
        value           nonuniform 0();
    }
    outlet
    {
        type            calculated;
        value           nonuniform List<scalar> 
16
(
-3.72156e-11
-1.52698e-11
-1.89099e-11
-2.66329e-11
-1.52698e-11
2.01964e-10
1.1739e-10
5.18997e-11
-1.89099e-11
1.1739e-10
7.99456e-11
3.30279e-11
-2.66329e-11
5.18997e-11
3.30279e-11
2.49942e-11
)
;
    }
    walls
    {
        type            calculated;
        value           nonuniform List<scalar> 
160
(
5.18545e-12
1.72842e-11
3.21601e-11
3.38193e-11
-1.43991e-11
8.60418e-12
2.3437e-11
8.37531e-12
-1.70912e-11
-5.34502e-11
4.15952e-11
1.6484e-10
4.54468e-10
7.46197e-10
4.50999e-10
-4.69905e-11
-1.52391e-10
-2.42514e-10
-3.84694e-10
-4.95456e-10
2.73054e-11
1.0262e-10
2.6045e-10
4.05554e-10
2.64972e-10
3.05406e-11
-4.97715e-11
-1.18294e-10
-2.00117e-10
-3.13349e-10
1.87924e-11
5.66762e-11
1.06554e-10
1.54867e-10
1.27991e-10
5.41208e-11
-6.84798e-12
-5.46476e-11
-1.03198e-10
-1.42994e-10
1.15828e-12
6.13879e-12
1.44888e-11
2.1685e-11
9.27453e-12
2.09203e-11
2.90179e-11
1.51145e-11
1.69234e-11
-2.50849e-11
8.46403e-12
4.86485e-11
1.61055e-10
2.58692e-10
1.26855e-10
-2.14782e-11
-2.24908e-11
-4.52472e-11
-5.72106e-11
-1.69408e-10
5.56629e-12
3.38059e-11
1.11893e-10
1.86877e-10
1.04697e-10
-2.60542e-12
-1.56197e-12
-1.72191e-11
1.505e-11
-1.30159e-10
-5.60804e-13
4.05689e-12
1.28922e-11
1.9607e-11
2.15989e-12
-8.66276e-12
5.97634e-12
6.00317e-12
1.0829e-11
-1.91329e-11
5.18545e-12
1.72842e-11
3.21601e-11
3.38193e-11
-1.43991e-11
8.60418e-12
2.3437e-11
8.37531e-12
-1.70912e-11
-5.34502e-11
4.15952e-11
1.6484e-10
4.54468e-10
7.46197e-10
4.50999e-10
-4.69905e-11
-1.52391e-10
-2.42514e-10
-3.84694e-10
-4.95456e-10
2.73054e-11
1.0262e-10
2.6045e-10
4.05554e-10
2.64972e-10
3.05406e-11
-4.97715e-11
-1.18294e-10
-2.00117e-10
-3.13349e-10
1.87924e-11
5.66762e-11
1.06554e-10
1.54867e-10
1.27991e-10
5.41208e-11
-6.84798e-12
-5.46476e-11
-1.03198e-10
-1.42994e-10
1.15828e-12
6.13879e-12
1.44888e-11
2.1685e-11
9.27453e-12
2.09203e-11
2.90179e-11
1.51145e-11
1.69234e-11
-2.50849e-11
8.46403e-12
4.86485e-11
1.61055e-10
2.58692e-10
1.26855e-10
-2.14782e-11
-2.24908e-11
-4.52472e-11
-5.72106e-11
-1.69408e-10
5.56629e-12
3.38059e-11
1.11893e-10
1.86877e-10
1.04697e-10
-2.60542e-12
-1.56197e-12
-1.72191e-11
1.505e-11
-1.30159e-10
-5.60804e-13
4.05689e-12
1.28922e-11
1.9607e-11
2.15989e-12
-8.66276e-12
5.97634e-12
6.00317e-12
1.0829e-11
-1.91329e-11
)
;
    }
    procBoundary0to1
    {
        type            processor;
        value           nonuniform List<scalar> 
16
(
3.24693e-11
-1.03882e-10
-4.85689e-11
3.19376e-11
-1.03882e-10
-1.27162e-09
-8.7203e-10
-1.03063e-10
-4.85689e-11
-8.7203e-10
-8.35832e-10
-9.05488e-11
3.19376e-11
-1.03063e-10
-9.05488e-11
1.81293e-11
)
;
    }
}


// ************************************************************************* //
