/*--------------------------------*- C++ -*----------------------------------*\
| =========                 |                                                 |
| \\      /  F ield         | OpenFOAM: The Open Source CFD Toolbox           |
|  \\    /   O peration     | Version:  5.x                                   |
|   \\  /    A nd           | Web:      www.OpenFOAM.org                      |
|    \\/     M anipulation  |                                                 |
\*---------------------------------------------------------------------------*/
FoamFile
{
    version     2.0;
    format      ascii;
    class       volVectorField;
    location    "0.14";
    object      Us;
}
// * * * * * * * * * * * * * * * * * * * * * * * * * * * * * * * * * * * * * //

dimensions      [0 1 -1 0 0 0 0];

internalField   nonuniform List<vector> 
160
(
(-5.89642e-13 -1.23351e-09 -5.89642e-13)
(-8.62724e-12 -1.80478e-08 -8.62724e-12)
(-8.30064e-12 -1.73646e-08 -8.30064e-12)
(-2.34159e-13 -4.8985e-10 -2.34159e-13)
(-2.54618e-11 -5.3265e-08 -2.54618e-11)
(-4.67339e-10 -9.77653e-07 -4.67339e-10)
(-4.55467e-10 -9.52817e-07 -4.55467e-10)
(-1.26849e-11 -2.65363e-08 -1.26849e-11)
(-9.34999e-10 -1.95598e-06 -9.34999e-10)
(-2.28824e-08 -4.7869e-05 -2.28824e-08)
(-2.25893e-08 -4.72558e-05 -2.25893e-08)
(-6.21566e-10 -1.30029e-06 -6.21566e-10)
(-2.28929e-08 -4.78909e-05 -2.28929e-08)
(-8.40212e-07 -0.00175769 -8.40212e-07)
(-8.4036e-07 -0.001758 -8.4036e-07)
(-2.28949e-08 -4.78951e-05 -2.28949e-08)
(-6.19381e-10 -1.29572e-06 -6.19381e-10)
(-2.27367e-08 -4.75641e-05 -2.27367e-08)
(-2.27368e-08 -4.75645e-05 -2.27368e-08)
(-6.1947e-10 -1.2959e-06 -6.1947e-10)
(-8.27268e-12 -1.73061e-08 -8.27268e-12)
(-3.0368e-10 -6.35284e-07 -3.0368e-10)
(-3.07656e-10 -6.43603e-07 -3.07656e-10)
(-1.25722e-11 -2.63004e-08 -1.25722e-11)
(-1.10497e-13 -2.31155e-10 -1.10497e-13)
(-4.05621e-12 -8.48542e-09 -4.05621e-12)
(-4.16243e-12 -8.70762e-09 -4.16243e-12)
(-2.26807e-13 -4.7447e-10 -2.26807e-13)
(-1.47596e-15 -3.08764e-12 -1.47596e-15)
(-5.41806e-14 -1.13343e-10 -5.41806e-14)
(-5.63087e-14 -1.17795e-10 -5.63087e-14)
(-3.83595e-15 -8.02463e-12 -3.83595e-15)
(-1.97159e-17 -4.12447e-14 -1.97159e-17)
(-7.23744e-16 -1.51404e-12 -7.23744e-16)
(-7.61647e-16 -1.59333e-12 -7.61647e-16)
(-6.22814e-17 -1.3029e-13 -6.22814e-17)
(-2.63256e-19 -5.5072e-16 -2.63256e-19)
(-9.66555e-18 -2.02199e-14 -9.66555e-18)
(-1.02983e-17 -2.15436e-14 -1.02983e-17)
(-9.82816e-19 -2.05601e-15 -9.82816e-19)
(-8.62724e-12 -1.80478e-08 -8.62724e-12)
(-1.57864e-10 -3.30245e-07 -1.57864e-10)
(-1.53821e-10 -3.21787e-07 -1.53821e-10)
(-4.27543e-12 -8.94401e-09 -4.27543e-12)
(-4.67339e-10 -9.77653e-07 -4.67339e-10)
(-1.14402e-08 -2.39323e-05 -1.14402e-08)
(-1.12927e-08 -2.36239e-05 -1.12927e-08)
(-3.09724e-10 -6.47928e-07 -3.09724e-10)
(-2.28824e-08 -4.7869e-05 -2.28824e-08)
(-8.4005e-07 -0.00175735 -8.4005e-07)
(-8.40058e-07 -0.00175736 -8.40058e-07)
(-2.27389e-08 -4.75688e-05 -2.27389e-08)
(-8.40212e-07 -0.00175769 -8.40212e-07)
(-6.16526e-05 -0.128975 -6.16526e-05)
(-6.16526e-05 -0.128975 -6.16526e-05)
(-8.40516e-07 -0.00175832 -8.40516e-07)
(-2.27367e-08 -4.75641e-05 -2.27367e-08)
(-8.4035e-07 -0.00175797 -8.4035e-07)
(-8.40212e-07 -0.00175769 -8.40212e-07)
(-2.25955e-08 -4.72687e-05 -2.25955e-08)
(-3.0368e-10 -6.35284e-07 -3.0368e-10)
(-1.11526e-08 -2.33308e-05 -1.11526e-08)
(-1.12948e-08 -2.36282e-05 -1.12948e-08)
(-4.55602e-10 -9.531e-07 -4.55602e-10)
(-4.05621e-12 -8.48542e-09 -4.05621e-12)
(-1.48011e-10 -3.09633e-07 -1.48011e-10)
(-1.51809e-10 -3.17577e-07 -1.51809e-10)
(-8.1656e-12 -1.70821e-08 -8.1656e-12)
(-5.41806e-14 -1.13343e-10 -5.41806e-14)
(-1.96433e-12 -4.1093e-09 -1.96433e-12)
(-2.04007e-12 -4.26775e-09 -2.04007e-12)
(-1.37197e-13 -2.8701e-10 -1.37197e-13)
(-7.23744e-16 -1.51404e-12 -7.23744e-16)
(-2.60697e-14 -5.45367e-11 -2.60697e-14)
(-2.74112e-14 -5.73431e-11 -2.74112e-14)
(-2.21286e-15 -4.6292e-12 -2.21286e-15)
(-9.66555e-18 -2.02199e-14 -9.66555e-18)
(-3.45925e-16 -7.2366e-13 -3.45925e-16)
(-3.68186e-16 -7.7023e-13 -3.68186e-16)
(-3.4691e-17 -7.2572e-14 -3.4691e-17)
(-8.30064e-12 -1.73646e-08 -8.30064e-12)
(-1.53821e-10 -3.21787e-07 -1.53821e-10)
(-1.49977e-10 -3.13746e-07 -1.49977e-10)
(-4.16621e-12 -8.71552e-09 -4.16621e-12)
(-4.55467e-10 -9.52817e-07 -4.55467e-10)
(-1.12927e-08 -2.36239e-05 -1.12927e-08)
(-1.11526e-08 -2.33308e-05 -1.11526e-08)
(-3.05755e-10 -6.39626e-07 -3.05755e-10)
(-2.25893e-08 -4.72558e-05 -2.25893e-08)
(-8.40058e-07 -0.00175736 -8.40058e-07)
(-8.40346e-07 -0.00175797 -8.40346e-07)
(-2.27409e-08 -4.7573e-05 -2.27409e-08)
(-8.4036e-07 -0.001758 -8.4036e-07)
(-6.16526e-05 -0.128975 -6.16526e-05)
(-6.16526e-05 -0.128975 -6.16526e-05)
(-8.4052e-07 -0.00175833 -8.4052e-07)
(-2.27368e-08 -4.75645e-05 -2.27368e-08)
(-8.40212e-07 -0.00175769 -8.40212e-07)
(-8.40354e-07 -0.00175798 -8.40354e-07)
(-2.28909e-08 -4.78868e-05 -2.28909e-08)
(-3.07656e-10 -6.43603e-07 -3.07656e-10)
(-1.12948e-08 -2.36282e-05 -1.12948e-08)
(-1.14443e-08 -2.3941e-05 -1.14443e-08)
(-4.67515e-10 -9.7802e-07 -4.67515e-10)
(-4.16243e-12 -8.70762e-09 -4.16243e-12)
(-1.51809e-10 -3.17577e-07 -1.51809e-10)
(-1.55802e-10 -3.2593e-07 -1.55802e-10)
(-8.48578e-12 -1.77519e-08 -8.48578e-12)
(-5.63087e-14 -1.17795e-10 -5.63087e-14)
(-2.04007e-12 -4.26775e-09 -2.04007e-12)
(-2.12037e-12 -4.43571e-09 -2.12037e-12)
(-1.44368e-13 -3.02012e-10 -1.44368e-13)
(-7.61647e-16 -1.59333e-12 -7.61647e-16)
(-2.74112e-14 -5.73431e-11 -2.74112e-14)
(-2.88477e-14 -6.03481e-11 -2.88477e-14)
(-2.3574e-15 -4.93158e-12 -2.3574e-15)
(-1.02983e-17 -2.15436e-14 -1.02983e-17)
(-3.68186e-16 -7.7023e-13 -3.68186e-16)
(-3.92281e-16 -8.20635e-13 -3.92281e-16)
(-3.74096e-17 -7.82593e-14 -3.74096e-17)
(-2.34159e-13 -4.8985e-10 -2.34159e-13)
(-4.27543e-12 -8.94401e-09 -4.27543e-12)
(-4.16621e-12 -8.71552e-09 -4.16621e-12)
(-1.17309e-13 -2.45406e-10 -1.17309e-13)
(-1.26849e-11 -2.65363e-08 -1.26849e-11)
(-3.09724e-10 -6.47928e-07 -3.09724e-10)
(-3.05755e-10 -6.39626e-07 -3.05755e-10)
(-8.4952e-12 -1.77716e-08 -8.4952e-12)
(-6.21566e-10 -1.30029e-06 -6.21566e-10)
(-2.27389e-08 -4.75688e-05 -2.27389e-08)
(-2.27409e-08 -4.7573e-05 -2.27409e-08)
(-6.2358e-10 -1.3045e-06 -6.2358e-10)
(-2.28949e-08 -4.78951e-05 -2.28949e-08)
(-8.40516e-07 -0.00175832 -8.40516e-07)
(-8.4052e-07 -0.00175833 -8.4052e-07)
(-2.29014e-08 -4.79088e-05 -2.29014e-08)
(-6.1947e-10 -1.2959e-06 -6.1947e-10)
(-2.25955e-08 -4.72687e-05 -2.25955e-08)
(-2.28909e-08 -4.78868e-05 -2.28909e-08)
(-9.35349e-10 -1.95671e-06 -9.35349e-10)
(-1.25722e-11 -2.63004e-08 -1.25722e-11)
(-4.55602e-10 -9.531e-07 -4.55602e-10)
(-4.67515e-10 -9.7802e-07 -4.67515e-10)
(-2.54713e-11 -5.32849e-08 -2.54713e-11)
(-2.26807e-13 -4.7447e-10 -2.26807e-13)
(-8.1656e-12 -1.70821e-08 -8.1656e-12)
(-8.48578e-12 -1.77519e-08 -8.48578e-12)
(-5.77999e-13 -1.20915e-09 -5.77999e-13)
(-3.83595e-15 -8.02463e-12 -3.83595e-15)
(-1.37197e-13 -2.8701e-10 -1.37197e-13)
(-1.44368e-13 -3.02012e-10 -1.44368e-13)
(-1.18034e-14 -2.46923e-11 -1.18034e-14)
(-6.22814e-17 -1.3029e-13 -6.22814e-17)
(-2.21286e-15 -4.6292e-12 -2.21286e-15)
(-2.3574e-15 -4.93158e-12 -2.3574e-15)
(-2.2495e-16 -4.70585e-13 -2.2495e-16)
(-9.82816e-19 -2.05601e-15 -9.82816e-19)
(-3.4691e-17 -7.2572e-14 -3.4691e-17)
(-3.74096e-17 -7.82593e-14 -3.74096e-17)
(-4.08158e-18 -8.53848e-15 -4.08158e-18)
)
;

boundaryField
{
    inlet
    {
        type            zeroGradient;
    }
    outlet
    {
        type            zeroGradient;
    }
    walls
    {
        type            zeroGradient;
    }
    procBoundary0to1
    {
        type            processor;
        value           uniform (0 0 0);
    }
}


// ************************************************************************* //
