/*--------------------------------*- C++ -*----------------------------------*\
| =========                 |                                                 |
| \\      /  F ield         | OpenFOAM: The Open Source CFD Toolbox           |
|  \\    /   O peration     | Version:  5.x                                   |
|   \\  /    A nd           | Web:      www.OpenFOAM.org                      |
|    \\/     M anipulation  |                                                 |
\*---------------------------------------------------------------------------*/
FoamFile
{
    version     2.0;
    format      ascii;
    class       volScalarField;
    location    "0.075";
    object      interFace;
}
// * * * * * * * * * * * * * * * * * * * * * * * * * * * * * * * * * * * * * //

dimensions      [0 0 0 0 0 0 0];

internalField   nonuniform List<scalar> 
1574
(
0
0
0
0
0
0
0
0
0
0
0
0
0
0
0
0
0
0
0
0
0
0
0
0
0
0
0
0
0
0
0
0
0
0
0
0
0
0
0
0
0
0
0
0
0
0
0
0
0
0
0
0
0
0
0
0
0
0
0
0
0
0
0
0
0
0
0
0
0
0
0
0
0
0
0
0
0
0
0
0
0
0
0
0
0
0
0
0
0
0
0
0
0
0
0
0
0
0
0
0
0
0
0
0
0
0
0
0
0
0
0
0
0
0
0
0
0
0
0
0
0
0
0
0
0
0
0
0
0
0
0
0
0
0
0
0
0
0
0
0
0
0
0
0
0
0
0
0
0
0
0
0
0
0
0
0
0
0
0
0
0
0
0
0
0
0
0
0
0
0
0
0
0
0
0
0
0
0
0
0
0
0
0
0
0
0
0
0
0
0
0
0
0
0
0
0
0
0
0
0
0
0
0
0
0
0
0
0
0
0
0
0
0
0
0
0
0
0
0
0
0
0
0
0
0
0
0
0
0
0
0
0
0
0
0
0
0
0
0
0
0
0
0
0
0
0
0
0
0
0
0
0
0
0
0
0
0
0
0
0
0
0
0
0
0
0
0
0
0
0
0
0
0
0
0
0
0
0
0
0
0
0
0
0
0
0
0
0
0
0
0
0
0
0
0
0
0
0
0
0
0
0
0
0
0
0
0
0
0
0
0
0
0
0
0
0
0
0
0
0
0
0
0
0
0
0
0
0
0
0
0
0
0
0
0
0
0
0
0
0
0
0
0
0
0
0
0
0
0
0
0
0
0
0
0
0
0
0
0
0
0
0
0
0
0
0
0
0
0
0
0
0
0
0
0
0
0
0
0
0
0
0
0
0
0
0
0
0
0
0
0
0
0
0
0
0
0
0
0
0
0
0
0
0
0
0
0
0
0
0
0
0
0
0
0
0
0
0
0
0
0
0
0
0
0
0
0
0
0
0
0
0
0
0
0
0
0
0
0
0
0
0
0
0
0
0
0
0
0
0
0
0
0
0
0
0
0
0
0
0
0
0
0
0
0
0
0
0
0
0
0
0
0
0
0
0
0
0
0
0
0
0
0
0
0
0
0
0
0
0
0
0
0
0
0
0
0
0
0
0
0
0
0
0
0
0
0
0
0
0
0
0
0
0
0
0
0
0
0
0
0
0
0
0
0
0
0
0
0
0
0
0
0
0
0
0
0
0
0
0
0
0
0
0
0
0
0
0
0
0
0
0
0
0
0
0
0
0
0
0
0
0
0
0
0
0
0
0
0
0
0
0
0
0
0
0
0
0
0
0
0
0
0
0
0
0
0
0
0
0
0
0
0
0
0
0
0
0
0
0
0
0
0
0
0
0
0
0
0
0
0
0
0
0
0
0
0
0
0
0
0
0
0
0
0
0
0
0
0
0
0
0
0
0
0
0
0
0
0
0
0
0
0
0
0
0
0
0
0
0
0
0
0
0
0
0
0
0
0
0
0
0
0
0
0
0
0
0
0
0
0.788381
0
0
0
0
0
0
0
0
0
0
0
0
0
0
0
0
0
0
0
0
0
0
0
0
0.331599
0.780063
0
0
0
0
0
0
0
0
0
0
0
0
0
0
0
0
0
0
0
0
0
0
0
0.417917
0.961275
0
0
0
0
0
0
0
0
0
0
0
0
0
0
0
0
0
0
0
0
0
0
0
0
0
0
0
0
0
0
0
0
0
0
0
0
0
0
0
0
0
0
0
0
0
0
0
0
0.491127
0.910011
0
0
0
0
0
0
0
0
0
0
0
0
0
0
0
0
0
0
0
0
0
0
0
0.299375
0.74778
0
0
0
0
0
0
0
0
0
0
0
0
0
0
0
0
0
0
0
0
0
0
0
0.884872
0
0
0
0
0
0
0
0
0
0
0
0
0
0
0
0
0
0
0
0
0
0
0
0
0
0
0
0
0
0
0
0
0
0
0
0
0
0
0
0
0
0
0
0
0
0
0
0
0
0
0
0
0
0
0
0
0
0
0
0
0
0
0
0
0
0
0
0
0
0
0
0
0
0
0
0
0
0
0
0
0
0
0
0
0
0
0
0
0
0
0
0
0
0
0
0
0
0
0
0
0
0
0
0
0
0
0
0
0
0
0
0
0
0
0
0
0
0
0
0
0
0
0
0
0
0
0
0
0
0
0
0
0
0
0
0
0
0
0
0
0
0
0
0
0
0
0
0
0
0
0
0
0
0
0
0
0
0
0
0
0
0
0
0
0
0
0
0
0
0
0
0
0
0
0
0
0
0
0
0.7602
0.222358
0.49143
0.280083
0.549156
0.011313
0.280386
0.568448
0.0306058
0.299679
0.626177
0.89525
0.357408
0.626481
0
0.705693
0.885075
0
0
0
0
0
0
0
0.651116
0.871326
0.382347
0.65142
0.687034
0.149198
0.418315
0.953271
0.959484
0.684552
0.953669
0.729304
0.729437
0.77419
0.550918
0.46128
0.506033
0.506165
0
0.597131
0.961009
0
0
0
0
0
0.597662
0
0
0
0
0
0.998156
0.818877
0.863762
0.640491
0.729999
0.774884
0.595605
0.998421
0.819143
0.863895
0.640623
0.730397
0.775149
0.595871
0.293293
0.203653
0.402177
0.402278
0.447047
0.248423
0.248524
0
0.478606
0.747679
0
0
0.846184
0
0
0.479011
0
0
0
0.846589
0
0.382883
0.472423
0.671048
0.491767
0.517293
0.536637
0.338012
0.382984
0.472726
0.67125
0.491969
0.517495
0.536738
0.338215
0.600716
0.0628804
0.331997
0.329106
0.598223
0.0603879
0.329505
0.372466
0.19395
0.194083
0.282829
0.238836
0.327581
0.327714
0.462039
0.462802
0.283523
0.551547
0.328408
0.596433
0.417154
0.462172
0.463067
0.283789
0.551946
0.328541
0.596698
0.41742
0.472574
0.741496
0.760739
0.76084
0.606984
0.607085
0.626328
0.551745
0.552507
0.55264
0.820664
0.418114
0.686138
0.686271
0.184359
0.0753752
0.0754763
0.0947192
0.120246
0.139489
0.13959
0.273949
0.344246
0.164965
0.363489
0.209835
0.408359
0.229078
0.27405
0.344448
0.165167
0.363792
0.209937
0.408561
0.229281
0.10514
0.105273
0.150025
0.106036
0.0163982
0.0611505
0.0612833
0
0.510813
0.77993
0
0
0.50832
0.777437
0
0.511344
0
0.77757
0
0.508852
0
0.642016
0.730761
0.775646
0.999681
0.821165
0.86605
0.954796
0.642414
0.731293
0.776045
0
0.821829
0.866581
0.95546
0.373992
0.194713
0.239598
0.195608
0.285117
0.330002
0.150723
0.374257
0.194979
0.239731
0.195741
0.285515
0.330267
0.150989
0.36364
0.433937
0.434038
0.632562
0.299526
0.49805
0.498151
0.463697
0.46383
0.329304
0.285314
0.554234
0.419707
0.41984
0
0
0
0
0
0
0
0.12648
0.0368406
0.0560823
0.0561834
0.100953
0.08161
0.081711
0
0.670358
0.909809
0
0
0.459314
0.728386
0
0.670762
0
0.728488
0
0.459718
0
0.21607
0.30561
0.324953
0.145672
0.350481
0.190543
0.1712
0.216171
0.305914
0.325155
0.145874
0.350683
0.190644
0.171402
0.702658
0.523477
0.54272
0.747528
0.58759
0.811642
0.766771
0.52378
0.703163
0.543124
0.747933
0.587894
0.812046
0.767277
0.967792
0.693691
0.788647
0.422071
0.691188
0.153352
0.422469
0.106866
0.107633
0.107766
0.0172291
0.152518
0.0619814
0.0621142
0.196439
0.376484
0.197206
0.285948
0.242091
0.330833
0.151554
0.196572
0.37675
0.197471
0.286346
0.242223
0.331098
0.15182
0.553205
0.732355
0.77724
0.464331
0.509216
0.73325
0.688365
0.553604
0.733019
0.777771
0.464862
0.509614
0.733781
0.689029
0.305761
0.574683
0.414644
0.414745
0.440172
0.440273
0.280234
0.286145
0.46619
0.466322
0.555064
0.331796
0.420538
0.420671
0.971731
0.613168
0.811793
0.837219
0.677281
0.901333
0
0
0
0
0
0
0
0
0.196829
0.267127
0.267228
0.107189
0.311997
0.151958
0.152059
0.642911
0
0.866946
0.733448
0.598921
0.822956
0.957482
0.643177
0
0.867344
0.73358
0.599187
0.823354
0.957748
0.286418
0.535998
0.356717
0.375958
0.401587
0.420829
0.241548
0.28652
0.5362
0.356919
0.376262
0.401688
0.421031
0.24175
0.484841
0.683365
0.504184
0.529712
0.728235
0.753763
0.708893
0.485246
0.504487
0.68387
0.530015
0.72864
0.754167
0.709398
0.198105
0.198237
0.24299
0.378282
0.288645
0.333397
0.33353
0
0
0
0
0
0.786583
0.965994
0
0
0
0.96626
0
0.787114
0
0.555698
0.465161
0.510047
0.734081
0.734847
0.779732
0.689196
0.556096
0.465693
0.510445
0.734612
0.735511
0.780264
0.68986
0.466956
0.287677
0.332563
0.467855
0.557363
0.602248
0.42297
0.467222
0.287943
0.332695
0.467988
0.557762
0.602514
0.423235
0.376109
0.625689
0.62579
0.645031
0.491278
0.51052
0.510621
0.556662
0.556794
0.422268
0.557561
0.82648
0.691954
0.692087
0
0
0
0
0
0
0
0.753914
0.952438
0.593875
0.619403
0.817926
0.843454
0.977966
0.645669
0.734411
0.600018
0.824185
0
0.869836
0.958578
0.427116
0.427217
0.471987
0.676796
0.587157
0.631926
0.632027
0.645404
0.734278
0.599752
0.823787
0
0.869438
0.958313
0
0
0
0
0
0
0
0
0
0
0
0
0
0
0.971933
0.61337
0.811894
0.837523
0.677483
0.901636
0
0.695987
0.516706
0.561576
0.766386
0.855926
0.900797
0.721516
0.696189
0.516908
0.561678
0.766487
0.85623
0.900999
0.721718
0.89441
0.715229
0.555189
0.93928
0.60006
0.824111
0.779241
0.715532
0.894915
0.555594
0.939684
0.600363
0.824516
0.779746
0.754015
0.95264
0.594077
0.619605
0.81823
0.843757
0.978168
0
0
0
0
0
0
0
0.558395
0.738444
0.738576
0.468758
0.783329
0.51351
0.513643
)
;

boundaryField
{
    inlet
    {
        type            calculated;
        value           uniform 0;
    }
    wall
    {
        type            calculated;
        value           uniform 0;
    }
    outlet
    {
        type            calculated;
        value           uniform 0;
    }
    procBoundary1to0
    {
        type            processor;
        value           uniform 0;
    }
    procBoundary1to3
    {
        type            processor;
        value           uniform 0;
    }
}


// ************************************************************************* //
