/*--------------------------------*- C++ -*----------------------------------*\
| =========                 |                                                 |
| \\      /  F ield         | OpenFOAM: The Open Source CFD Toolbox           |
|  \\    /   O peration     | Version:  5.x                                   |
|   \\  /    A nd           | Web:      www.OpenFOAM.org                      |
|    \\/     M anipulation  |                                                 |
\*---------------------------------------------------------------------------*/
FoamFile
{
    version     2.0;
    format      ascii;
    class       surfaceScalarField;
    location    "0.075";
    object      phi;
}
// * * * * * * * * * * * * * * * * * * * * * * * * * * * * * * * * * * * * * //

dimensions      [0 3 -1 0 0 0 0];

internalField   nonuniform List<scalar> 
4360
(
3.3941e-08
-3.38114e-07
-1.3888e-08
1.18891e-07
-3.40738e-07
-1.99738e-08
1.7908e-07
-3.43137e-07
5.73376e-09
2.33832e-07
-3.44313e-07
1.16183e-08
-3.44771e-07
1.00448e-07
2.83038e-08
-2.91972e-07
-1.26779e-07
1.15676e-07
-2.95167e-07
-1.32932e-07
1.77397e-07
-2.98104e-07
-1.06744e-07
2.33308e-07
-2.99541e-07
-1.00677e-07
-3.00717e-07
-1.09787e-08
2.54479e-08
-2.40836e-07
-1.33079e-07
1.13593e-07
-2.44194e-07
-1.39108e-07
1.75926e-07
-2.47626e-07
-1.12802e-07
2.32233e-07
-2.49344e-07
-1.06497e-07
-2.51354e-07
-1.67282e-08
2.06194e-08
-1.53569e-07
-1.70752e-07
1.10109e-07
-1.56936e-07
-1.76743e-07
1.73558e-07
-1.60815e-07
-1.50251e-07
2.30715e-07
-1.62639e-07
-1.43853e-07
-1.65548e-07
-5.39169e-08
1.72582e-08
-1.63833e-07
1.07233e-07
-1.6958e-07
1.71284e-07
-1.43237e-07
2.28847e-07
-1.36563e-07
-4.6964e-08
-2.88689e-08
-4.52784e-08
-3.65878e-08
-3.56742e-09
-4.437e-08
-3.38637e-08
-1.71471e-09
-4.36803e-08
1.5508e-08
-1.1922e-09
-4.38426e-08
2.28478e-08
-4.37956e-08
1.04835e-07
-2.54671e-08
-7.03377e-08
-1.32823e-07
-1.89005e-09
-7.00586e-08
-1.30808e-07
-1.10202e-09
-6.98818e-08
-8.13217e-08
-9.57033e-10
-7.04766e-08
-7.41817e-08
-7.08346e-08
8.48016e-09
-2.52789e-08
-8.88224e-08
-1.44327e-07
-2.51669e-09
-8.93779e-08
-1.4254e-07
-1.82486e-09
-9.00159e-08
-9.33495e-08
-1.5672e-09
-9.09017e-08
-8.63211e-08
-9.16322e-08
-3.80274e-09
-2.50307e-08
-8.08997e-08
-2.071e-07
-3.02366e-09
-8.22164e-08
-2.05905e-07
-2.48528e-09
-8.36707e-08
-1.57124e-07
-2.08221e-09
-8.47549e-08
-1.50391e-07
-8.5917e-08
-6.78477e-08
-2.63983e-08
-2.15746e-07
-4.71047e-09
-2.14848e-07
-4.31394e-09
-1.66618e-07
-3.40813e-09
-1.60197e-07
-7.81679e-08
3.77682e-08
-2.99667e-07
-7.1166e-08
1.20795e-07
-3.02288e-07
-6.7826e-08
1.67545e-07
-3.04544e-07
1.87398e-08
2.08514e-07
-3.05795e-07
3.23058e-08
-3.06245e-07
1.79156e-07
3.272e-08
-2.73359e-07
-2.44098e-07
1.17696e-07
-2.76523e-07
-2.41539e-07
1.65858e-07
-2.79577e-07
-1.54445e-07
2.08003e-07
-2.81181e-07
-1.40936e-07
-2.82478e-07
7.57012e-09
3.00839e-08
-2.38249e-07
-2.65009e-07
1.15611e-07
-2.41773e-07
-2.62809e-07
1.64274e-07
-2.45575e-07
-1.76007e-07
2.06865e-07
-2.47481e-07
-1.62606e-07
-2.49696e-07
-1.41498e-08
2.48168e-08
-1.5807e-07
-3.74282e-07
1.11747e-07
-1.61783e-07
-3.72822e-07
1.61584e-07
-1.66323e-07
-2.86205e-07
2.05238e-07
-1.68447e-07
-2.73071e-07
-1.71778e-07
-1.24097e-07
2.10869e-08
-3.87012e-07
1.08541e-07
-3.8601e-07
1.58982e-07
-3.00121e-07
2.0319e-07
-2.87256e-07
-1.38924e-07
1.4527e-08
-2.47221e-07
-1.11334e-07
8.97167e-08
-2.4777e-07
-1.03934e-07
1.29946e-07
-2.47116e-07
1.78659e-08
1.64336e-07
-2.47575e-07
3.75424e-08
-2.46301e-07
2.32989e-07
1.51779e-08
-2.34271e-07
-3.35641e-07
9.03998e-08
-2.35403e-07
-3.29119e-07
1.30985e-07
-2.35736e-07
-2.06403e-07
1.65741e-07
-2.36589e-07
-1.86673e-07
-2.36268e-07
1.1535e-08
1.4155e-08
-2.10697e-07
-3.66897e-07
8.93034e-08
-2.12494e-07
-3.60856e-07
1.30019e-07
-2.13962e-07
-2.38488e-07
1.65005e-07
-2.15229e-07
-2.18944e-07
-2.16064e-07
-2.06613e-08
1.26938e-08
-1.46878e-07
-5.16328e-07
8.80434e-08
-1.49266e-07
-5.11389e-07
1.29208e-07
-1.52017e-07
-3.89303e-07
1.64723e-07
-1.5369e-07
-3.70116e-07
-1.55985e-07
-1.7088e-07
1.02487e-08
-5.39092e-07
8.56434e-08
-5.34907e-07
1.2709e-07
-4.1387e-07
1.63023e-07
-3.95131e-07
-1.96663e-07
7.30113e-08
-4.27935e-07
-1.74282e-07
1.97301e-07
-4.30878e-07
-1.6247e-07
2.63426e-07
-4.32225e-07
1.83628e-08
3.18983e-07
-4.33435e-07
4.91196e-08
-4.32018e-07
3.35586e-07
6.80733e-08
-3.91383e-07
-5.02829e-07
1.95119e-07
-3.95086e-07
-4.91944e-07
2.63239e-07
-3.97807e-07
-3.0893e-07
3.20364e-07
-3.99555e-07
-2.77669e-07
-3.99543e-07
1.3873e-08
6.50546e-08
-3.39688e-07
-5.49858e-07
1.92766e-07
-3.44058e-07
-5.39576e-07
2.61511e-07
-3.48272e-07
-3.56752e-07
3.19218e-07
-3.50571e-07
-3.25624e-07
-3.5234e-07
-3.35489e-08
5.87924e-08
-2.19754e-07
-7.69525e-07
1.88527e-07
-2.24594e-07
-7.6056e-07
2.58954e-07
-2.30513e-07
-5.77469e-07
3.18163e-07
-2.33356e-07
-5.46527e-07
-2.37509e-07
-2.52209e-07
5.39497e-08
-8.02073e-07
1.84298e-07
-7.94121e-07
2.55475e-07
-6.1229e-07
3.15475e-07
-5.81892e-07
-2.88368e-07
9.40071e-08
-5.34357e-07
-2.59767e-07
2.53438e-07
-5.36504e-07
-2.40854e-07
3.39168e-07
-5.35269e-07
1.41445e-08
4.1044e-07
-5.35883e-07
5.98374e-08
-5.31491e-07
4.63334e-07
9.218e-08
-4.8736e-07
-7.18447e-07
2.54339e-07
-4.90402e-07
-7.00192e-07
3.42216e-07
-4.90897e-07
-4.41166e-07
4.1492e-07
-4.92161e-07
-3.94083e-07
-4.89581e-07
1.79844e-08
8.96113e-08
-4.19256e-07
-7.87103e-07
2.52361e-07
-4.23237e-07
-7.69467e-07
3.40859e-07
-4.25893e-07
-5.10237e-07
4.14115e-07
-4.27924e-07
-4.63104e-07
-4.27966e-07
-4.96473e-08
8.51647e-08
-2.67673e-07
-1.09217e-06
2.49864e-07
-2.7245e-07
-1.07601e-06
3.40105e-07
-2.77724e-07
-8.15857e-07
4.14784e-07
-2.80588e-07
-7.68534e-07
-2.84122e-07
-3.51071e-07
8.03361e-08
-1.13958e-06
2.4554e-07
-1.12473e-06
3.36529e-07
-8.66057e-07
4.1201e-07
-8.19351e-07
-4.02554e-07
1.67465e-07
-7.67037e-07
-3.83297e-07
3.94823e-07
-7.70553e-07
-3.53044e-07
5.14084e-07
-7.68532e-07
1.05092e-08
6.10207e-07
-7.68866e-07
7.98692e-08
-7.6072e-07
6.503e-07
1.62809e-07
-6.96429e-07
-1.0332e-06
3.96239e-07
-7.01195e-07
-1.00298e-06
5.19573e-07
-7.01666e-07
-6.31357e-07
6.18335e-07
-7.02939e-07
-5.58759e-07
-6.97393e-07
2.69065e-08
1.58906e-07
-5.94398e-07
-1.13476e-06
3.93801e-07
-6.00444e-07
-1.1051e-06
5.18315e-07
-6.04098e-07
-7.32309e-07
6.18029e-07
-6.06545e-07
-6.59204e-07
-6.05042e-07
-7.02708e-08
1.50905e-07
-3.68956e-07
-1.56777e-06
3.90152e-07
-3.76138e-07
-1.53954e-06
5.17875e-07
-3.84077e-07
-1.16359e-06
6.20107e-07
-3.87971e-07
-1.08934e-06
-3.92446e-07
-4.92393e-07
1.43737e-07
-1.63567e-06
3.84154e-07
-1.60909e-06
5.13163e-07
-1.23455e-06
6.16656e-07
-1.16086e-06
-5.63904e-07
2.50207e-07
-1.06217e-06
-5.60333e-07
5.69477e-07
-1.06538e-06
-5.11929e-07
7.37245e-07
-1.05998e-06
3.18285e-09
8.69672e-07
-1.05913e-06
1.08385e-07
-1.04507e-06
9.16857e-07
2.47584e-07
-9.61425e-07
-1.47941e-06
5.74819e-07
-9.66179e-07
-1.42942e-06
7.48434e-07
-9.63855e-07
-9.01088e-07
8.83801e-07
-9.6414e-07
-7.89104e-07
-9.53302e-07
4.37896e-08
2.43579e-07
-8.12564e-07
-1.63137e-06
5.72814e-07
-8.19104e-07
-1.58142e-06
7.48057e-07
-8.21547e-07
-1.04987e-06
8.8449e-07
-8.23575e-07
-9.36202e-07
-8.18922e-07
-9.65188e-08
2.35818e-07
-4.9497e-07
-2.23932e-06
5.70532e-07
-5.03211e-07
-2.19016e-06
7.50236e-07
-5.11592e-07
-1.65327e-06
8.89523e-07
-5.15795e-07
-1.53643e-06
-5.1958e-07
-6.83698e-07
2.27533e-07
-2.33906e-06
5.63714e-07
-2.29145e-06
7.45073e-07
-1.75543e-06
8.85838e-07
-1.63867e-06
-7.8446e-07
3.77079e-07
-1.48006e-06
-8.05971e-07
8.17616e-07
-1.48293e-06
-7.29399e-07
1.04708e-06
-1.46898e-06
-4.94652e-09
1.22229e-06
-1.46478e-06
1.54478e-07
-1.4356e-06
1.28656e-06
3.76475e-07
-1.33985e-06
-2.10507e-06
8.32563e-07
-1.34491e-06
-2.02355e-06
1.07153e-06
-1.33549e-06
-1.27355e-06
1.25144e-06
-1.33301e-06
-1.10076e-06
-1.3086e-06
7.46153e-08
3.72175e-07
-1.12767e-06
-2.33358e-06
8.32284e-07
-1.13544e-06
-2.25103e-06
1.07406e-06
-1.13311e-06
-1.49404e-06
1.25569e-06
-1.13349e-06
-1.31735e-06
-1.11877e-06
-1.28476e-07
3.63493e-07
-6.75692e-07
-3.19372e-06
8.34623e-07
-6.86505e-07
-3.11029e-06
1.08333e-06
-6.95364e-07
-2.33976e-06
1.2694e-06
-6.99823e-07
-2.15618e-06
-7.00776e-07
-9.42149e-07
3.52753e-07
-3.34065e-06
8.26881e-07
-3.25892e-06
1.07823e-06
-2.48745e-06
1.26649e-06
-2.30288e-06
-1.08388e-06
5.74933e-07
-2.10859e-06
-1.16274e-06
1.21033e-06
-2.10951e-06
-1.03903e-06
1.53972e-06
-2.08936e-06
-1.13958e-08
1.78119e-06
-2.07996e-06
2.3506e-07
-2.03781e-06
1.83877e-06
5.77786e-07
-1.91254e-06
-3.00841e-06
1.23329e-06
-1.916e-06
-2.87256e-06
1.57754e-06
-1.90086e-06
-1.80629e-06
1.82341e-06
-1.89332e-06
-1.53326e-06
-1.85589e-06
1.36925e-07
5.74593e-07
-1.59715e-06
-3.3644e-06
1.23637e-06
-1.60447e-06
-3.22437e-06
1.58496e-06
-1.60083e-06
-2.14267e-06
1.83264e-06
-1.59779e-06
-1.86054e-06
-1.57566e-06
-1.63602e-07
5.6523e-07
-9.44774e-07
-4.57846e-06
1.24029e-06
-9.56642e-07
-4.43324e-06
1.59997e-06
-9.66739e-07
-3.33357e-06
1.85238e-06
-9.70195e-07
-3.03618e-06
-9.68626e-07
-1.30128e-06
5.53299e-07
-4.8051e-06
1.23254e-06
-4.65882e-06
1.59591e-06
-3.55411e-06
1.85085e-06
-3.25275e-06
-1.50583e-06
8.23525e-07
-2.93722e-06
-1.64448e-06
1.68987e-06
-2.93243e-06
-1.44902e-06
2.13977e-06
-2.87964e-06
-1.50944e-08
2.4559e-06
-2.85742e-06
3.61888e-07
-2.76593e-06
2.59416e-06
8.42797e-07
-2.6714e-06
-4.26357e-06
1.75075e-06
-2.67036e-06
-4.04256e-06
2.22387e-06
-2.62505e-06
-2.53397e-06
2.54725e-06
-2.6059e-06
-2.10813e-06
-2.52192e-06
2.41789e-07
8.42633e-07
-2.22679e-06
-4.81306e-06
1.76231e-06
-2.23247e-06
-4.58195e-06
2.24329e-06
-2.20298e-06
-3.04571e-06
2.56976e-06
-2.19177e-06
-2.60111e-06
-2.13163e-06
-2.01691e-07
8.42084e-07
-1.30166e-06
-6.54334e-06
1.79168e-06
-1.31631e-06
-6.29904e-06
2.28796e-06
-1.31729e-06
-4.71553e-06
2.62154e-06
-1.31787e-06
-4.24361e-06
-1.29978e-06
-1.77107e-06
8.27754e-07
-6.88853e-06
1.78632e-06
-6.64372e-06
2.28914e-06
-5.04656e-06
2.62645e-06
-4.56468e-06
-2.06619e-06
1.2676e-06
-4.24851e-06
-2.3447e-06
2.53841e-06
-4.23097e-06
-2.02395e-06
3.19196e-06
-4.16617e-06
1.19411e-08
3.61798e-06
-4.11982e-06
6.07144e-07
-3.99863e-06
3.76459e-06
1.29838e-06
-3.89839e-06
-6.08547e-06
2.61914e-06
-3.88403e-06
-5.71023e-06
3.31147e-06
-3.8251e-06
-3.56735e-06
3.73922e-06
-3.78066e-06
-2.87501e-06
-3.6617e-06
4.58464e-07
1.30902e-06
-3.22794e-06
-6.98542e-06
2.65095e-06
-3.22176e-06
-6.58613e-06
3.35585e-06
-3.19356e-06
-4.38214e-06
3.78553e-06
-3.16199e-06
-3.64944e-06
-3.08273e-06
-2.17676e-07
1.30808e-06
-1.88217e-06
-9.43724e-06
2.67979e-06
-1.88987e-06
-9.00264e-06
3.41447e-06
-1.89204e-06
-6.75169e-06
3.84946e-06
-1.88215e-06
-5.95841e-06
-1.85351e-06
-2.42216e-06
1.30022e-06
-1.00109e-05
2.68496e-06
-9.55783e-06
3.42746e-06
-7.27171e-06
3.86601e-06
-6.45581e-06
-2.86439e-06
1.7779e-06
-5.95547e-06
-3.2567e-06
3.49582e-06
-5.91247e-06
-2.74636e-06
4.38503e-06
-5.73948e-06
7.84544e-08
4.9259e-06
-5.64987e-06
1.00183e-06
-5.38013e-06
5.37056e-06
1.87347e-06
-5.50662e-06
-8.60282e-06
3.70522e-06
-5.46829e-06
-7.98615e-06
4.65117e-06
-5.30083e-06
-4.95194e-06
5.19504e-06
-5.21399e-06
-3.85475e-06
-4.94802e-06
8.21282e-07
1.90032e-06
-4.56792e-06
-1.00442e-05
3.76807e-06
-4.55362e-06
-9.36854e-06
4.73914e-06
-4.41941e-06
-6.23463e-06
5.28604e-06
-4.35737e-06
-5.05296e-06
-4.15019e-06
-2.00104e-07
1.94568e-06
-2.63461e-06
-1.35983e-05
3.90167e-06
-2.64776e-06
-1.28645e-05
4.90467e-06
-2.60358e-06
-9.5705e-06
5.45543e-06
-2.57745e-06
-8.2891e-06
-2.4852e-06
-3.23286e-06
1.93382e-06
-1.45e-05
3.91778e-06
-1.37503e-05
4.94464e-06
-1.03964e-05
5.49969e-06
-9.05615e-06
-3.89148e-06
2.79358e-06
-8.79253e-06
-4.54255e-06
5.36565e-06
-8.68258e-06
-3.68787e-06
6.67135e-06
-8.47603e-06
3.28214e-07
7.35238e-06
-8.27483e-06
1.81786e-06
-7.92457e-06
7.97402e-06
2.93972e-06
-8.30887e-06
-1.22575e-05
5.64155e-06
-8.18962e-06
-1.1181e-05
7.05109e-06
-7.97336e-06
-6.86418e-06
7.70228e-06
-7.75679e-06
-5.02399e-06
-7.37747e-06
1.59162e-06
3.03814e-06
-6.88769e-06
-1.47679e-05
5.82452e-06
-6.77151e-06
-1.3573e-05
7.26875e-06
-6.64108e-06
-9.01115e-06
7.90495e-06
-6.46051e-06
-6.98546e-06
-6.18719e-06
-1.3812e-08
3.10787e-06
-4.03459e-06
-1.9908e-05
5.95722e-06
-3.98069e-06
-1.85047e-05
7.48425e-06
-3.91249e-06
-1.38262e-05
8.10911e-06
-3.81742e-06
-1.15571e-05
-3.67429e-06
-4.29416e-06
3.161e-06
-2.15904e-05
6.07161e-06
-2.00861e-05
7.6003e-06
-1.51956e-05
8.2186e-06
-1.28156e-05
-5.32425e-06
3.90253e-06
-1.25226e-05
-6.04247e-06
7.36906e-06
-1.22926e-05
-4.68766e-06
9.13138e-06
-1.1737e-05
8.64078e-07
9.92861e-06
-1.1368e-05
3.18567e-06
-1.05919e-05
1.16536e-05
4.29773e-06
-1.21726e-05
-1.71549e-05
8.08756e-06
-1.18853e-05
-1.53781e-05
9.97886e-06
-1.12311e-05
-9.26148e-06
1.07024e-05
-1.08052e-05
-6.31035e-06
-9.95848e-06
2.91421e-06
4.55681e-06
-1.03364e-05
-2.14531e-05
8.46199e-06
-1.0078e-05
-1.92855e-05
1.0411e-05
-9.4198e-06
-1.27715e-05
1.10783e-05
-9.04921e-06
-9.40881e-06
-8.33808e-06
4.57394e-07
4.97534e-06
-6.1387e-06
-2.94804e-05
9.12802e-06
-5.99183e-06
-2.67436e-05
1.1065e-05
-5.58845e-06
-1.95946e-05
1.16236e-05
-5.33335e-06
-1.58315e-05
-4.94772e-06
-5.42399e-06
5.1671e-06
-3.27667e-05
9.42953e-06
-2.96756e-05
1.13692e-05
-2.19448e-05
1.18627e-05
-1.78232e-05
-6.9866e-06
6.35226e-06
-1.92854e-05
-7.73518e-06
1.16688e-05
-1.87113e-05
-5.44123e-06
1.42722e-05
-1.79178e-05
2.37522e-06
1.50338e-05
-1.70081e-05
6.14655e-06
-1.59006e-05
1.78828e-05
7.19168e-06
-2.00691e-05
-2.38547e-05
1.28647e-05
-1.90436e-05
-2.07188e-05
1.56476e-05
-1.79406e-05
-1.20217e-05
1.614e-05
-1.67099e-05
-7.10088e-06
-1.5337e-05
5.80335e-06
8.33051e-06
-1.89546e-05
-3.12635e-05
1.44316e-05
-1.71009e-05
-2.73293e-05
1.691e-05
-1.54696e-05
-1.77209e-05
1.70654e-05
-1.40683e-05
-1.22058e-05
-1.29075e-05
1.88314e-06
9.67835e-06
-1.20765e-05
-4.66144e-05
1.58546e-05
-1.11813e-05
-3.88393e-05
1.80535e-05
-9.52462e-06
-2.77385e-05
1.78522e-05
-8.42039e-06
-2.12781e-05
-7.6483e-06
-6.37725e-06
1.05089e-05
-5.51131e-05
1.76247e-05
-4.70068e-05
1.9057e-05
-3.19041e-05
1.84431e-05
-2.45936e-05
-8.88424e-06
9.42346e-06
-2.86193e-05
-8.87127e-06
1.65555e-05
-2.70495e-05
-5.20378e-06
1.95528e-05
-2.50256e-05
5.74554e-06
2.00255e-05
-2.33724e-05
1.11866e-05
-2.09679e-05
2.65067e-05
1.13004e-05
-3.27756e-05
-3.13036e-05
1.97735e-05
-3.00827e-05
-2.61587e-05
2.26367e-05
-2.5881e-05
-1.40295e-05
2.24307e-05
-2.38204e-05
-6.44697e-06
-2.07214e-05
1.0788e-05
1.31258e-05
-2.83786e-05
-4.91881e-05
2.18619e-05
-2.76134e-05
-3.85346e-05
2.48621e-05
-2.34393e-05
-2.31627e-05
2.41747e-05
-2.11325e-05
-1.42063e-05
-1.78466e-05
5.16937e-06
1.42503e-05
-1.64691e-05
-7.33739e-05
2.59228e-05
-1.59583e-05
-6.21667e-05
2.8914e-05
-1.48545e-05
-3.93145e-05
2.61028e-05
-1.27915e-05
-2.6808e-05
-1.08168e-05
-6.30172e-06
1.4759e-05
-8.60737e-05
2.66739e-05
-7.38064e-05
3.15632e-05
-5.03244e-05
2.76342e-05
-3.22043e-05
-1.01711e-05
1.57378e-05
-4.66816e-05
-7.75473e-06
2.61207e-05
-4.20739e-05
-2.04835e-06
2.96207e-05
-3.80539e-05
1.27891e-05
2.86854e-05
-3.44138e-05
2.07393e-05
-2.99797e-05
3.77759e-05
1.84052e-05
-4.81046e-05
-4.86379e-05
3.14961e-05
-4.63239e-05
-3.49996e-05
3.50729e-05
-4.16373e-05
-1.40228e-05
3.3125e-05
-3.66028e-05
-2.31007e-06
-3.12388e-05
2.03108e-05
1.99072e-05
-3.90676e-05
-7.85553e-05
3.49937e-05
-3.73177e-05
-6.26272e-05
4.02365e-05
-3.69271e-05
-3.31156e-05
3.68996e-05
-3.33853e-05
-1.40868e-05
-2.79373e-05
1.21603e-05
2.09005e-05
-2.4141e-05
-0.000109867
3.54871e-05
-2.27189e-05
-9.13519e-05
4.44892e-05
-2.18273e-05
-6.34164e-05
4.08669e-05
-2.03866e-05
-3.61844e-05
-1.76835e-05
-3.26897e-06
2.24164e-05
-0.000132318
3.7297e-05
-0.000110198
4.62933e-05
-7.96407e-05
4.54606e-05
-5.01031e-05
-9.25613e-06
1.79833e-05
-5.73771e-05
-8.91517e-06
3.08903e-05
-5.37703e-05
2.48541e-07
3.62112e-05
-4.92135e-05
2.01052e-05
3.66489e-05
-4.32666e-05
2.97416e-05
-3.78682e-05
5.10386e-05
2.22465e-05
-5.9306e-05
-6.92144e-05
3.88215e-05
-5.55665e-05
-4.97783e-05
4.39771e-05
-5.196e-05
-1.6432e-05
4.20558e-05
-4.54064e-05
1.7509e-06
-3.78948e-05
2.9531e-05
2.45488e-05
-4.95969e-05
-0.000113157
4.10599e-05
-4.60943e-05
-8.86105e-05
5.07511e-05
-4.26426e-05
-5.21241e-05
4.79103e-05
-4.00837e-05
-1.65687e-05
-3.28016e-05
1.93532e-05
2.72051e-05
-3.13301e-05
-0.000155961
4.43797e-05
-2.89073e-05
-0.000125713
5.40108e-05
-2.62102e-05
-8.948e-05
5.24088e-05
-2.37337e-05
-5.09324e-05
-1.99298e-05
-1.30568e-06
2.96038e-05
-0.000192925
4.78846e-05
-0.00015618
5.77205e-05
-0.000114138
5.6033e-05
-7.05427e-05
-1.07131e-05
2.75233e-05
-8.51576e-05
-1.11082e-05
4.52434e-05
-7.81218e-05
4.82222e-06
5.62345e-05
-7.22011e-05
2.77647e-05
5.67272e-05
-6.28993e-05
4.39591e-05
-5.87221e-05
7.57162e-05
3.32843e-05
-9.39801e-05
-9.40543e-05
5.40353e-05
-8.47601e-05
-6.38911e-05
6.56505e-05
-7.74707e-05
-2.27775e-05
6.09011e-05
-6.78228e-05
1.14239e-05
-5.84324e-05
4.34085e-05
4.04768e-05
-8.22316e-05
-0.000165852
6.3724e-05
-7.28173e-05
-0.000123801
7.52919e-05
-6.61694e-05
-7.49934e-05
7.0277e-05
-5.6488e-05
-2.28886e-05
-4.80078e-05
2.7118e-05
4.55761e-05
-5.53541e-05
-0.000229303
7.03822e-05
-4.80723e-05
-0.000175264
8.25063e-05
-4.30055e-05
-0.000124768
7.59892e-05
-3.59131e-05
-6.49902e-05
-3.0745e-05
3.14526e-06
5.28621e-05
-0.000300608
7.97529e-05
-0.000229427
9.15995e-05
-0.000166783
8.25764e-05
-9.51025e-05
-1.40543e-05
3.87219e-05
-0.000115836
-1.54614e-05
6.27283e-05
-0.000104355
1.05492e-05
7.47338e-05
-9.65937e-05
4.13422e-05
7.3411e-05
-8.42678e-05
6.65097e-05
-7.51921e-05
0.000108968
4.78723e-05
-0.00013543
-0.000122584
7.44071e-05
-0.000119174
-7.56062e-05
8.72695e-05
-0.000106549
-2.5685e-05
8.24251e-05
-8.93015e-05
2.1302e-05
-7.67004e-05
6.57282e-05
5.97509e-05
-0.000123522
-0.000237855
9.14107e-05
-0.000106156
-0.000168479
0.000104609
-9.36628e-05
-0.000101077
9.48987e-05
-7.67657e-05
-2.57142e-05
-6.49252e-05
4.05568e-05
7.02115e-05
-8.51955e-05
-0.000338626
0.000103762
-7.25774e-05
-0.000242393
0.000117094
-6.21412e-05
-0.000169622
0.000102554
-5.03038e-05
-7.6912e-05
-4.12666e-05
8.91461e-06
8.28374e-05
-0.000468095
0.000121291
-0.00033888
0.000133477
-0.000238825
0.00011433
-0.000123863
-1.83746e-05
6.20671e-05
-0.000190784
-9.98561e-06
0.000100907
-0.000163819
2.63296e-05
0.000116667
-0.000150717
7.23152e-05
0.000108486
-0.000125415
0.000111332
-0.000111277
0.000165177
8.028e-05
-0.000240392
-0.000153687
0.000120548
-0.000200567
-7.91259e-05
0.00013762
-0.000176248
-1.72252e-05
0.00012266
-0.000140702
5.15493e-05
-0.000119852
0.000110444
0.000110542
-0.000239399
-0.000349938
0.000159252
-0.000190415
-0.000227341
0.000173079
-0.000162831
-0.00012832
0.000147825
-0.000124079
-1.70841e-05
-0.000104667
7.15499e-05
0.000134653
-0.000185953
-0.000528022
0.00018689
-0.000138534
-0.000346512
0.000197374
-0.00011431
-0.000228627
0.000160721
-8.3975e-05
-8.03624e-05
-6.58016e-05
2.39999e-05
0.000182329
-0.000835351
0.000235913
-0.00052824
0.000237168
-0.00035093
0.000187643
-0.000154821
-1.32012e-05
8.77613e-05
-0.000274239
8.84074e-06
0.000134355
-0.000226271
6.42807e-05
0.000151216
-0.000204165
0.000124597
0.000136469
-0.000160592
0.000176612
-0.000138707
0.00023731
0.000118731
-0.000369935
-0.000176879
0.000167764
-0.000290798
-6.36318e-05
0.000186575
-0.000248167
7.9663e-06
0.00015818
-0.000189094
0.000108446
-0.000153726
0.000175702
0.000175386
-0.000393887
-0.000501608
0.000236676
-0.000293324
-0.000286106
0.000245773
-0.000239453
-0.000146131
0.000202061
-0.000170865
8.39885e-06
-0.00013723
0.000123919
0.000230886
-0.000329743
-0.000823905
0.000290252
-0.000233395
-0.000465806
0.000288009
-0.000178363
-0.000287474
0.000223442
-0.000121794
-6.48659e-05
-9.08693e-05
6.18251e-05
0.00032729
-0.00149159
0.000391089
-0.000824075
0.000367439
-0.000502453
0.000272195
-0.000178287
6.13575e-06
0.00014172
-0.000470446
7.97021e-05
0.000204794
-0.000365313
0.000157865
0.000221444
-0.000316166
0.000230029
0.000191385
-0.000233402
0.000289894
-0.000195446
0.000351791
0.000200416
-0.000685631
-0.000162639
0.000272908
-0.000500746
-6.90692e-07
0.000285405
-0.000413367
9.26703e-05
0.000229469
-0.000289601
0.000220581
-0.000225725
0.000288687
0.000336752
-0.000830027
-0.000694656
0.000419058
-0.000549434
-0.000319723
0.000408896
-0.000424337
-0.000124999
0.000312122
-0.000277757
9.33289e-05
-0.00020961
0.000229464
0.000475436
-0.000785223
-0.0013462
0.000544346
-0.000481557
-0.000602592
0.000496526
-0.000342203
-0.000321789
0.000361355
-0.000205615
-1.83721e-06
-0.000145982
0.000154615
0.000780101
-0.00305491
0.000825251
-0.00134506
0.000681651
-0.000695321
0.000466125
-0.000162911
7.78099e-05
0.000188058
-0.000672121
0.000228127
0.000255955
-0.000472056
0.000317387
0.000269212
-0.000404804
0.000386019
0.000227944
-0.000274893
0.000436846
-0.000230778
0.0004898
0.000302601
-0.00107365
-6.34021e-05
0.00035526
-0.000708721
0.000183315
0.000354674
-0.000569735
0.000258187
0.00027169
-0.000357449
0.000386122
-0.000272115
0.000435634
0.000541104
-0.00145467
-0.00085452
0.000616764
-0.000854815
-0.000249288
0.000567222
-0.00061936
-2.58319e-05
0.000402447
-0.000358372
0.000259026
-0.00025908
0.000385805
0.000861046
-0.00156579
-0.00209665
0.000851601
-0.000861264
-0.000586698
0.000705891
-0.000543807
-0.000251632
0.000467846
-0.000304624
0.000182461
-0.000190882
0.000313919
0.00156531
-0.00151657
-0.00159606
-0.0015573
-0.00151631
0.00145198
-0.00209774
0.00107085
-0.000854135
0.00066928
-6.35098e-05
0.000227884
0.000254409
-0.00105084
0.000525127
0.000339731
-0.000696942
0.000583018
0.000342068
-0.000561206
0.000627176
0.000280716
-0.000360478
0.000644359
-0.000286173
0.000666102
0.000442493
-0.00188717
0.000329853
0.000518479
-0.00113475
0.000545139
0.000482791
-0.000824875
0.000557544
0.000355299
-0.00048811
0.000641246
-0.000348003
0.000643222
0.000923423
-0.00321509
-0.000450966
0.00101759
-0.00159436
0.000116148
0.000818856
-0.00102471
0.000372738
0.000555662
-0.000524746
0.000558857
-0.000346453
0.000627418
0.00172155
-0.000832959
-0.000584582
-0.000579704
-0.00118575
-0.000928894
-0.000912252
-0.00100798
-0.00100523
0.00158763
-0.00173072
-0.000316409
0.00113042
-0.00093197
0.000112835
0.000691561
-0.000449466
0.000546042
-0.000260994
0.000579923
0.0006462
-0.000640308
-0.00235744
0.0032087
-0.000926513
-0.000580537
-0.00118232
-0.000579544
-0.000909867
-0.0008305
-0.00100273
-0.00100521
0.00188244
-0.000449783
0.00104557
0.000332333
0.000526066
0.000309232
-0.00139553
0.00105577
0.000375015
-0.000781531
0.000972304
0.000360122
-0.000624894
0.000942542
0.000288473
-0.000354524
0.00087276
-0.000291368
0.000845426
0.000570508
-0.00277627
0.00114096
0.000575062
-0.00131772
0.00107678
0.000495163
-0.000986855
0.000999404
0.000350869
-0.000497764
0.00092878
-0.000363335
0.000872398
0.00146386
-0.00146626
0.00151403
-0.00138043
-0.00182961
-0.00152861
0.0013799
-0.00239907
0.00128145
0.000984457
-0.00138039
0.00116172
0.00062288
-0.00057749
0.00100016
-0.000377935
0.000943241
0.000580278
-0.0022702
-0.000361376
0.00239404
-0.000893953
0.000518547
0.000349195
0.000562988
0.000521536
-0.000757618
-0.00089368
-0.0006394
-0.00123953
-0.000758292
-0.00124314
-0.000636168
0.00131422
-0.00146613
0.0012784
0.000775374
-0.000570214
0.00107761
-0.000312926
0.000970611
0.00191325
0.00323806
-0.00150265
-0.00106999
-0.000969423
-0.0017517
0.00315123
-0.000829035
-0.00067707
-0.000734887
-0.000771912
-0.00210802
0.00181734
-0.000832467
-0.00069732
0.00277498
0.00151347
-0.00137816
-0.00146545
-0.00152683
-0.00182783
0.00139242
0.00114083
0.0010583
0.000279672
-0.00139962
0.00156143
0.000360665
-0.000830358
0.00136893
0.000342841
-0.000637507
0.00123793
0.000279149
-0.000364589
0.00109536
-0.000285284
0.000998408
0.000564818
-0.00270418
0.00188087
0.000578696
-0.00137186
0.0016044
0.000504528
-0.00100425
0.00144032
0.000358962
-0.000509377
0.00121913
-0.000350041
0.00109598
0.00133995
-0.00204722
0.00344384
-0.00161773
-0.00128283
-0.00102765
0.00137524
-0.000897685
0.00246285
-0.000673053
-0.000563818
-0.000453992
0.000996366
-0.00138483
0.00192117
0.000631185
-0.000583938
0.0014399
-0.000368752
0.00123938
0.000735511
0.00121443
-0.000224129
-0.000883258
-0.00100664
-0.000974835
-0.000907254
-0.000895634
0.000809844
-0.00114727
0.000853925
0.00136577
-0.00135692
0.00246534
-0.000670617
-0.000895145
-0.000454594
-0.000560274
0.000823133
-0.000567636
0.00160394
-0.00028857
0.00137005
0.00158066
0.00197461
0.000537743
-0.000836825
-0.00325605
-0.000887747
0.00044214
-0.000141806
-0.000513443
0.000327472
0.000773384
0.00269376
0.00345022
-0.001612
-0.00204669
-0.00102699
-0.0012824
0.00139443
0.00188108
0.00156681
0.000120027
-0.000512706
0.00161101
0.000164564
-0.000277364
0.00142796
0.000179005
-0.000286401
0.00131683
0.000170611
-0.000177436
0.00116139
-0.000172606
0.0010495
0.00027766
-0.00085228
0.00194397
0.000250036
-0.000324422
0.00167909
0.000218558
-0.000350226
0.00153562
0.000174223
-0.000220717
0.00130675
-0.000181109
0.00116294
0.00039805
-0.000807541
0.00315523
-0.000460742
0.000179069
0.000128012
0.000397501
-0.000224857
0.00236383
0.000350122
-0.000396184
0.00201451
0.00028599
-0.000252038
0.00153536
-0.000165501
0.00131851
0.000135636
0.000768186
-0.00144847
4.75901e-05
-0.000206912
-0.00020127
9.67806e-05
0.000221159
0.000133124
0.00271864
-0.000213179
0.00013581
-0.000148015
0.000595351
-0.00019639
0.000590823
-0.000145085
-0.000881697
-0.00078036
-0.00137289
-0.000882145
0.000320184
-0.000397573
0.00236771
0.000271461
-0.000278208
0.00167884
-0.000123676
0.00143282
-8.27264e-05
0.00469801
-0.000145408
-8.40812e-06
-0.00446247
1.01275e-07
8.68809e-05
0.000673746
0.000283864
0.00016123
0.000393255
-0.000451678
8.52982e-05
0.000162916
-3.59258e-05
-3.06155e-05
-0.000282891
-0.000462301
-0.000450757
0.000853066
0.00316642
-0.000464703
-0.000815126
0.000133222
0.00017444
0.000513235
0.00194293
0.00161533
-4.19875e-05
-0.000162155
0.00144947
2.56428e-05
-0.000128688
0.00135569
5.85228e-05
-0.000133716
0.00125102
9.36397e-05
-0.000106494
0.00114841
-9.83767e-05
0.00101898
0.000197271
-0.000369936
0.00195489
0.000148232
-7.2224e-05
0.00167166
0.000105726
-5.76172e-05
0.00150203
0.000101385
-0.000111386
0.00131598
-6.41376e-05
0.00114998
-0.000250339
0.000349414
0.00219409
0.000271107
-1.38409e-06
0.000222326
-7.67803e-05
0.000110163
0.00200789
5.1457e-05
7.33923e-05
0.00175526
0.000129144
-0.000155892
0.00150218
-3.15488e-05
0.00125202
0.000283595
-0.000109373
0.000865595
-0.000694545
-0.000110836
0.000267073
0.000508641
0.000513904
0.000354761
0.000506566
7.0148e-05
0.000258613
0.000215923
-2.8608e-05
7.51465e-05
-2.43738e-05
0.00022184
6.98225e-05
0.000254018
0.00200643
0.000123889
-0.000203465
0.00167234
3.57071e-05
0.0013604
-0.00128403
0.00051647
0.00333506
0.00306126
0.00400517
0.00362696
-0.000909802
-0.00313855
-0.00304385
-0.00301173
-0.00317075
0.00146657
0.000366402
-0.000764738
0.000309948
-0.00111111
0.000366019
0.00219122
0.00028672
0.000353098
0.000230008
4.93023e-06
0.000156696
0.00195627
0.00144988
-4.53522e-05
8.7341e-05
0.00139049
-4.2517e-05
0.000126244
0.00127897
-3.02007e-05
5.1566e-05
0.00116366
1.76754e-05
4.5869e-05
0.00106261
-1.83437e-05
0.000949483
-2.21195e-05
0.000123964
0.00194233
-7.57701e-05
0.000184386
0.00166717
-8.00896e-05
0.000118942
0.00143897
-4.79313e-05
8.00332e-05
0.00124966
2.84428e-05
0.00106492
-8.03913e-05
-0.000279018
0.00258179
-1.09541e-05
-9.83406e-06
0.000117424
-0.000123273
-0.000135547
0.0021699
8.10236e-05
-4.41654e-05
0.000163946
-0.000122192
0.000119013
0.00175411
-5.10714e-05
7.33038e-05
0.00143779
4.15381e-05
0.00116458
3.31572e-05
-0.000208151
0.00075949
-0.000224038
-0.000214857
-0.000205701
-0.000219413
9.15997e-05
-7.86455e-05
-0.000227455
0.000587596
-0.000184483
7.66062e-05
0.00217544
7.94727e-05
-0.000136792
0.000161097
-4.59016e-05
-0.000126569
1.84756e-05
0.00166926
4.48315e-05
0.00128574
0.00273489
0.000494296
0.000201235
-0.000635372
-0.00278431
-0.000101716
0.000279668
-0.000328038
-0.000173523
-0.000523936
0.000381582
0.00115898
-0.000214411
-0.000151502
-0.000173891
-8.2188e-05
-1.95674e-05
-4.09296e-05
-2.10967e-06
-8.41485e-06
-0.000121236
0.00257577
-2.24316e-06
-0.000280027
0.000110805
-1.45548e-06
-8.07838e-05
0.00194605
0.00139227
-0.000149684
0.000511514
0.00118979
-0.000145621
0.000370574
0.00110072
-0.000133984
0.000232953
0.000995434
-6.71878e-05
0.000152355
0.000924375
6.33602e-05
0.000811445
-0.000188213
0.00103554
0.00160722
-0.000258749
0.000695417
0.00141286
-0.000237429
0.000417196
0.00123341
-0.00015509
0.000234677
0.001085
0.000130676
0.000926863
-0.000598476
0.000141881
0.00219145
0.000304002
0.000802216
0.000779787
-0.000557785
4.82425e-05
0.00181877
0.000173787
0.000394361
0.000389461
-0.000420579
0.000558723
0.00147537
-0.000236131
0.000256431
0.00123158
0.000142358
0.000996228
-5.97003e-05
0.00079402
-0.000473959
-0.000131852
-0.000107417
6.08122e-05
5.92053e-05
0.000140251
-0.000185784
0.000111927
0.00072125
-0.000739401
-0.00069913
0.000610332
0.00182338
0.000172006
4.60457e-05
0.00038873
0.0003928
-0.000373679
0.000187679
0.00141256
0.000147875
0.00110625
0.00442971
0.000111122
-7.6275e-05
-2.84918e-05
-0.00443634
-9.10375e-06
-3.35808e-05
-0.000242329
-4.4506e-05
1.03653e-05
0.000319154
-0.00104607
0.0021679
0.000335515
0.000151224
0.000763473
0.00079411
-0.000519862
0.00160218
0.00118832
-0.00023026
0.00113461
0.000800232
-0.000259732
0.000807702
0.000789892
-0.000231576
0.000490468
0.000731745
-0.000137086
0.000312165
0.000712514
0.000138523
0.000637128
-0.000396368
0.00226981
0.000870797
-0.000523641
0.00150404
0.000843799
-0.000465344
0.000833121
0.000832458
-0.000311541
0.000465116
0.000778244
0.000233465
0.000714712
-0.00110843
0.00466016
0.000915939
-0.00111853
0.00233703
0.000995869
-0.000831163
0.00111659
0.000904547
-0.000488179
0.000522273
0.000831443
0.000260961
0.000733578
-0.00300402
0.00293348
-0.0024885
0.00245764
0.00278811
0.00206021
-0.000362525
-6.13313e-05
0.000759011
-0.000406956
-0.00234095
0.00292302
0.000812018
-0.000441451
-0.000406223
-0.000773294
-0.000440101
-0.00150259
0.0010998
0.00100181
-0.000805163
0.000392516
0.000844884
0.000231244
0.000795363
0.00297477
-0.00222729
0.00229856
-0.010565
0.00239732
0.00428678
0.00375567
-0.00459925
-0.00244034
0.00224204
0.00294738
0.00208871