/*--------------------------------*- C++ -*----------------------------------*\
| =========                 |                                                 |
| \\      /  F ield         | OpenFOAM: The Open Source CFD Toolbox           |
|  \\    /   O peration     | Version:  5.x                                   |
|   \\  /    A nd           | Web:      www.OpenFOAM.org                      |
|    \\/     M anipulation  |                                                 |
\*---------------------------------------------------------------------------*/
FoamFile
{
    version     2.0;
    format      ascii;
    class       volScalarField;
    location    "0.09";
    object      Ksl;
}
// * * * * * * * * * * * * * * * * * * * * * * * * * * * * * * * * * * * * * //

dimensions      [1 -3 -1 0 0 0 0];

internalField   nonuniform List<scalar> 
320
(
0
0
0
0
8.24479e-05
0.000712294
0.000414541
3.23422e-05
0.00125794
0.0193696
0.00848409
0.000564384
0.0232137
0.395755
0.187414
0.0119286
0.348079
3.02215
1.31217
0.175518
1.79311
3.13431
1.51005
0.878925
0.0825287
1.10014
0.598578
0.0424936
0.0019233
0.0343053
0.0182574
0.000955448
4.04502e-05
0.000623694
0.000338705
2.21915e-05
8.95872e-07
1.10137e-05
6.28038e-06
5.60402e-07
-7.17781e-22
-1.07181e-20
-6.02822e-21
0
0
0
0
0
0
0
0
0
0
0
0
0
0
0
0
0
0
0
0
0
0
0
0
0
0
0
0
0
0
0
0
0
0
0
0
0
0
0.000110689
0.000141284
0
0.000712294
0.00379787
0.00343138
0.000847968
0.0193696
0.129928
0.112377
0.0188567
0.395755
12.3968
1.8851
0.359498
3.02215
3.28876
1.55533
1.42853
3.13431
3.19701
1.51232
1.4847
1.10014
4.77893
1.782
0.577145
0.0343053
0.178457
0.226434
0.014791
0.000623694
0.00249635
0.00281623
0.000297062
1.10137e-05
5.286e-05
3.94488e-05
7.19021e-06
-1.07181e-20
1.8861e-06
1.24598e-06
-1.13641e-20
0
-3.41728e-21
-2.43624e-21
0
0
0
0
0
0
0
0
0
0
0
0
0
0
0
0
0
0
0
0
0
0
0
0
0
0
0
0
0
0
0
0
0
0
0.000141284
0.000149881
0
0.000414541
0.00343138
0.00323873
0.000261706
0.00848409
0.112377
0.0921739
0.00562958
0.187414
1.8851
1.03661
0.145846
1.31217
1.55533
1.03315
0.849971
1.51005
1.51232
1.01101
1.00104
0.598578
1.782
1.12011
0.407861
0.0182574
0.226434
0.265839
0.0117687
0.000338705
0.00281623
0.00315556
0.000220002
6.28038e-06
3.94488e-05
2.43608e-05
5.00176e-06
-6.02822e-21
1.24598e-06
1.14645e-06
-6.38479e-21
0
-2.43624e-21
-1.61395e-21
0
0
0
0
0
0
0
0
0
0
0
0
0
0
0
0
0
0
0
0
0
0
0
0
0
0
0
0
0
0
0
0
0
0
0
0
0
3.23422e-05
0.000847968
0.000261706
0
0.000564384
0.0188567
0.00562958
0.000309461
0.0119286
0.359498
0.145846
0.00782206
0.175518
1.42853
0.849971
0.11616
0.878925
1.4847
1.00104
0.594899
0.0424936
0.577145
0.407861
0.0294867
0.000955448
0.014791
0.0117687
0.000663632
2.21915e-05
0.000297062
0.000220002
1.53658e-05
5.60402e-07
7.19021e-06
5.00176e-06
3.92577e-07
0
-1.13641e-20
-6.38479e-21
0
0
0
0
0
0
0
0
0
0
0
0
0
0
0
0
0
0
0
0
0
0
0
0
0
0
0
0
0
0
0
0
0
0
0
0
0
)
;

boundaryField
{
    inlet
    {
        type            zeroGradient;
    }
    outlet
    {
        type            zeroGradient;
    }
    walls
    {
        type            zeroGradient;
    }
}


// ************************************************************************* //
