/*--------------------------------*- C++ -*----------------------------------*\
| =========                 |                                                 |
| \\      /  F ield         | OpenFOAM: The Open Source CFD Toolbox           |
|  \\    /   O peration     | Version:  5.x                                   |
|   \\  /    A nd           | Web:      www.OpenFOAM.org                      |
|    \\/     M anipulation  |                                                 |
\*---------------------------------------------------------------------------*/
FoamFile
{
    version     2.0;
    format      ascii;
    class       volScalarField;
    location    "0.09";
    object      p;
}
// * * * * * * * * * * * * * * * * * * * * * * * * * * * * * * * * * * * * * //

dimensions      [0 2 -2 0 0 0 0];

internalField   nonuniform List<scalar> 
320
(
6.30686e-09
4.73606e-08
5.57824e-10
-3.24182e-08
-3.97081e-08
1.27708e-07
-4.39924e-08
-1.70887e-07
-1.88869e-07
2.63016e-07
-1.13342e-07
-4.54367e-07
-8.28383e-07
8.12386e-07
-4.00067e-07
-1.30106e-06
-3.51139e-06
-1.68577e-06
-2.72199e-06
-3.78158e-06
-7.99224e-06
-5.20701e-06
-7.12278e-06
-7.511e-06
-1.40207e-05
-1.58265e-05
-1.46096e-05
-1.2812e-05
-1.59924e-05
-1.92853e-05
-1.64675e-05
-1.57122e-05
-1.67851e-05
-1.82001e-05
-1.68708e-05
-1.68153e-05
-1.74657e-05
-1.82558e-05
-1.76032e-05
-1.75242e-05
-1.78974e-05
-1.83836e-05
-1.80599e-05
-1.79303e-05
-1.80766e-05
-1.83581e-05
-1.81338e-05
-1.80848e-05
-1.82813e-05
-1.84068e-05
-1.8321e-05
-1.82921e-05
-1.82058e-05
-1.82666e-05
-1.82144e-05
-1.82051e-05
-1.83693e-05
-1.8399e-05
-1.83788e-05
-1.83728e-05
-1.82461e-05
-1.82601e-05
-1.82439e-05
-1.82445e-05
-1.83744e-05
-1.83813e-05
-1.83777e-05
-1.83743e-05
-1.82742e-05
-1.82768e-05
-1.82724e-05
-1.82742e-05
-1.8349e-05
-1.83508e-05
-1.83504e-05
-1.83488e-05
-1.83073e-05
-1.83098e-05
-1.83085e-05
-1.83074e-05
4.73606e-08
1.11412e-07
4.51939e-08
4.92471e-09
1.27708e-07
4.0769e-07
1.54817e-07
-2.98872e-08
2.63016e-07
1.26585e-06
5.24235e-07
-9.08489e-08
8.12386e-07
4.29106e-06
1.98545e-06
-9.27061e-08
-1.68577e-06
8.437e-06
2.76758e-06
-2.44607e-06
-5.20701e-06
6.22868e-06
-1.80049e-06
-4.92537e-06
-1.58265e-05
-2.58437e-05
-2.04813e-05
-1.36035e-05
-1.92853e-05
-3.0163e-05
-2.27008e-05
-1.85424e-05
-1.82001e-05
-2.10247e-05
-1.82451e-05
-1.82269e-05
-1.82558e-05
-1.95874e-05
-1.82902e-05
-1.82488e-05
-1.83836e-05
-1.89741e-05
-1.84042e-05
-1.83596e-05
-1.83581e-05
-1.87442e-05
-1.83811e-05
-1.83514e-05
-1.84068e-05
-1.85591e-05
-1.84231e-05
-1.8406e-05
-1.82666e-05
-1.83516e-05
-1.82676e-05
-1.82664e-05
-1.8399e-05
-1.8435e-05
-1.84061e-05
-1.84016e-05
-1.82601e-05
-1.82764e-05
-1.8256e-05
-1.82553e-05
-1.83813e-05
-1.8387e-05
-1.8382e-05
-1.83821e-05
-1.82768e-05
-1.82817e-05
-1.82765e-05
-1.82756e-05
-1.83508e-05
-1.83514e-05
-1.83512e-05
-1.8351e-05
-1.83098e-05
-1.83131e-05
-1.83112e-05
-1.83097e-05
5.57824e-10
4.51939e-08
3.23195e-10
-3.64562e-08
-4.39924e-08
1.54817e-07
-1.3683e-08
-1.69549e-07
-1.13342e-07
5.24235e-07
-3.56296e-10
-3.93141e-07
-4.00067e-07
1.98545e-06
8.64496e-07
-9.20818e-07
-2.72199e-06
2.76758e-06
2.92361e-07
-3.14958e-06
-7.12278e-06
-1.80049e-06
-4.31627e-06
-6.60982e-06
-1.46096e-05
-2.04813e-05
-1.83134e-05
-1.33129e-05
-1.64675e-05
-2.27008e-05
-2.03206e-05
-1.63361e-05
-1.68708e-05
-1.82451e-05
-1.69967e-05
-1.69696e-05
-1.76032e-05
-1.82902e-05
-1.76483e-05
-1.7633e-05
-1.80599e-05
-1.84042e-05
-1.80842e-05
-1.8059e-05
-1.81338e-05
-1.83811e-05
-1.81532e-05
-1.81262e-05
-1.8321e-05
-1.84231e-05
-1.83606e-05
-1.83213e-05
-1.82144e-05
-1.82676e-05
-1.82106e-05
-1.82096e-05
-1.83788e-05
-1.84061e-05
-1.83921e-05
-1.83791e-05
-1.82439e-05
-1.8256e-05
-1.82411e-05
-1.8244e-05
-1.83777e-05
-1.8382e-05
-1.83793e-05
-1.83747e-05
-1.82724e-05
-1.82765e-05
-1.82716e-05
-1.82731e-05
-1.83504e-05
-1.83512e-05
-1.83511e-05
-1.83498e-05
-1.83085e-05
-1.83112e-05
-1.83102e-05
-1.83087e-05
-3.24182e-08
4.92471e-09
-3.64562e-08
-6.41766e-08
-1.70887e-07
-2.98872e-08
-1.69549e-07
-2.76705e-07
-4.54367e-07
-9.08489e-08
-3.93141e-07
-6.58453e-07
-1.30106e-06
-9.27061e-08
-9.20818e-07
-1.61208e-06
-3.78158e-06
-2.44607e-06
-3.14958e-06
-3.92074e-06
-7.511e-06
-4.92537e-06
-6.60982e-06
-7.28718e-06
-1.2812e-05
-1.36035e-05
-1.33129e-05
-1.21854e-05
-1.57122e-05
-1.85424e-05
-1.63361e-05
-1.5468e-05
-1.68153e-05
-1.82269e-05
-1.69696e-05
-1.67486e-05
-1.75242e-05
-1.82488e-05
-1.7633e-05
-1.75142e-05
-1.79303e-05
-1.83596e-05
-1.8059e-05
-1.79248e-05
-1.80848e-05
-1.83514e-05
-1.81262e-05
-1.80705e-05
-1.82921e-05
-1.8406e-05
-1.83213e-05
-1.82896e-05
-1.82051e-05
-1.82664e-05
-1.82096e-05
-1.81995e-05
-1.83728e-05
-1.84016e-05
-1.83791e-05
-1.83721e-05
-1.82445e-05
-1.82553e-05
-1.8244e-05
-1.82426e-05
-1.83743e-05
-1.83821e-05
-1.83747e-05
-1.83727e-05
-1.82742e-05
-1.82756e-05
-1.82731e-05
-1.82738e-05
-1.83488e-05
-1.8351e-05
-1.83498e-05
-1.83481e-05
-1.83074e-05
-1.83097e-05
-1.83087e-05
-1.83075e-05
)
;

boundaryField
{
    inlet
    {
        type            zeroGradient;
    }
    outlet
    {
        type            totalPressure;
        rho             rho;
        psi             none;
        gamma           1;
        p0              uniform 0;
        value           nonuniform List<scalar> 
16
(
-4.68598e-14
0
-7.74315e-14
-2.19492e-13
0
0
0
-7.84651e-15
-7.74315e-14
0
-9.76912e-14
-2.61727e-13
-2.19492e-13
-7.84651e-15
-2.61727e-13
-4.91971e-13
)
;
    }
    walls
    {
        type            zeroGradient;
    }
}


// ************************************************************************* //
