/*--------------------------------*- C++ -*----------------------------------*\
| =========                 |                                                 |
| \\      /  F ield         | OpenFOAM: The Open Source CFD Toolbox           |
|  \\    /   O peration     | Version:  5.x                                   |
|   \\  /    A nd           | Web:      www.OpenFOAM.org                      |
|    \\/     M anipulation  |                                                 |
\*---------------------------------------------------------------------------*/
FoamFile
{
    version     2.0;
    format      ascii;
    class       surfaceScalarField;
    location    "0.09";
    object      phi;
}
// * * * * * * * * * * * * * * * * * * * * * * * * * * * * * * * * * * * * * //

dimensions      [0 3 -1 0 0 0 0];

internalField   nonuniform List<scalar> 
784
(
-6.59247e-13
2.56346e-12
-6.59247e-13
1.11886e-12
-4.25545e-12
-1.08323e-12
1.27023e-12
2.01988e-12
-8.45692e-13
5.7378e-12
-7.25801e-13
-2.61094e-12
7.78533e-12
-2.61094e-12
3.92041e-12
-6.24491e-12
-4.54188e-12
3.89209e-12
5.43047e-12
-3.38229e-12
1.18321e-11
-2.20222e-12
-7.66675e-12
2.31188e-11
-7.66675e-12
8.79352e-12
-7.86941e-12
-1.48358e-11
1.03313e-11
1.46338e-11
-1.07411e-11
2.90695e-11
-6.90604e-12
-2.0608e-11
6.43349e-11
-2.0608e-11
1.96936e-11
-2.16325e-12
-4.60078e-11
2.1727e-11
4.51593e-11
-3.25589e-11
6.8004e-11
-1.72076e-11
-3.71354e-11
1.38606e-10
-3.71354e-11
2.7544e-11
5.47689e-11
-1.21612e-10
4.1789e-11
1.03845e-10
-7.29307e-11
1.43552e-10
-3.37588e-11
-1.02859e-10
3.44323e-10
-1.02859e-10
6.55678e-11
3.24113e-10
-4.37772e-10
1.01119e-10
3.35138e-10
-2.66845e-10
3.32967e-10
-8.82963e-11
-8.75713e-11
5.19466e-10
-8.75713e-11
4.6767e-11
5.32034e-10
-3.42259e-10
9.4551e-11
5.07588e-10
-2.20234e-10
5.078e-10
-8.02818e-11
-5.00037e-12
5.29466e-10
-5.00037e-12
-7.76529e-13
4.58935e-10
6.88752e-11
1.2406e-11
4.86116e-10
8.28903e-12
5.26305e-10
-6.09898e-12
4.03782e-11
4.4871e-10
4.03782e-11
-5.97655e-11
3.44365e-10
2.14714e-10
-4.17559e-11
4.25765e-10
4.23421e-11
4.56644e-10
2.79058e-11
8.99133e-11
2.68883e-10
8.99133e-11
-6.23459e-11
1.6884e-10
3.27783e-10
-9.73662e-11
2.5255e-10
2.08235e-10
2.79181e-10
8.00959e-11
7.94019e-11
1.10079e-10
7.94019e-11
-2.67191e-11
3.37332e-11
2.41228e-10
-8.42453e-11
7.82403e-11
2.31836e-10
1.16601e-10
7.83348e-11
2.60496e-11
5.79802e-11
2.60496e-11
-1.75263e-11
9.59813e-12
6.7711e-11
-2.94382e-11
3.32553e-11
5.68968e-11
6.28794e-11
2.42837e-11
1.91656e-11
1.9649e-11
1.91656e-11
-7.74211e-12
2.64798e-13
3.6241e-11
-2.15065e-11
1.10596e-11
3.59601e-11
2.25389e-11
1.8834e-11
4.46835e-12
1.07123e-11
4.46835e-12
-3.99775e-12
-1.7688e-12
1.04997e-11
-5.77354e-12
4.04144e-12
8.79392e-12
1.26278e-11
4.13763e-12
3.84262e-12
3.02705e-12
3.84262e-12
-2.04983e-12
-6.85018e-13
4.80868e-12
-4.82895e-12
1.68195e-12
5.13862e-12
3.96008e-12
3.83875e-12
6.21683e-13
1.78369e-12
6.21683e-13
-9.51076e-13
-8.24044e-13
1.7118e-12
-9.57006e-13
2.73951e-13
1.41395e-12
2.50989e-12
4.93187e-13
6.95279e-13
3.93142e-13
6.95279e-13
-4.72814e-13
-2.38209e-13
5.82273e-13
-1.13259e-12
2.76602e-13
6.57128e-13
6.38986e-13
7.38305e-13
9.66501e-14
1.99851e-13
9.66501e-14
-2.21804e-13
-2.17827e-13
2.98065e-13
-1.5591e-13
-1.27338e-15
2.11969e-13
4.47488e-13
3.55818e-14
1.07496e-13
-1.51474e-14
1.07496e-13
-1.31404e-13
-6.01813e-14
8.12387e-14
-2.67629e-13
2.40871e-14
1.10859e-13
4.13562e-14
1.38505e-13
-7.57748e-15
-7.57748e-15
-7.83667e-14
1.0606e-14
-5.09071e-14
-3.37007e-15
-9.54708e-15
-1.08323e-12
-4.25545e-12
1.11886e-12
1.38976e-12
-1.57068e-11
1.38976e-12
1.42625e-12
-6.2203e-12
1.1077e-12
-2.41222e-13
1.12885e-12
-4.54188e-12
-6.24491e-12
3.92041e-12
5.6982e-12
-3.6187e-11
5.6982e-12
6.49448e-12
-1.44993e-11
4.10038e-12
9.02036e-13
3.14906e-12
-1.48358e-11
-7.86941e-12
8.79352e-12
1.4245e-11
-9.43485e-11
1.4245e-11
1.72568e-11
-3.78795e-11
9.62736e-12
3.79529e-12
7.45757e-12
-4.60078e-11
-2.16325e-12
1.96936e-11
3.63743e-11
-2.59113e-10
3.63743e-11
4.88293e-11
-1.03027e-10
2.01341e-11
2.03777e-11
1.50394e-11
-1.21612e-10
5.47689e-11
2.7544e-11
7.8295e-11
-6.58926e-10
7.8295e-11
1.10587e-10
-2.48229e-10
3.99782e-11
7.3451e-11
2.37552e-11
-4.37772e-10
3.24113e-10
6.55678e-11
2.37772e-10
-2.01001e-09
2.37772e-10
4.11912e-10
-7.87532e-10
9.83174e-11
3.46842e-10
5.02249e-11
-3.42259e-10
5.32034e-10
4.6767e-11
1.81239e-10
-3.05701e-09
1.81239e-10
3.64872e-10
-1.25997e-09
6.85726e-11
5.94217e-10
3.72158e-11
6.88752e-11
4.58935e-10
-7.76529e-13
-1.92735e-11
-2.88071e-09
-1.92735e-11
-2.36698e-11
-1.2424e-09
-4.88146e-12
5.64591e-10
-1.4223e-13
2.14714e-10
3.44365e-10
-5.97655e-11
-1.87512e-10
-2.07626e-09
-1.87512e-10
-2.13409e-10
-1.0435e-09
-1.30662e-10
4.32628e-10
-5.35403e-11
3.27783e-10
1.6884e-10
-6.23459e-11
-1.95711e-10
-1.02927e-09
-1.95711e-10
-3.47396e-10
-5.92478e-10
-9.11045e-11
2.14711e-10
-4.93838e-11
2.41228e-10
3.37332e-11
-2.67191e-11
-8.21673e-11
-3.82481e-10
-8.21673e-11
-2.51606e-10
-1.97847e-10
6.64361e-12
5.6956e-11
-1.55159e-11
6.7711e-11
9.59813e-12
-1.75263e-11
-3.96542e-11
-1.67751e-10
-3.96542e-11
-7.33633e-11
-9.34579e-11
-1.37836e-11
2.19068e-11
-1.40304e-11
3.6241e-11
2.64798e-13
-7.74211e-12
-1.61678e-11
-6.29334e-11
-1.61678e-11
-4.02762e-11
-3.1475e-11
-1.91439e-12
5.9754e-12
-5.51078e-12
1.04997e-11
-1.7688e-12
-3.99775e-12
-7.66343e-12
-2.66072e-11
-7.66343e-12
-1.21387e-11
-1.47044e-11
-3.50149e-12
1.49795e-12
-3.5236e-12
4.80868e-12
-6.85018e-13
-2.04983e-12
-2.99441e-12
-1.1001e-11
-2.99441e-12
-6.13765e-12
-5.25106e-12
-1.17142e-12
9.31055e-13
-1.732e-12
1.7118e-12
-8.24044e-13
-9.51076e-13
-1.66563e-12
-4.24609e-12
-1.66563e-12
-2.26365e-12
-2.37028e-12
-8.68792e-13
-7.8263e-14
-7.61155e-13
5.82273e-13
-2.38209e-13
-4.72814e-13
-5.27508e-13
-2.02653e-12
-5.27508e-13
-9.73791e-13
-8.85984e-13
-3.80897e-13
2.06854e-13
-5.2061e-13
2.98065e-13
-2.17827e-13
-2.21804e-13
-3.92838e-13
-6.4474e-13
-3.92838e-13
-4.39471e-13
-3.80049e-13
-2.47341e-13
-2.2812e-14
-1.74221e-13
8.12387e-14
-6.01813e-14
-1.31404e-13
-1.18246e-13
-2.45776e-13
-1.18246e-13
-2.29476e-13
-4.93119e-14
-1.08645e-13
2.20547e-14
-1.35831e-13
1.0606e-14
-7.83667e-14
-1.12281e-13
-1.12281e-13
-8.5108e-14
-7.98503e-14
-7.25949e-14
-8.45692e-13
2.01988e-12
1.27023e-12
1.1077e-12
-6.2203e-12
1.42625e-12
1.55395e-12
-1.93688e-14
1.55395e-12
5.32158e-12
1.24548e-12
-3.38229e-12
5.43047e-12
3.89209e-12
4.10038e-12
-1.44993e-11
6.49448e-12
4.63152e-12
-1.08161e-12
4.63152e-12
9.69172e-12
3.41048e-12
-1.07411e-11
1.46338e-11
1.03313e-11
9.62736e-12
-3.78795e-11
1.72568e-11
1.31516e-11
-8.13011e-12
1.31516e-11
2.10345e-11
9.26637e-12
-3.25589e-11
4.51593e-11
2.1727e-11
2.01341e-11
-1.03027e-10
4.88293e-11
3.61077e-11
-4.00774e-11
3.61077e-11
5.28889e-11
1.92927e-11
-7.29307e-11
1.03845e-10
4.1789e-11
3.99782e-11
-2.48229e-10
1.10587e-10
7.1324e-11
-1.02769e-10
7.1324e-11
1.1023e-10
3.77378e-11
-2.66845e-10
3.35138e-10
1.01119e-10
9.83174e-11
-7.87532e-10
4.11912e-10
2.64198e-10
-4.34529e-10
2.64198e-10
3.363e-10
8.83534e-11
-2.20234e-10
5.07588e-10
9.4551e-11
6.85726e-11
-1.25997e-09
3.64872e-10
2.31456e-10
-7.60296e-10
2.31456e-10
5.20454e-10
8.45176e-11
8.28903e-12
4.86116e-10
1.2406e-11
-4.88146e-12
-1.2424e-09
-2.36698e-11
2.92714e-12
-7.75913e-10
2.92714e-12
5.11688e-10
1.15509e-11
4.23421e-11
4.25765e-10
-4.17559e-11
-1.30662e-10
-1.0435e-09
-2.13409e-10
-6.45402e-11
-9.08156e-10
-6.45402e-11
4.25886e-10
-3.22784e-11
2.08235e-10
2.5255e-10
-9.73662e-11
-9.11045e-11
-5.92478e-10
-3.47396e-10
-2.21237e-10
-6.47891e-10
-2.21237e-10
2.40919e-10
-8.56545e-11
2.31836e-10
7.82403e-11
-8.42453e-11
6.64361e-12
-1.97847e-10
-2.51606e-10
-2.24464e-10
-1.85676e-10
-2.24464e-10
8.10029e-11
-8.00636e-11
5.68968e-11
3.32553e-11
-2.94382e-11
-1.37836e-11
-9.34579e-11
-7.33633e-11
-5.83807e-11
-9.64816e-11
-5.83807e-11
3.56002e-11
-2.70083e-11
3.59601e-11
1.10596e-11
-2.15065e-11
-1.91439e-12
-3.1475e-11
-4.02762e-11
-3.71817e-11
-2.59471e-11
-3.71817e-11
1.36734e-11
-2.07657e-11
8.79392e-12
4.04144e-12
-5.77354e-12
-3.50149e-12
-1.47044e-11
-1.21387e-11
-9.72973e-12
-1.34906e-11
-9.72973e-12
5.75765e-12
-5.33759e-12
5.13862e-12
1.68195e-12
-4.82895e-12
-1.17142e-12
-5.25106e-12
-6.13765e-12
-6.17878e-12
-3.47588e-12
-6.17878e-12
2.63492e-12
-4.78805e-12
1.41395e-12
2.73951e-13
-9.57006e-13
-8.68792e-13
-2.37028e-12
-2.26365e-12
-1.67161e-12
-1.87025e-12
-1.67161e-12
1.06117e-12
-8.5902e-13
6.57128e-13
2.76602e-13
-1.13259e-12
-3.80897e-13
-8.85984e-13
-9.73791e-13
-1.1475e-12
-3.37057e-13
-1.1475e-12
5.33435e-13
-1.14037e-12
2.11969e-13
-1.27339e-15
-1.5591e-13
-2.47341e-13
-3.80049e-13
-4.39471e-13
-2.85418e-13
-2.60901e-13
-2.85418e-13
1.87307e-13
-1.13502e-13
1.10859e-13
2.40871e-14
-2.67629e-13
-1.08645e-13
-4.93119e-14
-2.29476e-13
-2.54009e-13
2.98362e-14
-2.54009e-13
8.85138e-14
-2.91037e-13
-3.37007e-15
-5.09071e-14
-7.98503e-14
-8.5108e-14
-6.49276e-14
-6.49276e-14
-4.9002e-14
-7.25801e-13
5.7378e-12
1.12885e-12
-2.41222e-13
1.24548e-12
5.32158e-12
8.43929e-12
-2.20222e-12
1.18321e-11
3.14906e-12
9.02036e-13
3.41048e-12
9.69172e-12
1.52602e-11
-6.90604e-12
2.90695e-11
7.45757e-12
3.79529e-12
9.26637e-12
2.10345e-11
3.3793e-11
-1.72076e-11
6.8004e-11
1.50394e-11
2.03777e-11
1.92927e-11
5.28889e-11
7.23783e-11
-3.37588e-11
1.43552e-10
2.37552e-11
7.3451e-11
3.77378e-11
1.1023e-10
1.47854e-10
-8.82963e-11
3.32967e-10
5.02249e-11
3.46842e-10
8.83534e-11
3.363e-10
3.24561e-10
-8.02818e-11
5.078e-10
3.72158e-11
5.94217e-10
8.45176e-11
5.20454e-10
4.93596e-10
-6.09898e-12
5.26305e-10
-1.4223e-13
5.64591e-10
1.15509e-11
5.11688e-10
5.16698e-10
2.79058e-11
4.56644e-10
-5.35403e-11
4.32628e-10
-3.22784e-11
4.25886e-10
4.52141e-10
8.00959e-11
2.79181e-10
-4.93838e-11
2.14711e-10
-8.56545e-11
2.40919e-10
2.80832e-10
7.83348e-11
1.16601e-10
-1.55159e-11
5.6956e-11
-8.00636e-11
8.10029e-11
1.20705e-10
2.42837e-11
6.28794e-11
-1.40304e-11
2.19068e-11
-2.70083e-11
3.56002e-11
6.66885e-11
1.8834e-11
2.25389e-11
-5.51078e-12
5.9754e-12
-2.07657e-11
1.36734e-11
2.51571e-11
4.13763e-12
1.26278e-11
-3.5236e-12
1.49795e-12
-5.33759e-12
5.75765e-12
1.4482e-11
3.83875e-12
3.96008e-12
-1.732e-12
9.31055e-13
-4.78805e-12
2.63492e-12
4.90584e-12
4.93187e-13
2.50989e-12
-7.61155e-13
-7.8263e-14
-8.5902e-13
1.06117e-12
3.18781e-12
7.38305e-13
6.38986e-13
-5.2061e-13
2.06854e-13
-1.14037e-12
5.33435e-13
9.07069e-13
3.55818e-14
4.47488e-13
-1.74221e-13
-2.2812e-14
-1.13502e-13
1.87307e-13
6.80071e-13
1.38505e-13
4.13562e-14
-1.35831e-13
2.20547e-14
-2.91037e-13
8.85138e-14
9.80053e-14
-9.54708e-15
-7.25949e-14
-4.9002e-14
)
;

boundaryField
{
    inlet
    {
        type            calculated;
        value           uniform 0;
    }
    outlet
    {
        type            calculated;
        value           nonuniform List<scalar> 
16
(
-1.24496e-12
3.56057e-12
-1.32556e-12
-3.74177e-12
3.56057e-12
1.07608e-11
4.23041e-12
-1.87172e-13
-1.32556e-12
4.23041e-12
-8.73121e-13
-3.88421e-12
-3.74177e-12
-1.87172e-13
-3.88421e-12
-5.9483e-12
)
;
    }
    walls
    {
        type            calculated;
        value           nonuniform List<scalar> 
320
(
0
3.07702e-28
2.29895e-25
1.86957e-22
1.0294e-19
1.29819e-17
1.61684e-20
5.03273e-24
1.41378e-27
4.18053e-31
0
0
0
0
0
0
0
0
0
0
0
3.25652e-26
5.20522e-23
5.85918e-20
2.1902e-17
8.34039e-16
7.92342e-18
3.30039e-21
8.01467e-25
1.88994e-28
0
0
0
0
0
0
0
0
0
0
0
1.80126e-26
2.1941e-23
2.70424e-20
9.38925e-18
4.01961e-16
4.31136e-18
1.7795e-21
4.46647e-25
1.12005e-28
0
0
0
0
0
0
0
0
0
0
0
4.00834e-29
4.11003e-26
4.78614e-23
3.45074e-20
6.36446e-18
8.32629e-21
3.79951e-24
1.59203e-27
6.7973e-31
0
0
0
0
0
0
0
0
0
0
0
-4.00834e-29
-4.11003e-26
-4.78614e-23
-3.45074e-20
-6.36446e-18
-8.32629e-21
-3.79951e-24
-1.59203e-27
-6.7973e-31
0
0
0
0
0
0
0
0
0
0
0
-1.5429e-26
-2.51979e-23
-3.52737e-20
-1.02895e-17
-3.95284e-16
-4.1312e-18
-2.1349e-21
-7.68469e-25
-3.12449e-28
0
0
0
0
0
0
0
0
0
0
0
-4.58267e-27
-7.3318e-24
-1.41272e-20
-6.1231e-18
-2.66532e-16
-2.9577e-18
-1.74309e-21
-5.91436e-25
-2.2871e-28
0
0
0
0
0
0
0
0
0
0
0
0
-1.13284e-26
-2.10186e-23
-2.29114e-20
-4.30912e-18
-8.72383e-21
-5.34666e-24
-2.80919e-27
-1.46529e-30
0
0
0
0
0
0
0
0
0
0
0
3.07702e-28
2.29895e-25
1.86957e-22
1.0294e-19
1.29819e-17
1.61684e-20
5.03273e-24
1.41378e-27
4.18053e-31
0
0
0
0
0
0
0
0
0
0
0
3.25652e-26
5.20522e-23
5.85918e-20
2.1902e-17
8.34039e-16
7.92342e-18
3.30039e-21
8.01467e-25
1.88994e-28
0
0
0
0
0
0
0
0
0
0
0
1.80126e-26
2.1941e-23
2.70424e-20
9.38925e-18
4.01961e-16
4.31136e-18
1.7795e-21
4.46647e-25
1.12005e-28
0
0
0
0
0
0
0
0
0
0
0
4.00834e-29
4.11003e-26
4.78614e-23
3.45074e-20
6.36446e-18
8.32629e-21
3.79951e-24
1.59203e-27
6.7973e-31
0
0
0
0
0
0
0
0
0
0
0
-4.00834e-29
-4.11003e-26
-4.78614e-23
-3.45074e-20
-6.36446e-18
-8.32629e-21
-3.79951e-24
-1.59203e-27
-6.7973e-31
0
0
0
0
0
0
0
0
0
0
0
-1.5429e-26
-2.51979e-23
-3.52737e-20
-1.02895e-17
-3.95284e-16
-4.1312e-18
-2.1349e-21
-7.68469e-25
-3.12449e-28
0
0
0
0
0
0
0
0
0
0
0
-4.58267e-27
-7.3318e-24
-1.41272e-20
-6.1231e-18
-2.66532e-16
-2.9577e-18
-1.74309e-21
-5.91436e-25
-2.2871e-28
0
0
0
0
0
0
0
0
0
0
0
0
-1.13284e-26
-2.10186e-23
-2.29114e-20
-4.30912e-18
-8.72383e-21
-5.34666e-24
-2.80919e-27
-1.46529e-30
0
0
0
0
0
0
0
0
0
0
)
;
    }
}


// ************************************************************************* //
