/*--------------------------------*- C++ -*----------------------------------*\
| =========                 |                                                 |
| \\      /  F ield         | OpenFOAM: The Open Source CFD Toolbox           |
|  \\    /   O peration     | Version:  5.x                                   |
|   \\  /    A nd           | Web:      www.OpenFOAM.org                      |
|    \\/     M anipulation  |                                                 |
\*---------------------------------------------------------------------------*/
FoamFile
{
    version     2.0;
    format      ascii;
    class       volVectorField;
    location    "0.09";
    object      U;
}
// * * * * * * * * * * * * * * * * * * * * * * * * * * * * * * * * * * * * * //

dimensions      [0 1 -1 0 0 0 0];

internalField   nonuniform List<vector> 
320
(
(-1.45789e-07 2.42856e-07 -1.45789e-07)
(2.55699e-09 -5.23528e-07 -2.31344e-07)
(2.78662e-07 2.53621e-07 -1.69265e-07)
(1.19585e-07 6.73795e-07 -1.64776e-07)
(-5.80163e-07 5.3609e-07 -5.80163e-07)
(6.8479e-09 -9.7729e-07 -9.48147e-07)
(9.69321e-07 3.25933e-07 -7.06098e-07)
(2.98143e-07 1.10747e-06 -4.70808e-07)
(-1.55965e-06 2.27496e-06 -1.55965e-06)
(-2.01046e-07 -1.06758e-06 -2.8542e-06)
(2.39047e-06 1.63317e-06 -1.97963e-06)
(8.55705e-07 3.07369e-06 -1.3871e-06)
(-3.79263e-06 5.79038e-06 -3.79263e-06)
(-7.21571e-07 -1.52794e-07 -8.30717e-06)
(5.27979e-06 3.81634e-06 -5.48061e-06)
(1.71987e-06 6.57661e-06 -3.11452e-06)
(-7.13749e-06 1.42401e-05 -7.13749e-06)
(-2.30964e-06 -9.45973e-07 -2.15217e-05)
(9.39814e-06 8.83416e-06 -1.24475e-05)
(3.49128e-06 1.53907e-05 -6.37862e-06)
(-1.85534e-05 3.47982e-05 -1.85534e-05)
(-6.76281e-06 2.2617e-05 -7.72076e-05)
(2.24747e-05 2.97915e-05 -4.33288e-05)
(8.35824e-06 3.47787e-05 -1.53512e-05)
(-1.79467e-05 6.98281e-05 -1.79467e-05)
(-8.16441e-06 6.73146e-05 -7.31927e-05)
(2.18609e-05 6.79304e-05 -4.13694e-05)
(8.51031e-06 6.78932e-05 -1.54166e-05)
(-1.37198e-06 8.7603e-05 -1.37198e-06)
(-2.087e-06 8.7013e-05 9.33407e-06)
(3.45506e-06 8.31452e-05 1.64518e-06)
(8.16176e-07 8.56459e-05 -1.65402e-06)
(1.13367e-05 8.28428e-05 1.13367e-05)
(-1.86219e-06 7.05867e-05 4.99859e-05)
(-1.32858e-05 7.89538e-05 2.099e-05)
(-9.10006e-07 8.29901e-05 9.28356e-06)
(1.84659e-05 6.32798e-05 1.84659e-05)
(6.58417e-06 4.50998e-05 6.86507e-05)
(-2.37307e-05 6.09907e-05 3.97334e-05)
(-7.88543e-06 6.51189e-05 1.59715e-05)
(1.30206e-05 2.51201e-05 1.30206e-05)
(9.84268e-06 1.00975e-05 4.29511e-05)
(-1.71221e-05 2.1664e-05 3.15732e-05)
(-9.22779e-06 2.66183e-05 1.17335e-05)
(4.9124e-06 1.14826e-05 4.9124e-06)
(2.2947e-06 5.90593e-07 1.33941e-05)
(-7.04855e-06 4.8128e-06 8.93952e-06)
(-2.63683e-06 1.22419e-05 4.31354e-06)
(3.2609e-06 5.99727e-06 3.2609e-06)
(2.24472e-06 2.07749e-06 6.65493e-06)
(-4.36883e-06 4.90568e-06 5.14217e-06)
(-2.42139e-06 6.68838e-06 2.96539e-06)
(8.67292e-07 1.09215e-06 8.67292e-07)
(3.45343e-07 -1.90142e-06 2.13207e-06)
(-1.42992e-06 -7.41955e-07 1.42622e-06)
(-4.93964e-07 1.41227e-06 7.6199e-07)
(6.82802e-07 1.73689e-06 6.82802e-07)
(4.08968e-07 1.08985e-06 9.16651e-07)
(-9.74574e-07 1.65677e-06 7.85166e-07)
(-5.60705e-07 1.96353e-06 6.43942e-07)
(1.37933e-07 -4.49833e-07 1.37933e-07)
(2.04928e-08 -1.15942e-06 3.66253e-07)
(-2.73547e-07 -8.74755e-07 2.41399e-07)
(-6.17528e-08 -3.26058e-07 1.01889e-07)
(1.25741e-07 7.8922e-07 1.25741e-07)
(6.9843e-08 7.3741e-07 1.18437e-07)
(-2.04508e-07 8.61993e-07 1.14213e-07)
(-1.38551e-07 8.51854e-07 1.31512e-07)
(2.52615e-08 -5.64207e-07 2.52615e-08)
(-2.05092e-09 -7.33701e-07 6.82166e-08)
(-5.5416e-08 -6.88362e-07 4.09719e-08)
(-3.38027e-09 -5.20525e-07 1.3212e-08)
(2.26937e-08 5.68157e-07 2.26937e-08)
(7.05619e-09 6.01196e-07 2.02676e-08)
(-4.6542e-08 6.27987e-07 2.27146e-08)
(-3.22775e-08 5.73559e-07 2.60415e-08)
(-8.02118e-09 -5.41773e-07 -8.02118e-09)
(3.78113e-09 -5.89606e-07 -3.93767e-09)
(-2.46615e-08 -5.88289e-07 -8.78786e-09)
(1.00977e-08 -5.29244e-07 -8.88766e-09)
(-2.31344e-07 -5.23528e-07 2.55699e-09)
(-9.58192e-09 -1.76553e-06 -9.58192e-09)
(3.47779e-07 -6.47399e-07 -2.47016e-08)
(1.26748e-07 4.47761e-08 5.44057e-10)
(-9.48147e-07 -9.7729e-07 6.8479e-09)
(-7.26589e-08 -3.7771e-06 -7.26589e-08)
(1.47998e-06 -1.58068e-06 -6.51959e-08)
(5.43167e-07 -1.47941e-07 -1.39145e-08)
(-2.8542e-06 -1.06758e-06 -2.01046e-07)
(-5.07634e-07 -8.76141e-06 -5.07634e-07)
(3.92664e-06 -3.2872e-06 -5.07249e-07)
(1.46252e-06 4.29682e-07 -2.25166e-07)
(-8.30717e-06 -1.52794e-07 -7.21571e-07)
(-2.15669e-06 -1.99718e-05 -2.15669e-06)
(1.06815e-05 -7.23544e-06 -2.123e-06)
(4.11625e-06 1.48862e-06 -7.741e-07)
(-2.15217e-05 -9.45973e-07 -2.30964e-06)
(-7.087e-06 -7.37215e-05 -7.087e-06)
(2.51803e-05 -3.07736e-05 -5.41653e-06)
(9.56246e-06 3.27991e-06 -2.22962e-06)
(-7.72076e-05 2.2617e-05 -6.76281e-06)
(-3.0596e-05 -9.7377e-05 -3.0596e-05)
(8.65918e-05 -3.1516e-05 -2.45335e-05)
(3.62692e-05 2.58218e-05 -6.44153e-06)
(-7.31927e-05 6.73146e-05 -8.16441e-06)
(-3.04056e-05 -0.000588714 -3.04056e-05)
(8.40037e-05 -0.000248825 -2.62675e-05)
(3.41793e-05 7.44383e-05 -7.96797e-06)
(9.33407e-06 8.7013e-05 -2.087e-06)
(1.87219e-06 -0.00043931 1.87219e-06)
(-3.6255e-06 -0.000186682 -1.93182e-06)
(-2.76709e-06 9.92798e-05 -1.9884e-06)
(4.99859e-05 7.05867e-05 -1.86219e-06)
(5.98698e-06 -0.000401374 5.98698e-06)
(-5.50322e-05 -0.000172255 -1.11585e-05)
(-1.23208e-05 8.92303e-05 -3.05758e-06)
(6.86507e-05 4.50998e-05 6.58417e-06)
(2.63159e-05 -0.00025153 2.63159e-05)
(-8.17797e-05 -0.000154996 2.11624e-05)
(-3.11738e-05 5.51988e-05 6.3367e-06)
(4.29511e-05 1.00975e-05 9.84268e-06)
(2.88128e-05 -8.28302e-05 2.88128e-05)
(-5.21346e-05 -3.68157e-05 3.86809e-05)
(-2.90156e-05 1.53209e-05 1.09568e-05)
(1.33941e-05 5.90593e-07 2.2947e-06)
(6.03485e-06 -4.41298e-05 6.03485e-06)
(-1.70773e-05 -2.80734e-05 7.64441e-06)
(-7.34307e-06 2.8803e-06 2.39667e-06)
(6.65493e-06 2.07749e-06 2.24472e-06)
(3.91455e-06 -1.02357e-05 3.91455e-06)
(-8.44258e-06 -3.11684e-06 5.5857e-06)
(-4.62005e-06 3.52442e-06 2.46028e-06)
(2.13207e-06 -1.90142e-06 3.45343e-07)
(8.18911e-07 -8.76006e-06 8.18911e-07)
(-2.92526e-06 -5.96034e-06 1.09018e-06)
(-1.17938e-06 -1.18763e-06 3.51198e-07)
(9.16651e-07 1.08985e-06 4.08968e-07)
(4.48957e-07 -7.14984e-07 4.48957e-07)
(-1.27871e-06 5.12302e-07 7.12481e-07)
(-7.09366e-07 1.4379e-06 4.47177e-07)
(3.66253e-07 -1.15942e-06 2.04928e-08)
(1.05758e-07 -2.20665e-06 1.05758e-07)
(-5.63091e-07 -1.75951e-06 1.52868e-07)
(-2.06037e-07 -9.59356e-07 2.5115e-08)
(1.18437e-07 7.3741e-07 6.9843e-08)
(4.48022e-08 4.87944e-07 4.48022e-08)
(-1.91844e-07 7.25863e-07 7.63145e-08)
(-1.23881e-07 8.34149e-07 7.26043e-08)
(6.82166e-08 -7.33701e-07 -2.05092e-09)
(1.02227e-08 -9.13331e-07 1.02227e-08)
(-1.17091e-07 -8.58185e-07 1.37966e-08)
(-3.23374e-08 -6.85833e-07 -5.19959e-09)
(2.02676e-08 6.01196e-07 7.05619e-09)
(3.79397e-09 6.00222e-07 3.79397e-09)
(-4.09548e-08 6.5241e-07 9.27425e-09)
(-2.95584e-08 6.19485e-07 1.15175e-08)
(-3.93767e-09 -5.89606e-07 3.78113e-09)
(4.79173e-09 -6.31353e-07 4.79173e-09)
(-3.44927e-08 -6.37573e-07 6.42667e-09)
(9.47445e-09 -5.81216e-07 3.91383e-09)
(-1.69265e-07 2.53621e-07 2.78662e-07)
(-2.47016e-08 -6.47399e-07 3.47779e-07)
(3.06375e-07 1.66907e-07 3.06375e-07)
(1.57936e-07 6.94038e-07 2.85812e-07)
(-7.06098e-07 3.25933e-07 9.69321e-07)
(-6.51959e-08 -1.58068e-06 1.47998e-06)
(1.09043e-06 -1.82351e-07 1.09043e-06)
(3.80256e-07 9.18325e-07 7.9612e-07)
(-1.97963e-06 1.63317e-06 2.39047e-06)
(-5.07249e-07 -3.2872e-06 3.92664e-06)
(2.81422e-06 -3.85013e-07 2.81422e-06)
(1.21341e-06 2.46884e-06 2.08505e-06)
(-5.48061e-06 3.81634e-06 5.27979e-06)
(-2.123e-06 -7.23544e-06 1.06815e-05)
(6.97667e-06 -1.18005e-06 6.97667e-06)
(3.20275e-06 4.82011e-06 4.3151e-06)
(-1.24475e-05 8.83416e-06 9.39814e-06)
(-5.41653e-06 -3.07736e-05 2.51803e-05)
(1.49372e-05 -1.38177e-05 1.49372e-05)
(6.89622e-06 1.05539e-05 8.29285e-06)
(-4.33288e-05 2.97915e-05 2.24747e-05)
(-2.45335e-05 -3.1516e-05 8.65918e-05)
(4.82243e-05 -1.08966e-05 4.82243e-05)
(2.66221e-05 3.03282e-05 1.84128e-05)
(-4.13694e-05 6.79304e-05 2.18609e-05)
(-2.62675e-05 -0.000248825 8.40037e-05)
(4.66724e-05 -0.000147768 4.66724e-05)
(2.659e-05 6.93858e-05 1.84246e-05)
(1.64518e-06 8.31452e-05 3.45506e-06)
(-1.93182e-06 -0.000186682 -3.6255e-06)
(1.75826e-06 -0.000117301 1.75826e-06)
(2.84251e-07 8.54066e-05 3.2037e-06)
(2.099e-05 7.89538e-05 -1.32858e-05)
(-1.11585e-05 -0.000172255 -5.50322e-05)
(-2.43005e-05 -0.000104132 -2.43005e-05)
(4.62751e-06 8.36565e-05 -1.0554e-05)
(3.97334e-05 6.09907e-05 -2.37307e-05)
(2.11624e-05 -0.000154996 -8.17797e-05)
(-4.6887e-05 -0.000181937 -4.6887e-05)
(-2.26948e-05 5.6261e-05 -1.9777e-05)
(3.15732e-05 2.1664e-05 -1.71221e-05)
(3.86809e-05 -3.68157e-05 -5.21346e-05)
(-3.58808e-05 -2.55994e-05 -3.58808e-05)
(-3.44079e-05 2.26315e-05 -1.50105e-05)
(8.93952e-06 4.8128e-06 -7.04855e-06)
(7.64441e-06 -2.80734e-05 -1.70773e-05)
(-1.12984e-05 -3.15673e-05 -1.12984e-05)
(-7.61755e-06 4.79185e-06 -6.13772e-06)
(5.14217e-06 4.90568e-06 -4.36883e-06)
(5.5857e-06 -3.11684e-06 -8.44258e-06)
(-6.05695e-06 -1.20857e-06 -6.05695e-06)
(-5.44021e-06 5.61852e-06 -3.93545e-06)
(1.42622e-06 -7.41955e-07 -1.42992e-06)
(1.09018e-06 -5.96034e-06 -2.92526e-06)
(-2.02299e-06 -6.01245e-06 -2.02299e-06)
(-1.23383e-06 -5.3096e-07 -1.29215e-06)
(7.85166e-07 1.65677e-06 -9.74574e-07)
(7.12481e-07 5.12302e-07 -1.27871e-06)
(-1.03371e-06 9.31493e-07 -1.03371e-06)
(-8.54372e-07 1.91525e-06 -9.17842e-07)
(2.41399e-07 -8.74755e-07 -2.73547e-07)
(1.52868e-07 -1.75951e-06 -5.63091e-07)
(-3.82528e-07 -1.67219e-06 -3.82528e-07)
(-1.93963e-07 -7.65819e-07 -2.30951e-07)
(1.14213e-07 8.61993e-07 -2.04508e-07)
(7.63145e-08 7.25863e-07 -1.91844e-07)
(-1.89991e-07 8.21942e-07 -1.89991e-07)
(-1.54304e-07 9.24555e-07 -2.13902e-07)
(4.09719e-08 -6.88362e-07 -5.5416e-08)
(1.37966e-08 -8.58185e-07 -1.17091e-07)
(-7.8085e-08 -8.33711e-07 -7.8085e-08)
(-2.39706e-08 -6.37003e-07 -4.20215e-08)
(2.27146e-08 6.27987e-07 -4.6542e-08)
(9.27425e-09 6.5241e-07 -4.09548e-08)
(-4.25432e-08 6.80687e-07 -4.25432e-08)
(-3.36656e-08 6.38411e-07 -5.02998e-08)
(-8.78786e-09 -5.88289e-07 -2.46615e-08)
(6.42667e-09 -6.37573e-07 -3.44927e-08)
(-2.7779e-08 -6.39162e-07 -2.7779e-08)
(9.55315e-09 -5.78675e-07 -2.33126e-08)
(-1.64776e-07 6.73795e-07 1.19585e-07)
(5.44057e-10 4.47761e-08 1.26748e-07)
(2.85812e-07 6.94038e-07 1.57936e-07)
(1.12495e-07 1.04775e-06 1.12495e-07)
(-4.70808e-07 1.10747e-06 2.98143e-07)
(-1.39145e-08 -1.47941e-07 5.43167e-07)
(7.9612e-07 9.18325e-07 3.80256e-07)
(2.71274e-07 1.59068e-06 2.71274e-07)
(-1.3871e-06 3.07369e-06 8.55705e-07)
(-2.25166e-07 4.29682e-07 1.46252e-06)
(2.08505e-06 2.46884e-06 1.21341e-06)
(7.9364e-07 3.72577e-06 7.9364e-07)
(-3.11452e-06 6.57661e-06 1.71987e-06)
(-7.741e-07 1.48862e-06 4.11625e-06)
(4.3151e-06 4.82011e-06 3.20275e-06)
(1.60568e-06 7.33686e-06 1.60568e-06)
(-6.37862e-06 1.53907e-05 3.49128e-06)
(-2.22962e-06 3.27991e-06 9.56246e-06)
(8.29285e-06 1.05539e-05 6.89622e-06)
(3.37158e-06 1.63756e-05 3.37158e-06)
(-1.53512e-05 3.47787e-05 8.35824e-06)
(-6.44153e-06 2.58218e-05 3.62692e-05)
(1.84128e-05 3.03282e-05 2.66221e-05)
(7.86198e-06 3.47686e-05 7.86198e-06)
(-1.54166e-05 6.78932e-05 8.51031e-06)
(-7.96797e-06 7.44383e-05 3.41793e-05)
(1.84246e-05 6.93858e-05 2.659e-05)
(8.4487e-06 6.61125e-05 8.4487e-06)
(-1.65402e-06 8.56459e-05 8.16176e-07)
(-1.9884e-06 9.92798e-05 -2.76709e-06)
(3.2037e-06 8.54066e-05 2.84251e-07)
(1.08801e-06 8.31547e-05 1.08801e-06)
(9.28356e-06 8.29901e-05 -9.10006e-07)
(-3.05758e-06 8.92303e-05 -1.23208e-05)
(-1.0554e-05 8.36565e-05 4.62751e-06)
(8.34446e-08 8.16778e-05 8.34446e-08)
(1.59715e-05 6.51189e-05 -7.88543e-06)
(6.3367e-06 5.51988e-05 -3.11738e-05)
(-1.9777e-05 5.6261e-05 -2.26948e-05)
(-7.62444e-06 6.47219e-05 -7.62444e-06)
(1.17335e-05 2.66183e-05 -9.22779e-06)
(1.09568e-05 1.53209e-05 -2.90156e-05)
(-1.50105e-05 2.26315e-05 -3.44079e-05)
(-9.95703e-06 2.75146e-05 -9.95703e-06)
(4.31354e-06 1.22419e-05 -2.63683e-06)
(2.39667e-06 2.8803e-06 -7.34307e-06)
(-6.13772e-06 4.79185e-06 -7.61755e-06)
(-2.67398e-06 1.27716e-05 -2.67398e-06)
(2.96539e-06 6.68838e-06 -2.42139e-06)
(2.46028e-06 3.52442e-06 -4.62005e-06)
(-3.93545e-06 5.61852e-06 -5.44021e-06)
(-2.59209e-06 7.28869e-06 -2.59209e-06)
(7.6199e-07 1.41227e-06 -4.93964e-07)
(3.51198e-07 -1.18763e-06 -1.17938e-06)
(-1.29215e-06 -5.3096e-07 -1.23383e-06)
(-4.98487e-07 1.72197e-06 -4.98487e-07)
(6.43942e-07 1.96353e-06 -5.60705e-07)
(4.47177e-07 1.4379e-06 -7.09366e-07)
(-9.17842e-07 1.91525e-06 -8.54372e-07)
(-5.94871e-07 2.19127e-06 -5.94871e-07)
(1.01889e-07 -3.26058e-07 -6.17528e-08)
(2.5115e-08 -9.59356e-07 -2.06037e-07)
(-2.30951e-07 -7.65819e-07 -1.93963e-07)
(-6.24391e-08 -2.05995e-07 -6.24391e-08)
(1.31512e-07 8.51854e-07 -1.38551e-07)
(7.26043e-08 8.34149e-07 -1.23881e-07)
(-2.13902e-07 9.24555e-07 -1.54304e-07)
(-1.44815e-07 9.13114e-07 -1.44815e-07)
(1.3212e-08 -5.20525e-07 -3.38027e-09)
(-5.19959e-09 -6.85833e-07 -3.23374e-08)
(-4.20215e-08 -6.37003e-07 -2.39706e-08)
(6.12139e-10 -4.72046e-07 6.12139e-10)
(2.60415e-08 5.73559e-07 -3.22775e-08)
(1.15175e-08 6.19485e-07 -2.95584e-08)
(-5.02998e-08 6.38411e-07 -3.36656e-08)
(-3.63437e-08 5.78919e-07 -3.63437e-08)
(-8.88766e-09 -5.29244e-07 1.00977e-08)
(3.91383e-09 -5.81216e-07 9.47445e-09)
(-2.33126e-08 -5.78675e-07 9.55315e-09)
(9.5663e-09 -5.16499e-07 9.5663e-09)
)
;

boundaryField
{
    inlet
    {
        type            fixedValue;
        value           uniform (0 0 0);
    }
    outlet
    {
        type            zeroGradient;
    }
    walls
    {
        type            fixedValue;
        value           uniform (0 0 0);
    }
}


// ************************************************************************* //
