/*--------------------------------*- C++ -*----------------------------------*\
| =========                 |                                                 |
| \\      /  F ield         | OpenFOAM: The Open Source CFD Toolbox           |
|  \\    /   O peration     | Version:  5.x                                   |
|   \\  /    A nd           | Web:      www.OpenFOAM.org                      |
|    \\/     M anipulation  |                                                 |
\*---------------------------------------------------------------------------*/
FoamFile
{
    version     2.0;
    format      ascii;
    class       volVectorField;
    location    "0.09";
    object      Us;
}
// * * * * * * * * * * * * * * * * * * * * * * * * * * * * * * * * * * * * * //

dimensions      [0 1 -1 0 0 0 0];

internalField   nonuniform List<vector> 
320
(
(-1.17357e-16 -4.7891e-13 -1.17357e-16)
(-1.22704e-15 -5.00733e-12 -1.22704e-15)
(-1.15171e-15 -4.69993e-12 -1.15171e-15)
(-3.33364e-17 -1.36039e-13 -3.33364e-17)
(-6.04776e-15 -2.46797e-11 -6.04776e-15)
(-7.39693e-14 -3.01855e-10 -7.39693e-14)
(-7.03016e-14 -2.86887e-10 -7.03016e-14)
(-2.00835e-15 -8.19568e-12 -2.00835e-15)
(-2.96152e-13 -1.20854e-09 -2.96152e-13)
(-4.34787e-12 -1.77428e-08 -4.34787e-12)
(-4.18416e-12 -1.70748e-08 -4.18416e-12)
(-1.18009e-13 -4.81571e-10 -1.18009e-13)
(-1.30509e-11 -5.32584e-08 -1.30509e-11)
(-2.39544e-10 -9.77532e-07 -2.39544e-10)
(-2.33459e-10 -9.527e-07 -2.33459e-10)
(-6.5019e-12 -2.6533e-08 -6.5019e-12)
(-4.79254e-10 -1.95574e-06 -4.79254e-10)
(-1.17289e-08 -4.78633e-05 -1.17289e-08)
(-1.15786e-08 -4.72501e-05 -1.15786e-08)
(-3.18597e-10 -1.30013e-06 -3.18597e-10)
(-1.17342e-08 -4.78851e-05 -1.17342e-08)
(-4.30668e-07 -0.00175748 -4.30668e-07)
(-4.30744e-07 -0.00175778 -4.30744e-07)
(-1.17353e-08 -4.78893e-05 -1.17353e-08)
(-3.17477e-10 -1.29556e-06 -3.17477e-10)
(-1.16542e-08 -4.75584e-05 -1.16542e-08)
(-1.16543e-08 -4.75588e-05 -1.16543e-08)
(-3.17523e-10 -1.29575e-06 -3.17523e-10)
(-4.24034e-12 -1.7304e-08 -4.24034e-12)
(-1.55657e-10 -6.35208e-07 -1.55657e-10)
(-1.57696e-10 -6.43526e-07 -1.57696e-10)
(-6.44414e-12 -2.62973e-08 -6.44414e-12)
(-5.66377e-14 -2.31128e-10 -5.66377e-14)
(-2.0791e-12 -8.4844e-09 -2.0791e-12)
(-2.13354e-12 -8.70657e-09 -2.13354e-12)
(-1.16255e-13 -4.74413e-10 -1.16255e-13)
(-7.56192e-16 -3.08587e-12 -7.56192e-16)
(-2.77639e-14 -1.13299e-10 -2.77639e-14)
(-2.88544e-14 -1.17749e-10 -2.88544e-14)
(-1.96555e-15 -8.02103e-12 -1.96555e-15)
(0 0 0)
(0 0 0)
(0 0 0)
(0 0 0)
(0 0 0)
(0 0 0)
(0 0 0)
(0 0 0)
(0 0 0)
(0 0 0)
(0 0 0)
(0 0 0)
(0 0 0)
(0 0 0)
(0 0 0)
(0 0 0)
(0 0 0)
(0 0 0)
(0 0 0)
(0 0 0)
(0 0 0)
(0 0 0)
(0 0 0)
(0 0 0)
(0 0 0)
(0 0 0)
(0 0 0)
(0 0 0)
(0 0 0)
(0 0 0)
(0 0 0)
(0 0 0)
(0 0 0)
(0 0 0)
(0 0 0)
(0 0 0)
(0 0 0)
(0 0 0)
(0 0 0)
(0 0 0)
(-1.22704e-15 -5.00733e-12 -1.22704e-15)
(-1.49816e-14 -6.11371e-11 -1.49816e-14)
(-1.42364e-14 -5.80962e-11 -1.42364e-14)
(-4.06233e-16 -1.65776e-12 -4.06233e-16)
(-7.39693e-14 -3.01855e-10 -7.39693e-14)
(-1.08642e-12 -4.43346e-09 -1.08642e-12)
(-1.04549e-12 -4.26645e-09 -1.04549e-12)
(-2.94385e-14 -1.20133e-10 -2.94385e-14)
(-4.34787e-12 -1.77428e-08 -4.34787e-12)
(-7.98294e-11 -3.25768e-07 -7.98294e-11)
(-7.77983e-11 -3.1748e-07 -7.77983e-11)
(-2.16201e-12 -8.82273e-09 -2.16201e-12)
(-2.39544e-10 -9.77532e-07 -2.39544e-10)
(-5.86388e-09 -2.39294e-05 -5.86388e-09)
(-5.78831e-09 -2.3621e-05 -5.78831e-09)
(-1.58755e-10 -6.47849e-07 -1.58755e-10)
(-1.17289e-08 -4.78633e-05 -1.17289e-08)
(-4.30586e-07 -0.00175714 -4.30586e-07)
(-4.3059e-07 -0.00175715 -4.3059e-07)
(-1.16553e-08 -4.75631e-05 -1.16553e-08)
(-4.30668e-07 -0.00175748 -4.30668e-07)
(-3.16014e-05 -0.128959 -3.16014e-05)
(-3.16014e-05 -0.128959 -3.16014e-05)
(-4.30824e-07 -0.00175811 -4.30824e-07)
(-1.16542e-08 -4.75584e-05 -1.16542e-08)
(-4.30739e-07 -0.00175776 -4.30739e-07)
(-4.30668e-07 -0.00175747 -4.30668e-07)
(-1.15818e-08 -4.7263e-05 -1.15818e-08)
(-1.55657e-10 -6.35208e-07 -1.55657e-10)
(-5.71652e-09 -2.3328e-05 -5.71652e-09)
(-5.78939e-09 -2.36254e-05 -5.78939e-09)
(-2.33529e-10 -9.52985e-07 -2.33529e-10)
(-2.0791e-12 -8.4844e-09 -2.0791e-12)
(-7.58664e-11 -3.09596e-07 -7.58664e-11)
(-7.78127e-11 -3.17539e-07 -7.78127e-11)
(-4.18545e-12 -1.708e-08 -4.18545e-12)
(-2.77639e-14 -1.13299e-10 -2.77639e-14)
(-1.00668e-12 -4.10806e-09 -1.00668e-12)
(-1.04549e-12 -4.26646e-09 -1.04549e-12)
(-7.03078e-14 -2.86913e-10 -7.03078e-14)
(0 0 0)
(0 0 0)
(0 0 0)
(0 0 0)
(0 0 0)
(0 0 0)
(0 0 0)
(0 0 0)
(0 0 0)
(0 0 0)
(0 0 0)
(0 0 0)
(0 0 0)
(0 0 0)
(0 0 0)
(0 0 0)
(0 0 0)
(0 0 0)
(0 0 0)
(0 0 0)
(0 0 0)
(0 0 0)
(0 0 0)
(0 0 0)
(0 0 0)
(0 0 0)
(0 0 0)
(0 0 0)
(0 0 0)
(0 0 0)
(0 0 0)
(0 0 0)
(0 0 0)
(0 0 0)
(0 0 0)
(0 0 0)
(0 0 0)
(0 0 0)
(0 0 0)
(0 0 0)
(-1.15171e-15 -4.69993e-12 -1.15171e-15)
(-1.42364e-14 -5.80962e-11 -1.42364e-14)
(-1.35406e-14 -5.52564e-11 -1.35406e-14)
(-3.86042e-16 -1.57536e-12 -3.86042e-16)
(-7.03016e-14 -2.86887e-10 -7.03016e-14)
(-1.04549e-12 -4.26645e-09 -1.04549e-12)
(-1.00688e-12 -4.10889e-09 -1.00688e-12)
(-2.8331e-14 -1.15613e-10 -2.8331e-14)
(-4.18416e-12 -1.70748e-08 -4.18416e-12)
(-7.77983e-11 -3.1748e-07 -7.77983e-11)
(-7.58668e-11 -3.09598e-07 -7.58668e-11)
(-2.10714e-12 -8.59882e-09 -2.10714e-12)
(-2.33459e-10 -9.527e-07 -2.33459e-10)
(-5.78831e-09 -2.3621e-05 -5.78831e-09)
(-5.7165e-09 -2.33279e-05 -5.7165e-09)
(-1.56721e-10 -6.39547e-07 -1.56721e-10)
(-1.15786e-08 -4.72501e-05 -1.15786e-08)
(-4.3059e-07 -0.00175715 -4.3059e-07)
(-4.30737e-07 -0.00175776 -4.30737e-07)
(-1.16563e-08 -4.75673e-05 -1.16563e-08)
(-4.30744e-07 -0.00175778 -4.30744e-07)
(-3.16014e-05 -0.128959 -3.16014e-05)
(-3.16014e-05 -0.128959 -3.16014e-05)
(-4.30826e-07 -0.00175812 -4.30826e-07)
(-1.16543e-08 -4.75588e-05 -1.16543e-08)
(-4.30668e-07 -0.00175747 -4.30668e-07)
(-4.30741e-07 -0.00175777 -4.30741e-07)
(-1.17332e-08 -4.78811e-05 -1.17332e-08)
(-1.57696e-10 -6.43526e-07 -1.57696e-10)
(-5.78939e-09 -2.36254e-05 -5.78939e-09)
(-5.86603e-09 -2.39382e-05 -5.86603e-09)
(-2.39635e-10 -9.77903e-07 -2.39635e-10)
(-2.13354e-12 -8.70657e-09 -2.13354e-12)
(-7.78127e-11 -3.17539e-07 -7.78127e-11)
(-7.98594e-11 -3.25891e-07 -7.98594e-11)
(-4.34957e-12 -1.77498e-08 -4.34957e-12)
(-2.88544e-14 -1.17749e-10 -2.88544e-14)
(-1.04549e-12 -4.26646e-09 -1.04549e-12)
(-1.08664e-12 -4.43438e-09 -1.08664e-12)
(-7.39828e-14 -3.01909e-10 -7.39828e-14)
(0 0 0)
(0 0 0)
(0 0 0)
(0 0 0)
(0 0 0)
(0 0 0)
(0 0 0)
(0 0 0)
(0 0 0)
(0 0 0)
(0 0 0)
(0 0 0)
(0 0 0)
(0 0 0)
(0 0 0)
(0 0 0)
(0 0 0)
(0 0 0)
(0 0 0)
(0 0 0)
(0 0 0)
(0 0 0)
(0 0 0)
(0 0 0)
(0 0 0)
(0 0 0)
(0 0 0)
(0 0 0)
(0 0 0)
(0 0 0)
(0 0 0)
(0 0 0)
(0 0 0)
(0 0 0)
(0 0 0)
(0 0 0)
(0 0 0)
(0 0 0)
(0 0 0)
(0 0 0)
(-3.33364e-17 -1.36039e-13 -3.33364e-17)
(-4.06233e-16 -1.65776e-12 -4.06233e-16)
(-3.86042e-16 -1.57536e-12 -3.86042e-16)
(-1.11596e-17 -4.55401e-14 -1.11596e-17)
(-2.00835e-15 -8.19568e-12 -2.00835e-15)
(-2.94385e-14 -1.20133e-10 -2.94385e-14)
(-2.8331e-14 -1.15613e-10 -2.8331e-14)
(-8.08145e-16 -3.29788e-12 -8.08145e-16)
(-1.18009e-13 -4.81571e-10 -1.18009e-13)
(-2.16201e-12 -8.82273e-09 -2.16201e-12)
(-2.10714e-12 -8.59882e-09 -2.10714e-12)
(-5.93209e-14 -2.42077e-10 -5.93209e-14)
(-6.5019e-12 -2.6533e-08 -6.5019e-12)
(-1.58755e-10 -6.47849e-07 -1.58755e-10)
(-1.56721e-10 -6.39547e-07 -1.56721e-10)
(-4.35439e-12 -1.77694e-08 -4.35439e-12)
(-3.18597e-10 -1.30013e-06 -3.18597e-10)
(-1.16553e-08 -4.75631e-05 -1.16553e-08)
(-1.16563e-08 -4.75673e-05 -1.16563e-08)
(-3.19629e-10 -1.30434e-06 -3.19629e-10)
(-1.17353e-08 -4.78893e-05 -1.17353e-08)
(-4.30824e-07 -0.00175811 -4.30824e-07)
(-4.30826e-07 -0.00175812 -4.30826e-07)
(-1.17386e-08 -4.7903e-05 -1.17386e-08)
(-3.17523e-10 -1.29575e-06 -3.17523e-10)
(-1.15818e-08 -4.7263e-05 -1.15818e-08)
(-1.17332e-08 -4.78811e-05 -1.17332e-08)
(-4.79433e-10 -1.95647e-06 -4.79433e-10)
(-6.44414e-12 -2.62973e-08 -6.44414e-12)
(-2.33529e-10 -9.52985e-07 -2.33529e-10)
(-2.39635e-10 -9.77903e-07 -2.39635e-10)
(-1.30559e-11 -5.32785e-08 -1.30559e-11)
(-1.16255e-13 -4.74413e-10 -1.16255e-13)
(-4.18545e-12 -1.708e-08 -4.18545e-12)
(-4.34957e-12 -1.77498e-08 -4.34957e-12)
(-2.96266e-13 -1.209e-09 -2.96266e-13)
(-1.96555e-15 -8.02103e-12 -1.96555e-15)
(-7.03078e-14 -2.86913e-10 -7.03078e-14)
(-7.39828e-14 -3.01909e-10 -7.39828e-14)
(-6.04853e-15 -2.46829e-11 -6.04853e-15)
(0 0 0)
(0 0 0)
(0 0 0)
(0 0 0)
(0 0 0)
(0 0 0)
(0 0 0)
(0 0 0)
(0 0 0)
(0 0 0)
(0 0 0)
(0 0 0)
(0 0 0)
(0 0 0)
(0 0 0)
(0 0 0)
(0 0 0)
(0 0 0)
(0 0 0)
(0 0 0)
(0 0 0)
(0 0 0)
(0 0 0)
(0 0 0)
(0 0 0)
(0 0 0)
(0 0 0)
(0 0 0)
(0 0 0)
(0 0 0)
(0 0 0)
(0 0 0)
(0 0 0)
(0 0 0)
(0 0 0)
(0 0 0)
(0 0 0)
(0 0 0)
(0 0 0)
(0 0 0)
)
;

boundaryField
{
    inlet
    {
        type            zeroGradient;
    }
    outlet
    {
        type            zeroGradient;
    }
    walls
    {
        type            zeroGradient;
    }
}


// ************************************************************************* //
