/*--------------------------------*- C++ -*----------------------------------*\
| =========                 |                                                 |
| \\      /  F ield         | OpenFOAM: The Open Source CFD Toolbox           |
|  \\    /   O peration     | Version:  5.x                                   |
|   \\  /    A nd           | Web:      www.OpenFOAM.org                      |
|    \\/     M anipulation  |                                                 |
\*---------------------------------------------------------------------------*/
FoamFile
{
    version     2.0;
    format      ascii;
    class       volScalarField;
    location    "0.03";
    object      interFace;
}
// * * * * * * * * * * * * * * * * * * * * * * * * * * * * * * * * * * * * * //

dimensions      [0 0 0 0 0 0 0];

internalField   nonuniform List<scalar> 
1553
(
0
0
0
0
0
0
0
0
0
0
0
0
0
0
0
0
0
0
0
0
0
0
0
0
0
0
0
0
0
0
0
0
0
0
0
0
0
0
0
0
0
0
0
0
0
0
0
0
0
0
0
0
0
0
0
0
0
0
0
0
0
0
0
0
0
0
0
0
0
0
0
0
0
0
0
0
0
0
0
0
0
0
0
0
0
0
0
0
0
0
0
0
0
0
0
0
0
0
0
0
0
0
0
0
0
0
0
0
0
0
0
0
0
0
0
0
0
0
0
0
0
0
0
0
0
0
0
0
0
0
0
0
0
0
0
0
0
0
0
0
0
0
0
0
0
0
0
0
0
0
0
0
0
0
0
0
0
0
0
0
0
0
0
0
0
0
0
0
0
0
0
0
0
0
0
0
0
0
0
0
0
0
0
0
0
0
0
0
0
0
0
0
0
0
0
0
0
0
0
0
0
0
0
0
0
0
0
0
0
0
0
0
0
0
0
0
0
0
0
0
0
0
0
0
0
0
0
0
0
0
0
0
0
0
0
0
0
0
0
0
0
0
0
0
0
0
0
0
0
0
0
0
0
0
0
0
0
0
0
0
0
0
0
0
0
0
0
0
0
0
0
0
0
0
0
0
0
0
0
0
0
0
0
0
0
0
0
0
0
0
0
0
0
0
0
0
0
0
0
0
0
0
0
0
0
0
0
0
0
0
0
0
0
0
0
0
0
0
0
0
0
0
0
0
0
0
0
0
0
0
0
0
0
0
0
0
0
0
0
0
0
0
0
0
0
0
0
0
0
0
0
0
0
0
0
0
0
0
0
0
0
0
0
0
0
0
0
0
0
0
0
0
0
0
0
0
0
0
0
0
0
0
0
0
0
0
0
0
0
0
0
0
0
0
0
0
0
0
0
0
0
0
0
0
0
0
0
0
0
0
0
0
0
0
0
0
0
0
0
0
0
0
0
0
0
0
0
0
0
0
0
0
0
0
0
0
0
0
0
0
0
0
0
0
0
0
0
0
0
0
0
0
0
0
0
0
0
0
0
0
0
0
0
0
0
0
0
0
0
0
0
0
0
0
0
0
0
0
0
0
0
0
0
0
0
0
0
0
0
0
0
0
0
0
0
0
0
0
0
0
0
0
0
0
0
0
0
0
0
0
0
0
0
0
0
0
0
0
0
0
0
0
0
0
0
0
0
0
0
0
0
0
0
0
0
0
0
0
0
0
0
0
0
0
0
0
0
0
0
0
0
0
0
0
0
0
0
0
0
0
0
0
0
0
0
0
0
0
0
0
0
0
0
0
0
0
0
0
0
0
0
0
0
0
0
0
0
0
0
0
0
0
0
0
0
0
0
0
0
0
0
0
0
0
0
0
0
0
0
0
0
0
0
0
0
0
0
0
0
0
0
0
0
0
0
0
0
0
0
0
0
0
0
0
0
0
0
0
0
0
0
0
0
0
0
0
0
0
0
0
0
0
0
0
0
0
0
0
0
0
0
0
0
0
0
0
0
0
0
0
0
0
0
0
0
0
0
0
0
0
0
0
0
0
0
0
0
0
0
0
0
0
0
0
0
0
0
0
0
0
0
0
0
0
0
0
0
0
0
0
0
0
0
0
0
0
0
0
0
0
0
0
0
0
0
0
0
0
0
0
0
0
0
0
0
0
0
0
0
0
0
0
0
0
0
0.974683
0
0
0
0
0
0
0
0
0
0
0
0
0
0
0
0
0
0
0
0
0
0
0
0
0.397368
0.83354
0
0
0
0
0
0
0
0
0
0
0
0
0
0
0
0
0
0
0
0
0
0
0
0.34586
0.871673
0
0
0
0
0
0
0
0
0
0
0
0
0
0
0
0
0
0
0
0
0
0
0
0
0
0
0
0
0
0
0
0
0
0
0
0
0
0
0
0
0
0
0
0
0
0
0
0
0.605256
0
0
0
0
0
0
0
0
0
0
0
0
0
0
0
0
0
0
0
0
0
0
0
0
0.280941
0.729153
0
0
0
0
0
0
0
0
0
0
0
0
0
0
0
0
0
0
0
0
0
0
0
0.673755
0
0
0
0
0
0
0
0
0
0
0
0
0
0
0
0
0
0
0
0
0
0
0
0
0
0
0
0
0
0
0
0
0
0
0
0
0
0
0
0
0
0
0
0
0
0
0
0
0
0
0
0
0
0
0
0
0
0
0
0
0
0
0
0
0
0
0
0
0
0
0
0
0
0
0
0
0
0
0
0
0
0
0
0
0
0
0
0
0
0
0
0
0
0
0
0
0
0
0
0
0
0
0
0
0
0.576649
0.833534
0
0
0.470787
0.739715
0.666296
0.12845
0.397378
0.291506
0.560434
0.0225881
0.291516
0
0.576662
0
0.739718
0
0.4708
0
0
0.525141
0.871667
0
0
0.980371
0
0.614788
0.0769419
0.34587
0.777845
0
0.508926
0.777854
0
0.525153
0
0
0
0.980384
0
0
0.909803
0
0.855735
0
0.676456
0.855741
0
0.828035
0
0
0
0.474069
0.742998
0.874184
0.336338
0.605266
0.294789
0.563717
0.0258708
0.294799
0
0.828049
0
0.743001
0
0.474083
0
0
0.460221
0.72915
0
0
0.687601
0.924233
0
0
0
0
0
0
0
0.549869
0.012023
0.280951
0.508321
0.777249
0.239403
0.508331
0
0.460235
0
0.92424
0
0.687615
0
0
0
0
0
0
0
0
0.896541
0.404837
0.673765
0
0
0
0
0
0
0
0
0
0
0
0.355397
0.390682
0.2114
0.445034
0.256222
0.489857
0.310574
0.222276
0.325763
0.146481
0.311914
0.191303
0.356736
0.177454
0.794372
0.718577
0.539295
0.88401
0.584117
0.928832
0.74955
0.192335
0.281973
0.336328
0.157046
0.326795
0.201869
0.147513
0.281978
0.550901
0.425971
0.425974
0.416438
0.416441
0.291511
0.102696
0.0130549
0.067407
0.0674102
0.112229
0.0578738
0.057877
0.192338
0.281983
0.336335
0.157053
0.326802
0.201872
0.14752
0.893238
0.749242
0.569963
0.624315
0.794064
0.669137
0.848416
0.445039
0.480325
0.480328
0.713962
0.345865
0.579499
0.579502
0.265757
0.121761
0.121764
0.176116
0.166583
0.220935
0.220938
0.3554
0.390689
0.211407
0.445044
0.256225
0.489863
0.310581
0.499391
0.589029
0.822667
0.643385
0.633851
0.688207
0.454569
0.589034
0.857957
0.912309
0.912313
0.723494
0.723497
0.777849
0.409752
0.320111
0.553745
0.553748
0.598567
0.36493
0.364933
0.499395
0.589039
0.822673
0.643391
0.633858
0.68821
0.454576
0.893251
0.569972
0.749258
0.624328
0.794077
0.669147
0.848432
0.26382
0.353457
0.339611
0.160329
0.398279
0.205151
0.218997
0.17418
0.0845393
0.0706896
0.0706931
0.115512
0.129358
0.129361
0.263823
0.353468
0.339618
0.160336
0.398286
0.205155
0.219004
0.760117
0.684322
0.505044
0.491194
0.729145
0.536016
0.715295
0.83591
0.566987
0.911702
0.732423
0.611809
0.956524
0.791088
0.311919
0.415406
0.415409
0.580842
0.280946
0.446379
0.446382
0.132637
0.0568418
0.0568452
0.0429956
0.101664
0.0878144
0.0878178
0.222279
0.32577
0.146488
0.311924
0.191307
0.356743
0.177461
0.298069
0.387707
0.553143
0.373861
0.432529
0.418683
0.253247
0.387712
0.656635
0.642786
0.642789
0.522172
0.522175
0.508326
0.20843
0.118789
0.284221
0.284225
0.329044
0.163608
0.163611
0.298073
0.387717
0.55315
0.373868
0.432536
0.418686
0.253254
0.760131
0.505054
0.684339
0.491208
0.729158
0.536027
0.715312
0.835924
0.567001
0.732433
0.911719
0.61182
0.956538
0.791105
0.704733
0.449656
0.449659
0.615092
0.494478
0.65991
0.659914
0.794375
0.718584
0.539302
0.88402
0.584121
0.928839
0.749557
0
0.795405
0.97469
0.522297
0.791225
0.253378
0.522306
0.137983
0.173269
0.173272
0.0483422
0.218091
0.0931611
0.0931643
0.227623
0.44219
0.262908
0.31726
0.30773
0.362083
0.182801
0.730177
0.461254
0.694888
0.515609
0.506076
0.73971
0.685355
0.227626
0.442197
0.262915
0.31727
0.307734
0.362089
0.182807
0.73019
0.461266
0.515619
0.694904
0.506085
0.739723
0.685371
0.353462
0.622386
0.429254
0.429257
0.487922
0.487926
0.294794
0.317265
0.531833
0.531836
0.586188
0.397373
0.451725
0.451728
0.84977
0.953257
0.594693
0.760126
0.818798
0.98423
0.625666
0.84976
0.953251
0.594686
0.760122
0.818787
0.984223
0.625659
0.277669
0.381157
0.38116
0.188028
0.425979
0.232847
0.23285
0
0
0
0
0
0
0
0.819819
0.730182
0.963816
0.605252
0.954283
0.595718
0.829353
0.819829
0.730185
0.963822
0.605258
0.954289
0.595725
0.829362
0.367309
0.650078
0.470796
0.456946
0.515618
0.501768
0.322486
0.801661
0.532738
0.69817
0.518891
0.57756
0.742992
0.756839
0.367312
0.650085
0.470803
0.456956
0.515621
0.501775
0.322493
0.801675
0.532751
0.518902
0.698187
0.57757
0.743006
0.756856
0.298197
0.298201
0.343019
0.512768
0.423127
0.467946
0.467949
0
0
0
0
0
0.904106
0
0
0
0
0
0
0.904118
0
0.765464
0.80075
0.621471
0.496541
0.845572
0.541363
0.720642
0.765477
0.621481
0.800766
0.496554
0.845585
0.541373
0.720658
0.567119
0.387837
0.432659
0.602408
0.692046
0.736868
0.557586
0.567125
0.387843
0.432662
0.602411
0.692055
0.736874
0.557592
0.456951
0.739721
0.739724
0.725874
0.605261
0.591411
0.591415
0.656761
0.656765
0.522301
0.69205
0.960974
0.82651
0.826514
0
0
0
0
0
0
0
0.891304
0.801666
0.967098
0.608534
0
0.667203
0.832635
0.891314
0.801669
0.967105
0.608541
0
0.667209
0.832645
)
;

boundaryField
{
    inlet
    {
        type            calculated;
        value           uniform 0;
    }
    wall
    {
        type            calculated;
        value           uniform 0;
    }
    outlet
    {
        type            calculated;
        value           uniform 0;
    }
    procBoundary1to0
    {
        type            processor;
        value           uniform 0;
    }
    procBoundary1to3
    {
        type            processor;
        value           uniform 0;
    }
}


// ************************************************************************* //
