/*--------------------------------*- C++ -*----------------------------------*\
| =========                 |                                                 |
| \\      /  F ield         | OpenFOAM: The Open Source CFD Toolbox           |
|  \\    /   O peration     | Version:  5.x                                   |
|   \\  /    A nd           | Web:      www.OpenFOAM.org                      |
|    \\/     M anipulation  |                                                 |
\*---------------------------------------------------------------------------*/
FoamFile
{
    version     2.0;
    format      ascii;
    class       surfaceScalarField;
    location    "0.05";
    object      phi;
}
// * * * * * * * * * * * * * * * * * * * * * * * * * * * * * * * * * * * * * //

dimensions      [0 3 -1 0 0 0 0];

internalField   nonuniform List<scalar> 
384
(
-2.57984e-13
1.35519e-12
-2.57984e-13
-7.65627e-14
2.84117e-13
-4.35813e-13
1.07385e-13
1.23959e-13
-4.12409e-13
8.02867e-13
-3.8078e-13
-8.47166e-13
1.84401e-12
-8.47166e-13
-2.37217e-13
1.46263e-13
-1.7532e-12
3.48765e-13
1.48409e-14
-1.61392e-12
1.2093e-12
-1.36569e-12
-1.94752e-12
2.92146e-12
-1.94752e-12
-4.0513e-13
-3.85541e-13
-4.35734e-12
1.04797e-12
-4.62499e-13
-3.76442e-12
2.16818e-12
-3.01588e-12
-3.44236e-12
4.61325e-12
-3.44236e-12
-5.58029e-13
-1.11153e-12
-1.04086e-11
2.00101e-12
-1.02361e-12
-8.46826e-12
3.77168e-12
-5.77647e-12
-7.14317e-12
7.56577e-12
-7.14317e-12
-8.60944e-13
-2.84504e-12
-2.61018e-11
5.28566e-12
-2.93534e-12
-1.99395e-11
6.97944e-12
-1.20938e-11
-1.21173e-11
1.24047e-11
-1.21173e-11
-2.83298e-13
-5.77301e-12
-6.21793e-11
9.03551e-12
-3.72386e-12
-4.41174e-11
1.24779e-11
-2.04689e-11
-1.82377e-11
1.69989e-11
-1.82377e-11
-3.19289e-12
-1.08514e-11
-1.35812e-10
1.79195e-11
-8.33164e-12
-1.0054e-10
1.67151e-11
-3.44865e-11
-4.17064e-11
2.49144e-11
-4.17064e-11
5.12856e-12
-1.07331e-11
-5.06164e-10
3.61931e-11
1.01253e-11
-3.06593e-10
3.56065e-11
-6.90088e-11
-3.02917e-11
3.10287e-11
-3.02917e-11
-6.16106e-12
-3.21879e-11
-3.34514e-10
4.30452e-11
2.50624e-11
-2.99733e-10
3.71551e-11
-4.65939e-11
3.7196e-11
3.7196e-11
-3.93949e-12
4.60081e-10
-2.7608e-11
2.6146e-10
6.05613e-11
-4.35813e-13
2.84117e-13
-7.65627e-14
-8.72459e-14
-2.10311e-12
-8.72459e-14
1.465e-13
-1.91659e-12
-1.13265e-13
-8.69988e-13
-1.4209e-13
-1.7532e-12
1.46263e-13
-2.37217e-13
-2.77947e-13
-5.05362e-12
-2.77947e-13
6.39196e-13
-4.08879e-12
-3.5886e-13
-1.70812e-12
-4.33568e-13
-4.35734e-12
-3.85541e-13
-4.0513e-13
-3.65398e-13
-1.30375e-11
-3.65398e-13
1.98906e-12
-9.64136e-12
-5.66281e-13
-3.52902e-12
-7.55902e-13
-1.04086e-11
-1.11153e-12
-5.58029e-13
-2.88598e-13
-3.32775e-11
-2.88598e-13
5.27931e-12
-2.29872e-11
-6.90288e-13
-6.93101e-12
-9.69356e-13
-2.61018e-11
-2.84504e-12
-8.60944e-13
1.25705e-12
-8.79952e-11
1.25705e-12
1.54483e-11
-5.65361e-11
-5.81873e-13
-1.30759e-11
-1.15846e-12
-6.21793e-11
-5.77301e-12
-2.83298e-13
1.04109e-11
-2.33176e-10
1.04109e-11
4.07402e-11
-1.33571e-10
2.58875e-12
-1.8251e-11
-5.94862e-13
-1.35812e-10
-1.08514e-11
-3.19289e-12
1.93256e-11
-5.43452e-10
1.93256e-11
1.00503e-10
-3.16215e-10
9.26029e-13
-2.2533e-11
1.02236e-12
-5.06164e-10
-1.07331e-11
5.12856e-12
1.61061e-10
-1.8779e-09
1.61061e-10
3.92222e-10
-9.05593e-10
5.16244e-11
6.60853e-11
1.23002e-11
-3.34514e-10
-3.21879e-11
-6.16106e-12
4.71683e-11
-2.64127e-09
4.71683e-11
3.05405e-10
-1.42882e-09
-3.47437e-11
8.762e-11
4.89101e-12
4.60081e-10
-3.93949e-12
-1.59978e-10
-1.59978e-10
-3.49303e-10
-5.47248e-11
-1.39909e-11
-4.12409e-13
1.23959e-13
1.07385e-13
-1.13265e-13
-1.91659e-12
1.465e-13
1.28535e-13
-2.02446e-12
1.28535e-13
-9.42655e-13
1.05537e-14
-1.61392e-12
1.48409e-14
3.48765e-13
-3.5886e-13
-4.08879e-12
6.39196e-13
5.97127e-13
-3.93643e-12
5.97127e-13
-1.43958e-12
1.05659e-13
-3.76442e-12
-4.62499e-13
1.04797e-12
-5.66281e-13
-9.64136e-12
1.98906e-12
1.81207e-12
-8.69311e-12
1.81207e-12
-2.40198e-12
4.53257e-13
-8.46826e-12
-1.02361e-12
2.00101e-12
-6.90288e-13
-2.29872e-11
5.27931e-12
4.91159e-12
-1.98969e-11
4.91159e-12
-3.68574e-12
1.20154e-12
-1.99395e-11
-2.93534e-12
5.28566e-12
-5.81873e-13
-5.65361e-11
1.54483e-11
1.36384e-11
-4.83373e-11
1.36384e-11
-5.93471e-12
3.94324e-12
-4.41174e-11
-3.72386e-12
9.03551e-12
2.58875e-12
-1.33571e-10
4.07402e-11
3.24358e-11
-1.08031e-10
3.24358e-11
-6.42813e-12
7.70156e-12
-1.0054e-10
-8.33164e-12
1.79195e-11
9.26029e-13
-3.16215e-10
1.00503e-10
9.10796e-11
-2.88338e-10
9.10796e-11
-4.38466e-12
1.53372e-11
-3.06593e-10
1.01253e-11
3.61931e-11
5.16244e-11
-9.05593e-10
3.92222e-10
2.61634e-10
-7.08359e-10
2.61634e-10
4.83585e-11
4.26871e-11
-2.99733e-10
2.50624e-11
4.30452e-11
-3.47437e-11
-1.42882e-09
3.05405e-10
3.14454e-10
-1.40675e-09
3.14454e-10
2.64365e-11
3.2736e-11
2.6146e-10
-2.7608e-11
-5.47248e-11
-3.49303e-10
-2.14745e-10
-2.14745e-10
-4.10647e-11
-3.8078e-13
8.02867e-13
-1.4209e-13
-8.69988e-13
1.05537e-14
-9.42655e-13
-6.18551e-13
-1.36569e-12
1.2093e-12
-4.33568e-13
-1.70812e-12
1.05659e-13
-1.43958e-12
-7.32808e-13
-3.01588e-12
2.16818e-12
-7.55902e-13
-3.52902e-12
4.53257e-13
-2.40198e-12
-7.71682e-13
-5.77647e-12
3.77168e-12
-9.69356e-13
-6.93101e-12
1.20154e-12
-3.68574e-12
-3.36719e-13
-1.20938e-11
6.97944e-12
-1.15846e-12
-1.30759e-11
3.94324e-12
-5.93471e-12
1.51684e-12
-2.04689e-11
1.24779e-11
-5.94862e-13
-1.8251e-11
7.70156e-12
-6.42813e-12
7.30575e-12
-3.44865e-11
1.67151e-11
1.02236e-12
-2.2533e-11
1.53372e-11
-4.38466e-12
1.47677e-11
-6.90088e-11
3.56065e-11
1.23002e-11
6.60853e-11
4.26871e-11
4.83585e-11
4.99854e-11
-4.65939e-11
3.71551e-11
4.89101e-12
8.762e-11
3.2736e-11
2.64365e-11
5.99821e-11
6.05613e-11
-1.39909e-11
-4.10647e-11
)
;

boundaryField
{
    inlet
    {
        type            calculated;
        value           nonuniform 0();
    }
    outlet
    {
        type            calculated;
        value           nonuniform List<scalar> 
16
(
-1.19364e-12
-3.43201e-13
-1.84131e-13
-6.7499e-13
-3.43201e-13
1.40596e-12
1.38369e-12
6.4402e-13
-1.84131e-13
1.38369e-12
1.54085e-12
7.88e-13
-6.7499e-13
6.4402e-13
7.88e-13
5.63303e-13
)
;
    }
    walls
    {
        type            calculated;
        value           nonuniform List<scalar> 
160
(
1.77203e-13
6.02761e-13
1.40879e-12
2.59647e-12
5.66691e-12
9.69786e-12
1.59406e-11
3.77487e-11
2.72345e-11
-3.52532e-11
3.13475e-13
1.28111e-12
3.34676e-12
8.25028e-12
2.15531e-11
5.32732e-11
1.25846e-10
4.59211e-10
3.31838e-10
-4.14097e-10
2.88633e-13
1.13707e-12
2.78866e-12
6.47034e-12
1.57046e-11
3.55871e-11
8.4035e-11
2.57071e-10
2.3559e-10
-2.21389e-10
2.56806e-13
9.46793e-13
2.16567e-12
4.36925e-12
9.57473e-12
1.6728e-11
3.12403e-11
6.01647e-11
4.55715e-11
-5.11609e-11
1.03475e-13
3.61239e-13
9.39312e-13
1.80474e-12
4.59695e-12
7.27801e-12
1.69284e-11
2.61458e-11
4.2519e-11
-1.71197e-11
1.33771e-13
5.4521e-13
1.54998e-12
3.8742e-12
1.06578e-11
2.60413e-11
6.92762e-11
2.22295e-10
2.32386e-10
-1.86538e-10
1.30542e-13
5.54835e-13
1.56532e-12
4.02446e-12
1.07856e-11
2.46327e-11
7.47213e-11
1.78504e-10
3.08531e-10
-1.32082e-10
3.81764e-14
1.62786e-13
4.72696e-13
9.8405e-13
3.01646e-12
4.8071e-12
1.16062e-11
2.50783e-11
2.77377e-11
-2.4084e-11
1.77203e-13
6.02761e-13
1.40879e-12
2.59647e-12
5.66691e-12
9.69786e-12
1.59406e-11
3.77487e-11
2.72345e-11
-3.52532e-11
3.13475e-13
1.28111e-12
3.34676e-12
8.25028e-12
2.15531e-11
5.32732e-11
1.25846e-10
4.59211e-10
3.31838e-10
-4.14097e-10
2.88633e-13
1.13707e-12
2.78866e-12
6.47034e-12
1.57046e-11
3.55871e-11
8.4035e-11
2.57071e-10
2.3559e-10
-2.21389e-10
2.56806e-13
9.46793e-13
2.16567e-12
4.36925e-12
9.57473e-12
1.6728e-11
3.12403e-11
6.01647e-11
4.55715e-11
-5.11609e-11
1.03475e-13
3.61239e-13
9.39312e-13
1.80474e-12
4.59695e-12
7.27801e-12
1.69284e-11
2.61458e-11
4.2519e-11
-1.71197e-11
1.33771e-13
5.4521e-13
1.54998e-12
3.8742e-12
1.06578e-11
2.60413e-11
6.92762e-11
2.22295e-10
2.32386e-10
-1.86538e-10
1.30542e-13
5.54835e-13
1.56532e-12
4.02446e-12
1.07856e-11
2.46327e-11
7.47213e-11
1.78504e-10
3.08531e-10
-1.32082e-10
3.81764e-14
1.62786e-13
4.72696e-13
9.8405e-13
3.01646e-12
4.8071e-12
1.16062e-11
2.50783e-11
2.77377e-11
-2.4084e-11
)
;
    }
    procBoundary0to1
    {
        type            processor;
        value           nonuniform List<scalar> 
16
(
2.71433e-11
-3.70365e-11
8.66004e-12
1.72663e-11
-3.70365e-11
-1.40115e-09
-9.2331e-10
-5.92202e-13
8.66004e-12
-9.2331e-10
-1.08671e-09
-2.91532e-11
1.72663e-11
-5.92202e-13
-2.91532e-11
2.60208e-11
)
;
    }
}


// ************************************************************************* //
