/*--------------------------------*- C++ -*----------------------------------*\
| =========                 |                                                 |
| \\      /  F ield         | OpenFOAM: The Open Source CFD Toolbox           |
|  \\    /   O peration     | Version:  5.x                                   |
|   \\  /    A nd           | Web:      www.OpenFOAM.org                      |
|    \\/     M anipulation  |                                                 |
\*---------------------------------------------------------------------------*/
FoamFile
{
    version     2.0;
    format      ascii;
    class       volVectorField;
    location    "0.05";
    object      U;
}
// * * * * * * * * * * * * * * * * * * * * * * * * * * * * * * * * * * * * * //

dimensions      [0 1 -1 0 0 0 0];

internalField   nonuniform List<vector> 
160
(
(-3.04748e-08 1.91685e-07 -3.04748e-08)
(-3.71535e-08 5.63907e-08 -5.42617e-08)
(1.10811e-08 3.14217e-08 -4.97362e-08)
(1.66613e-08 1.08363e-07 -4.47064e-08)
(-1.02027e-07 2.34971e-07 -1.02027e-07)
(-1.23213e-07 2.14394e-08 -2.21321e-07)
(3.98565e-08 -1.44993e-09 -1.96181e-07)
(5.65237e-08 1.39897e-07 -1.64153e-07)
(-2.39197e-07 3.73458e-07 -2.39197e-07)
(-2.72145e-07 3.55227e-08 -5.74635e-07)
(1.27552e-07 2.18988e-08 -4.75831e-07)
(1.52199e-07 2.61377e-07 -3.74115e-07)
(-4.35556e-07 5.07621e-07 -4.35556e-07)
(-4.78502e-07 -1.99212e-07 -1.41372e-06)
(2.68623e-07 -2.20923e-07 -1.10004e-06)
(2.89501e-07 3.82153e-07 -7.52547e-07)
(-9.36067e-07 9.53895e-07 -9.36067e-07)
(-1.00449e-06 -2.36107e-07 -3.67526e-06)
(7.1246e-07 -6.59096e-08 -2.65706e-06)
(7.42624e-07 8.35695e-07 -1.63394e-06)
(-1.62442e-06 1.35325e-06 -1.62442e-06)
(-1.52449e-06 -2.86577e-07 -9.08612e-06)
(1.36773e-06 -6.97347e-07 -6.03125e-06)
(1.18667e-06 1.32896e-06 -2.87136e-06)
(-2.54978e-06 2.19263e-06 -2.54978e-06)
(-3.07566e-06 -2.43323e-06 -2.08293e-05)
(2.34798e-06 -1.02295e-06 -1.38392e-05)
(2.71861e-06 2.08569e-06 -5.19648e-06)
(-6.23363e-06 2.98092e-06 -6.23363e-06)
(-4.81607e-06 4.46845e-07 -7.81958e-05)
(5.97474e-06 -6.43312e-07 -4.35525e-05)
(4.30189e-06 3.92191e-06 -1.02651e-05)
(-4.32377e-06 4.23082e-06 -4.32377e-06)
(-6.39633e-06 -4.98582e-06 -5.34722e-05)
(5.13522e-06 2.76727e-06 -3.78409e-05)
(6.87043e-06 6.15151e-06 -7.38674e-06)
(5.83084e-06 4.84418e-06 5.83084e-06)
(3.97331e-06 -7.82889e-06 7.10974e-05)
(-4.85752e-06 2.71551e-06 3.78538e-05)
(-2.84625e-06 4.53481e-06 8.8423e-06)
(-5.42617e-08 5.63907e-08 -3.71535e-08)
(-5.62678e-08 -2.27532e-07 -5.62678e-08)
(1.97576e-08 -2.2304e-07 -5.72458e-08)
(2.14407e-08 -1.04515e-07 -5.27648e-08)
(-2.21321e-07 2.14394e-08 -1.23213e-07)
(-2.17634e-07 -5.16101e-07 -2.17634e-07)
(9.47296e-08 -4.43757e-07 -2.16448e-07)
(8.75197e-08 -1.97062e-07 -1.81932e-07)
(-5.74635e-07 3.55227e-08 -2.72145e-07)
(-5.0795e-07 -1.18982e-06 -5.0795e-07)
(3.23089e-07 -9.12172e-07 -4.87953e-07)
(2.51903e-07 -3.35535e-07 -3.84067e-07)
(-1.41372e-06 -1.99212e-07 -4.78502e-07)
(-1.14659e-06 -3.3822e-06 -1.14659e-06)
(9.25969e-07 -2.46918e-06 -1.05699e-06)
(6.31851e-07 -8.9405e-07 -6.82793e-07)
(-3.67526e-06 -2.36107e-07 -1.00449e-06)
(-2.7253e-06 -8.06576e-06 -2.7253e-06)
(2.75342e-06 -5.1215e-06 -2.40722e-06)
(1.75457e-06 -1.29312e-06 -1.36833e-06)
(-9.08612e-06 -2.86577e-07 -1.52449e-06)
(-5.94743e-06 -1.79726e-05 -5.94743e-06)
(7.61514e-06 -1.22953e-05 -5.00423e-06)
(4.33095e-06 -2.29427e-06 -2.1014e-06)
(-2.08293e-05 -2.43323e-06 -3.07566e-06)
(-1.43896e-05 -7.31843e-05 -1.43896e-05)
(1.81137e-05 -3.95238e-05 -1.31963e-05)
(1.12895e-05 -5.31621e-06 -3.61962e-06)
(-7.81958e-05 4.46845e-07 -4.81607e-06)
(-4.21154e-05 -5.6107e-05 -4.21154e-05)
(7.46732e-05 -3.71753e-05 -3.2176e-05)
(3.74673e-05 1.33753e-06 -6.33499e-06)
(-5.34722e-05 -4.98582e-06 -6.39633e-06)
(-4.03306e-05 -0.000584492 -4.03306e-05)
(5.21732e-05 -0.000276724 -4.9144e-05)
(3.73003e-05 1.50837e-05 -5.56385e-06)
(7.10974e-05 -7.82889e-06 3.97331e-06)
(3.59461e-05 -0.00029025 3.59461e-05)
(-6.78143e-05 -0.000208121 2.51154e-05)
(-3.17274e-05 5.95294e-06 5.31359e-06)
(-4.97362e-08 3.14217e-08 1.10811e-08)
(-5.72458e-08 -2.2304e-07 1.97576e-08)
(1.38969e-08 -2.47953e-07 1.38969e-08)
(2.0846e-08 -1.26994e-07 -1.81646e-09)
(-1.96181e-07 -1.44993e-09 3.98565e-08)
(-2.16448e-07 -4.43757e-07 9.47296e-08)
(7.33024e-08 -4.45372e-07 7.33024e-08)
(8.91511e-08 -1.94781e-07 1.00189e-08)
(-4.75831e-07 2.18988e-08 1.27552e-07)
(-4.87953e-07 -9.12172e-07 3.23089e-07)
(2.47747e-07 -8.35805e-07 2.47747e-07)
(2.53947e-07 -2.38014e-07 6.95275e-08)
(-1.10004e-06 -2.20923e-07 2.68623e-07)
(-1.05699e-06 -2.46918e-06 9.25969e-07)
(7.27606e-07 -2.18657e-06 7.27606e-07)
(6.54938e-07 -6.01466e-07 2.42878e-07)
(-2.65706e-06 -6.59096e-08 7.1246e-07)
(-2.40722e-06 -5.1215e-06 2.75342e-06)
(2.06549e-06 -4.0754e-06 2.06549e-06)
(1.76788e-06 -5.61142e-07 7.79665e-07)
(-6.03125e-06 -6.97347e-07 1.36773e-06)
(-5.00423e-06 -1.22953e-05 7.61514e-06)
(5.22701e-06 -1.17582e-05 5.22701e-06)
(4.05337e-06 -9.12033e-07 1.63214e-06)
(-1.38392e-05 -1.02295e-06 2.34798e-06)
(-1.31963e-05 -3.95238e-05 1.81137e-05)
(1.31869e-05 -2.87283e-05 1.31869e-05)
(1.21888e-05 -2.07184e-06 3.56826e-06)
(-4.35525e-05 -6.43312e-07 5.97474e-06)
(-3.2176e-05 -3.71753e-05 7.46732e-05)
(4.21591e-05 -4.50967e-05 4.21591e-05)
(2.98939e-05 1.80943e-06 8.33297e-06)
(-3.78409e-05 2.76727e-06 5.13522e-06)
(-4.9144e-05 -0.000276724 5.21732e-05)
(3.99634e-05 -0.000190855 3.99634e-05)
(4.96146e-05 1.0304e-05 6.58681e-06)
(3.78538e-05 2.71551e-06 -4.85752e-06)
(2.51154e-05 -0.000208121 -6.78143e-05)
(-3.5838e-05 -0.00027389 -3.5838e-05)
(-2.24568e-05 -4.63711e-06 -7.7113e-06)
(-4.47064e-08 1.08363e-07 1.66613e-08)
(-5.27648e-08 -1.04515e-07 2.14407e-08)
(-1.81646e-09 -1.26994e-07 2.0846e-08)
(5.38056e-09 -9.10228e-08 5.38056e-09)
(-1.64153e-07 1.39897e-07 5.65237e-08)
(-1.81932e-07 -1.97062e-07 8.75197e-08)
(1.00189e-08 -1.94781e-07 8.91511e-08)
(2.38843e-08 -1.19131e-07 2.38843e-08)
(-3.74115e-07 2.61377e-07 1.52199e-07)
(-3.84067e-07 -3.35535e-07 2.51903e-07)
(6.95275e-08 -2.38014e-07 2.53947e-07)
(7.26699e-08 -9.87668e-08 7.26699e-08)
(-7.52547e-07 3.82153e-07 2.89501e-07)
(-6.82793e-07 -8.9405e-07 6.31851e-07)
(2.42878e-07 -6.01466e-07 6.54938e-07)
(1.53955e-07 -1.76247e-07 1.53955e-07)
(-1.63394e-06 8.35695e-07 7.42624e-07)
(-1.36833e-06 -1.29312e-06 1.75457e-06)
(7.79665e-07 -5.61142e-07 1.76788e-06)
(4.80993e-07 8.29549e-08 4.80993e-07)
(-2.87136e-06 1.32896e-06 1.18667e-06)
(-2.1014e-06 -2.29427e-06 4.33095e-06)
(1.63214e-06 -9.12033e-07 4.05337e-06)
(7.92164e-07 4.90252e-07 7.92164e-07)
(-5.19648e-06 2.08569e-06 2.71861e-06)
(-3.61962e-06 -5.31621e-06 1.12895e-05)
(3.56826e-06 -2.07184e-06 1.21888e-05)
(1.84072e-06 1.30063e-06 1.84072e-06)
(-1.02651e-05 3.92191e-06 4.30189e-06)
(-6.33499e-06 1.33753e-06 3.74673e-05)
(8.33297e-06 1.80943e-06 2.98939e-05)
(4.19714e-06 4.62621e-06 4.19714e-06)
(-7.38674e-06 6.15151e-06 6.87043e-06)
(-5.56385e-06 1.50837e-05 3.73003e-05)
(6.58681e-06 1.0304e-05 4.96146e-05)
(4.43952e-06 9.50546e-06 4.43952e-06)
(8.8423e-06 4.53481e-06 -2.84625e-06)
(5.31359e-06 5.95294e-06 -3.17274e-05)
(-7.7113e-06 -4.63711e-06 -2.24568e-05)
(-4.071e-06 7.18038e-06 -4.071e-06)
)
;

boundaryField
{
    inlet
    {
        type            fixedValue;
        value           nonuniform 0();
    }
    outlet
    {
        type            zeroGradient;
    }
    walls
    {
        type            fixedValue;
        value           uniform (0 0 0);
    }
    procBoundary0to1
    {
        type            processor;
        value           nonuniform List<vector> 
16
(
(5.84777e-06 2.87855e-06 5.84777e-06)
(7.71511e-06 -2.79934e-06 6.71054e-05)
(-6.11928e-06 -1.23951e-07 4.68275e-05)
(-7.6065e-06 1.77504e-06 1.02615e-05)
(6.71054e-05 -2.79934e-06 7.71511e-06)
(4.91782e-05 -8.51807e-05 4.91782e-05)
(-6.40237e-05 -4.71065e-05 5.62011e-05)
(-4.40791e-05 -4.4882e-06 7.47332e-06)
(4.68275e-05 -1.23951e-07 -6.11928e-06)
(5.62011e-05 -4.71065e-05 -6.40237e-05)
(-4.79626e-05 -3.93591e-05 -4.79626e-05)
(-5.53637e-05 -2.41598e-06 -8.45378e-06)
(1.02615e-05 1.77504e-06 -7.6065e-06)
(7.47332e-06 -4.4882e-06 -4.40791e-05)
(-8.45378e-06 -2.41598e-06 -5.53637e-05)
(-5.29582e-06 2.10555e-06 -5.29582e-06)
)
;
    }
}


// ************************************************************************* //
