/*--------------------------------*- C++ -*----------------------------------*\
| =========                 |                                                 |
| \\      /  F ield         | OpenFOAM: The Open Source CFD Toolbox           |
|  \\    /   O peration     | Version:  5.x                                   |
|   \\  /    A nd           | Web:      www.OpenFOAM.org                      |
|    \\/     M anipulation  |                                                 |
\*---------------------------------------------------------------------------*/
FoamFile
{
    version     2.0;
    format      ascii;
    class       volVectorField;
    location    "0.05";
    object      Us;
}
// * * * * * * * * * * * * * * * * * * * * * * * * * * * * * * * * * * * * * //

dimensions      [0 1 -1 0 0 0 0];

internalField   nonuniform List<vector> 
160
(
(-6.27396e-22 -2.57688e-18 -6.27396e-22)
(-4.6237e-21 -1.89907e-17 -4.6237e-21)
(-4.61911e-21 -1.89719e-17 -4.61911e-21)
(-6.01991e-22 -2.47253e-18 -6.01991e-22)
(-3.62039e-20 -1.48699e-16 -3.62039e-20)
(-2.9657e-19 -1.21809e-15 -2.9657e-19)
(-2.96367e-19 -1.21726e-15 -2.96367e-19)
(-3.49917e-20 -1.4372e-16 -3.49917e-20)
(-2.06521e-18 -8.48236e-15 -2.06521e-18)
(-1.90136e-17 -7.80937e-14 -1.90136e-17)
(-1.90051e-17 -7.80589e-14 -1.90051e-17)
(-2.00996e-18 -8.25543e-15 -2.00996e-18)
(-1.13615e-16 -4.66647e-13 -1.13615e-16)
(-1.1944e-15 -4.90571e-12 -1.1944e-15)
(-1.19408e-15 -4.9044e-12 -1.19408e-15)
(-1.11312e-16 -4.57186e-13 -1.11312e-16)
(-5.95354e-15 -2.44527e-11 -5.95354e-15)
(-7.29636e-14 -2.99681e-10 -7.29636e-14)
(-7.29531e-14 -2.99637e-10 -7.29531e-14)
(-5.86942e-15 -2.41072e-11 -5.86942e-15)
(-2.91214e-13 -1.19609e-09 -2.91214e-13)
(-4.27998e-12 -1.7579e-08 -4.27998e-12)
(-4.2797e-12 -1.75778e-08 -4.2797e-12)
(-2.88749e-13 -1.18597e-09 -2.88749e-13)
(-1.28221e-11 -5.26638e-08 -1.28221e-11)
(-2.35429e-10 -9.66966e-07 -2.35429e-10)
(-2.35424e-10 -9.66945e-07 -2.35424e-10)
(-1.27765e-11 -5.24764e-08 -1.27765e-11)
(-4.70567e-10 -1.93274e-06 -4.70567e-10)
(-1.15145e-08 -4.72929e-05 -1.15145e-08)
(-1.15144e-08 -4.72927e-05 -1.15144e-08)
(-4.70533e-10 -1.9326e-06 -4.70533e-10)
(-1.15187e-08 -4.73104e-05 -1.15187e-08)
(-4.22524e-07 -0.00173541 -4.22524e-07)
(-4.22524e-07 -0.00173541 -4.22524e-07)
(-1.15187e-08 -4.73103e-05 -1.15187e-08)
(-4.70244e-10 -1.93141e-06 -4.70244e-10)
(-1.15102e-08 -4.72753e-05 -1.15102e-08)
(-1.15102e-08 -4.72754e-05 -1.15102e-08)
(-4.70288e-10 -1.93159e-06 -4.70288e-10)
(-4.6237e-21 -1.89907e-17 -4.6237e-21)
(-3.77739e-20 -1.55147e-16 -3.77739e-20)
(-3.77239e-20 -1.54942e-16 -3.77239e-20)
(-4.44091e-21 -1.824e-17 -4.44091e-21)
(-2.9657e-19 -1.21809e-15 -2.9657e-19)
(-2.72749e-18 -1.12025e-14 -2.72749e-18)
(-2.72511e-18 -1.11927e-14 -2.72511e-18)
(-2.87298e-19 -1.18e-15 -2.87298e-19)
(-1.90136e-17 -7.80937e-14 -1.90136e-17)
(-1.99699e-16 -8.20217e-13 -1.99699e-16)
(-1.99592e-16 -8.19776e-13 -1.99592e-16)
(-1.85662e-17 -7.62562e-14 -1.85662e-17)
(-1.1944e-15 -4.90571e-12 -1.1944e-15)
(-1.46266e-14 -6.00751e-11 -1.46266e-14)
(-1.46222e-14 -6.00572e-11 -1.46222e-14)
(-1.17491e-15 -4.82566e-12 -1.17491e-15)
(-7.29636e-14 -2.99681e-10 -7.29636e-14)
(-1.07168e-12 -4.40165e-09 -1.07168e-12)
(-1.07152e-12 -4.40103e-09 -1.07152e-12)
(-7.22497e-14 -2.96748e-10 -7.22497e-14)
(-4.27998e-12 -1.7579e-08 -4.27998e-12)
(-7.85489e-11 -3.2262e-07 -7.85489e-11)
(-7.85449e-11 -3.22604e-07 -7.85449e-11)
(-4.26189e-12 -1.75047e-08 -4.26189e-12)
(-2.35429e-10 -9.66966e-07 -2.35429e-10)
(-5.75937e-09 -2.36552e-05 -5.75937e-09)
(-5.75932e-09 -2.3655e-05 -5.75932e-09)
(-2.35356e-10 -9.66667e-07 -2.35356e-10)
(-1.15145e-08 -4.72929e-05 -1.15145e-08)
(-4.22445e-07 -0.00173509 -4.22445e-07)
(-4.22445e-07 -0.00173509 -4.22445e-07)
(-1.15145e-08 -4.72929e-05 -1.15145e-08)
(-4.22524e-07 -0.00173541 -4.22524e-07)
(-3.0996e-05 -0.127309 -3.0996e-05)
(-3.0996e-05 -0.127309 -3.0996e-05)
(-4.22524e-07 -0.00173541 -4.22524e-07)
(-1.15102e-08 -4.72753e-05 -1.15102e-08)
(-4.22367e-07 -0.00173477 -4.22367e-07)
(-4.22367e-07 -0.00173477 -4.22367e-07)
(-1.15102e-08 -4.72755e-05 -1.15102e-08)
(-4.61911e-21 -1.89719e-17 -4.61911e-21)
(-3.77239e-20 -1.54942e-16 -3.77239e-20)
(-3.74623e-20 -1.53867e-16 -3.74623e-20)
(-4.20178e-21 -1.72578e-17 -4.20178e-21)
(-2.96367e-19 -1.21726e-15 -2.96367e-19)
(-2.72511e-18 -1.11927e-14 -2.72511e-18)
(-2.71151e-18 -1.11369e-14 -2.71151e-18)
(-2.74753e-19 -1.12848e-15 -2.74753e-19)
(-1.90051e-17 -7.80589e-14 -1.90051e-17)
(-1.99592e-16 -8.19776e-13 -1.99592e-16)
(-1.98921e-16 -8.17021e-13 -1.98921e-16)
(-1.79419e-17 -7.36921e-14 -1.79419e-17)
(-1.19408e-15 -4.9044e-12 -1.19408e-15)
(-1.46222e-14 -6.00572e-11 -1.46222e-14)
(-1.45924e-14 -5.99349e-11 -1.45924e-14)
(-1.147e-15 -4.71102e-12 -1.147e-15)
(-7.29531e-14 -2.99637e-10 -7.29531e-14)
(-1.07152e-12 -4.40103e-09 -1.07152e-12)
(-1.07042e-12 -4.3965e-09 -1.07042e-12)
(-7.12144e-14 -2.92496e-10 -7.12144e-14)
(-4.2797e-12 -1.75778e-08 -4.2797e-12)
(-7.85449e-11 -3.22604e-07 -7.85449e-11)
(-7.85178e-11 -3.22493e-07 -7.85178e-11)
(-4.23675e-12 -1.74014e-08 -4.23675e-12)
(-2.35424e-10 -9.66945e-07 -2.35424e-10)
(-5.75932e-09 -2.3655e-05 -5.75932e-09)
(-5.75932e-09 -2.3655e-05 -5.75932e-09)
(-2.35408e-10 -9.6688e-07 -2.35408e-10)
(-1.15144e-08 -4.72927e-05 -1.15144e-08)
(-4.22445e-07 -0.00173509 -4.22445e-07)
(-4.22445e-07 -0.00173509 -4.22445e-07)
(-1.15145e-08 -4.72929e-05 -1.15145e-08)
(-4.22524e-07 -0.00173541 -4.22524e-07)
(-3.0996e-05 -0.127309 -3.0996e-05)
(-3.0996e-05 -0.127309 -3.0996e-05)
(-4.22524e-07 -0.00173541 -4.22524e-07)
(-1.15102e-08 -4.72754e-05 -1.15102e-08)
(-4.22367e-07 -0.00173477 -4.22367e-07)
(-4.22367e-07 -0.00173477 -4.22367e-07)
(-1.15102e-08 -4.72754e-05 -1.15102e-08)
(-6.01991e-22 -2.47253e-18 -6.01991e-22)
(-4.44091e-21 -1.824e-17 -4.44091e-21)
(-4.20178e-21 -1.72578e-17 -4.20178e-21)
(-3.17293e-22 -1.3032e-18 -3.17293e-22)
(-3.49917e-20 -1.4372e-16 -3.49917e-20)
(-2.87298e-19 -1.18e-15 -2.87298e-19)
(-2.74753e-19 -1.12848e-15 -2.74753e-19)
(-2.02271e-20 -8.3078e-17 -2.02271e-20)
(-2.00996e-18 -8.25543e-15 -2.00996e-18)
(-1.85662e-17 -7.62562e-14 -1.85662e-17)
(-1.79419e-17 -7.36921e-14 -1.79419e-17)
(-1.28299e-18 -5.26958e-15 -1.28299e-18)
(-1.11312e-16 -4.57186e-13 -1.11312e-16)
(-1.17491e-15 -4.82566e-12 -1.17491e-15)
(-1.147e-15 -4.71102e-12 -1.147e-15)
(-7.91126e-17 -3.24936e-13 -7.91126e-17)
(-5.86942e-15 -2.41072e-11 -5.86942e-15)
(-7.22497e-14 -2.96748e-10 -7.22497e-14)
(-7.12144e-14 -2.92496e-10 -7.12144e-14)
(-4.68236e-15 -1.92317e-11 -4.68236e-15)
(-2.88749e-13 -1.18597e-09 -2.88749e-13)
(-4.26189e-12 -1.75047e-08 -4.26189e-12)
(-4.23675e-12 -1.74014e-08 -4.23675e-12)
(-2.59713e-13 -1.06671e-09 -2.59713e-13)
(-1.27765e-11 -5.24764e-08 -1.27765e-11)
(-2.35356e-10 -9.66667e-07 -2.35356e-10)
(-2.35408e-10 -9.6688e-07 -2.35408e-10)
(-1.27919e-11 -5.25396e-08 -1.27919e-11)
(-4.70533e-10 -1.9326e-06 -4.70533e-10)
(-1.15145e-08 -4.72929e-05 -1.15145e-08)
(-1.15145e-08 -4.72929e-05 -1.15145e-08)
(-4.70592e-10 -1.93284e-06 -4.70592e-10)
(-1.15187e-08 -4.73103e-05 -1.15187e-08)
(-4.22524e-07 -0.00173541 -4.22524e-07)
(-4.22524e-07 -0.00173541 -4.22524e-07)
(-1.15187e-08 -4.73105e-05 -1.15187e-08)
(-4.70288e-10 -1.93159e-06 -4.70288e-10)
(-1.15102e-08 -4.72755e-05 -1.15102e-08)
(-1.15102e-08 -4.72754e-05 -1.15102e-08)
(-4.70276e-10 -1.93154e-06 -4.70276e-10)
)
;

boundaryField
{
    inlet
    {
        type            zeroGradient;
    }
    outlet
    {
        type            zeroGradient;
    }
    walls
    {
        type            zeroGradient;
    }
    procBoundary0to1
    {
        type            processor;
        value           nonuniform List<vector> 
16
(
(-1.06163e-11 -4.36038e-08 -1.06163e-11)
(-2.34148e-10 -9.61706e-07 -2.34148e-10)
(-2.33127e-10 -9.57512e-07 -2.33127e-10)
(-9.52331e-12 -3.91147e-08 -9.52331e-12)
(-2.34148e-10 -9.61706e-07 -2.34148e-10)
(-5.75899e-09 -2.36537e-05 -5.75899e-09)
(-5.75715e-09 -2.36461e-05 -5.75715e-09)
(-2.322e-10 -9.53705e-07 -2.322e-10)
(-2.33127e-10 -9.57512e-07 -2.33127e-10)
(-5.75715e-09 -2.36461e-05 -5.75715e-09)
(-5.75905e-09 -2.36539e-05 -5.75905e-09)
(-2.35208e-10 -9.66062e-07 -2.35208e-10)
(-9.52331e-12 -3.91147e-08 -9.52331e-12)
(-2.322e-10 -9.53705e-07 -2.322e-10)
(-2.35208e-10 -9.66062e-07 -2.35208e-10)
(-1.28082e-11 -5.26065e-08 -1.28082e-11)
)
;
    }
}


// ************************************************************************* //
