/*--------------------------------*- C++ -*----------------------------------*\
| =========                 |                                                 |
| \\      /  F ield         | OpenFOAM: The Open Source CFD Toolbox           |
|  \\    /   O peration     | Version:  5.x                                   |
|   \\  /    A nd           | Web:      www.OpenFOAM.org                      |
|    \\/     M anipulation  |                                                 |
\*---------------------------------------------------------------------------*/
FoamFile
{
    version     2.0;
    format      ascii;
    class       volScalarField;
    location    "0.11";
    object      p;
}
// * * * * * * * * * * * * * * * * * * * * * * * * * * * * * * * * * * * * * //

dimensions      [0 2 -2 0 0 0 0];

internalField   nonuniform List<scalar> 
160
(
-8.62044e-07
-9.26297e-07
-9.67221e-07
-8.12907e-07
-8.88376e-07
-9.38662e-07
-9.56829e-07
-9.21781e-07
-1.03624e-06
-1.06789e-06
-1.10329e-06
-1.04104e-06
-1.05482e-06
-1.07581e-06
-1.08835e-06
-1.09059e-06
-1.11756e-06
-1.13693e-06
-1.15374e-06
-1.143e-06
-1.13369e-06
-1.14827e-06
-1.15637e-06
-1.16206e-06
-1.15958e-06
-1.17183e-06
-1.17852e-06
-1.18324e-06
-1.16896e-06
-1.179e-06
-1.18366e-06
-1.18964e-06
-1.17913e-06
-1.18743e-06
-1.19133e-06
-1.19698e-06
-1.18416e-06
-1.19079e-06
-1.19381e-06
-1.19893e-06
-9.26297e-07
-2.05284e-06
-1.63549e-06
-1.68159e-06
-9.38662e-07
-1.68637e-06
-1.45008e-06
-1.54424e-06
-1.06789e-06
-1.48424e-06
-1.39837e-06
-1.45844e-06
-1.07581e-06
-1.3192e-06
-1.28011e-06
-1.35615e-06
-1.13693e-06
-1.28818e-06
-1.26793e-06
-1.31476e-06
-1.14827e-06
-1.23203e-06
-1.22862e-06
-1.26845e-06
-1.17183e-06
-1.22295e-06
-1.22479e-06
-1.25012e-06
-1.179e-06
-1.20888e-06
-1.21265e-06
-1.23162e-06
-1.18743e-06
-1.20705e-06
-1.21137e-06
-1.22436e-06
-1.19079e-06
-1.20305e-06
-1.20692e-06
-1.21627e-06
-9.67221e-07
-1.63549e-06
-1.56287e-06
-1.54178e-06
-9.56829e-07
-1.45008e-06
-1.35306e-06
-1.42139e-06
-1.10329e-06
-1.39837e-06
-1.39265e-06
-1.39222e-06
-1.08835e-06
-1.28011e-06
-1.27328e-06
-1.33266e-06
-1.15374e-06
-1.26793e-06
-1.27204e-06
-1.30479e-06
-1.15637e-06
-1.22862e-06
-1.23343e-06
-1.27097e-06
-1.17852e-06
-1.22479e-06
-1.23062e-06
-1.25454e-06
-1.18366e-06
-1.21265e-06
-1.21797e-06
-1.23792e-06
-1.19133e-06
-1.21137e-06
-1.21648e-06
-1.23052e-06
-1.19381e-06
-1.20692e-06
-1.21128e-06
-1.22163e-06
-8.12907e-07
-1.68159e-06
-1.54178e-06
-1.65604e-06
-9.21781e-07
-1.54424e-06
-1.42139e-06
-1.67028e-06
-1.04104e-06
-1.45844e-06
-1.39222e-06
-1.59701e-06
-1.09059e-06
-1.35615e-06
-1.33266e-06
-1.47447e-06
-1.143e-06
-1.31476e-06
-1.30479e-06
-1.4063e-06
-1.16206e-06
-1.26845e-06
-1.27097e-06
-1.34006e-06
-1.18324e-06
-1.25012e-06
-1.25454e-06
-1.30166e-06
-1.18964e-06
-1.23162e-06
-1.23792e-06
-1.26838e-06
-1.19698e-06
-1.22436e-06
-1.23052e-06
-1.25219e-06
-1.19893e-06
-1.21627e-06
-1.22163e-06
-1.23558e-06
)
;

boundaryField
{
    inlet
    {
        type            zeroGradient;
    }
    outlet
    {
        type            totalPressure;
        rho             rho;
        psi             none;
        gamma           1;
        p0              nonuniform 0();
        value           nonuniform 0();
    }
    walls
    {
        type            zeroGradient;
    }
    procBoundary1to0
    {
        type            processor;
        value           nonuniform List<scalar> 
16
(
-6.41098e-07
-6.45972e-07
-6.03426e-07
-5.50596e-07
-6.45972e-07
-2.6591e-06
-1.70525e-06
-1.74379e-06
-6.03426e-07
-1.70525e-06
-1.39479e-06
-1.40219e-06
-5.50596e-07
-1.74379e-06
-1.40219e-06
-1.6207e-06
)
;
    }
}


// ************************************************************************* //
