/*--------------------------------*- C++ -*----------------------------------*\
| =========                 |                                                 |
| \\      /  F ield         | OpenFOAM: The Open Source CFD Toolbox           |
|  \\    /   O peration     | Version:  5.x                                   |
|   \\  /    A nd           | Web:      www.OpenFOAM.org                      |
|    \\/     M anipulation  |                                                 |
\*---------------------------------------------------------------------------*/
FoamFile
{
    version     2.0;
    format      ascii;
    class       surfaceScalarField;
    location    "0.11";
    object      phi;
}
// * * * * * * * * * * * * * * * * * * * * * * * * * * * * * * * * * * * * * //

dimensions      [0 3 -1 0 0 0 0];

internalField   nonuniform List<scalar> 
384
(
5.16682e-11
2.01421e-11
5.16682e-11
7.22948e-12
-2.83203e-11
3.86941e-10
-4.73866e-11
-1.92341e-11
3.19934e-10
1.62578e-11
1.16593e-10
1.85478e-11
1.66124e-11
1.85478e-11
5.73575e-12
-8.9804e-12
1.55139e-10
-1.2439e-11
-9.91104e-12
1.19819e-10
1.29104e-11
6.76056e-11
1.46985e-11
1.00513e-11
1.46985e-11
4.17469e-12
5.92262e-13
8.99864e-11
-1.32284e-11
-1.96034e-12
7.47974e-11
9.45272e-12
4.73208e-11
5.82601e-12
7.3357e-12
5.82601e-12
2.81936e-12
1.70472e-12
3.80211e-11
-2.84469e-12
-6.55835e-13
3.25571e-11
6.79618e-12
2.67533e-11
4.83502e-12
4.68053e-12
4.83502e-12
2.12678e-12
2.40201e-12
2.12287e-11
-2.79273e-12
1.14955e-12
1.90502e-11
4.40637e-12
1.74342e-11
2.35326e-12
3.21922e-12
2.35326e-12
1.53201e-12
1.74996e-12
1.03012e-11
-1.50988e-13
8.91005e-13
9.92623e-12
2.76576e-12
1.01897e-11
1.88549e-12
2.08391e-12
1.88549e-12
1.22323e-12
1.35755e-12
5.68692e-12
-9.22707e-14
9.18059e-13
5.73407e-12
1.62494e-12
6.30118e-12
1.14052e-12
1.31512e-12
1.14052e-12
9.31845e-13
8.27446e-13
3.17431e-12
4.33373e-13
5.37109e-13
3.39892e-12
8.84982e-13
3.77527e-12
9.05903e-13
7.13312e-13
9.05903e-13
7.59334e-13
4.58578e-13
1.90462e-12
3.93356e-13
3.00566e-13
2.10079e-12
4.03236e-13
2.39229e-12
5.86469e-13
5.86469e-13
5.77109e-13
1.0903e-12
4.30613e-13
1.23629e-12
1.37342e-12
3.86941e-10
-2.83203e-11
7.22948e-12
-2.64156e-11
-5.79067e-10
-2.64156e-11
-2.90594e-10
-3.77087e-10
2.67892e-11
-7.51201e-11
1.57854e-11
1.55139e-10
-8.9804e-12
5.73575e-12
3.51015e-12
-2.7581e-10
3.51015e-12
-7.84139e-11
-1.91573e-10
1.62294e-11
-4.85178e-11
1.78774e-11
8.99864e-11
5.92262e-13
4.17469e-12
7.86668e-12
-1.1157e-10
7.86668e-12
-4.49654e-11
-7.79511e-11
1.40075e-11
-2.9104e-11
1.58501e-11
3.80211e-11
1.70472e-12
2.81936e-12
8.21597e-12
-5.196e-11
8.21597e-12
-8.80863e-12
-3.85457e-11
1.01763e-11
-1.71496e-11
1.27859e-11
2.12287e-11
2.40201e-12
2.12678e-12
5.88633e-12
-2.12752e-11
5.88633e-12
-3.91739e-12
-1.68107e-11
7.11896e-12
-9.33453e-12
9.39543e-12
1.03012e-11
1.74996e-12
1.53201e-12
4.41725e-12
-9.50737e-12
4.41725e-12
4.71946e-13
-8.1343e-12
5.19513e-12
-5.40503e-12
6.57007e-12
5.68692e-12
1.35755e-12
1.22323e-12
2.90872e-12
-3.95098e-12
2.90872e-12
8.0645e-13
-3.73524e-12
3.43728e-12
-3.01739e-12
4.44202e-12
3.17431e-12
8.27446e-13
9.31845e-13
2.05905e-12
-1.72045e-12
2.05905e-12
1.12409e-12
-1.83985e-12
2.4385e-12
-1.70457e-12
2.97187e-12
1.90462e-12
4.58578e-13
7.59334e-13
1.40963e-12
-7.30494e-13
1.40963e-12
8.83923e-13
-8.85657e-13
1.6723e-12
-9.3771e-13
2.03648e-12
1.0903e-12
5.77109e-13
9.42153e-13
9.42153e-13
7.1165e-13
1.10445e-12
1.26847e-12
3.19934e-10
-1.92341e-11
-4.73866e-11
2.67892e-11
-3.77087e-10
-2.90594e-10
-2.60973e-10
-3.56428e-10
-2.60973e-10
-4.89634e-11
-4.14601e-11
1.19819e-10
-9.91104e-12
-1.2439e-11
1.62294e-11
-1.91573e-10
-7.84139e-11
-6.62596e-11
-1.9145e-10
-6.62596e-11
-3.16923e-11
-4.54232e-12
7.47974e-11
-1.96034e-12
-1.32284e-11
1.40075e-11
-7.79511e-11
-4.49654e-11
-4.40703e-11
-7.52945e-11
-4.40703e-11
-1.86833e-11
3.55007e-13
3.25571e-11
-6.55835e-13
-2.84469e-12
1.01763e-11
-3.85457e-11
-8.80863e-12
-7.9147e-12
-3.91125e-11
-7.9147e-12
-1.21663e-11
7.21681e-12
1.90502e-11
1.14955e-12
-2.79273e-12
7.11896e-12
-1.68107e-11
-3.91739e-12
-3.87225e-12
-1.71301e-11
-3.87225e-12
-7.67359e-12
5.65642e-12
9.92623e-12
8.91005e-13
-1.50988e-13
5.19513e-12
-8.1343e-12
4.71946e-13
1.01285e-12
-8.76553e-12
1.01285e-12
-5.08044e-12
4.89289e-12
5.73407e-12
9.18059e-13
-9.22707e-14
3.43728e-12
-3.73524e-12
8.06451e-13
1.20393e-12
-4.29881e-12
1.20393e-12
-3.25819e-12
3.40012e-12
3.39892e-12
5.37109e-13
4.33373e-13
2.4385e-12
-1.83985e-12
1.12409e-12
1.42691e-12
-2.27564e-12
1.42691e-12
-2.05934e-12
2.40958e-12
2.10079e-12
3.00566e-13
3.93356e-13
1.6723e-12
-8.85657e-13
8.83923e-13
1.11873e-12
-1.1685e-12
1.11873e-12
-1.22269e-12
1.68454e-12
1.23629e-12
4.30613e-13
1.10445e-12
7.1165e-13
8.51615e-13
8.51615e-13
1.07996e-12
1.16593e-10
1.62578e-11
1.57854e-11
-7.51201e-11
-4.14601e-11
-4.89634e-11
-4.87998e-14
6.76056e-11
1.29104e-11
1.78774e-11
-4.85178e-11
-4.54232e-12
-3.16923e-11
-9.28663e-12
4.73208e-11
9.45272e-12
1.58501e-11
-2.9104e-11
3.55007e-13
-1.86833e-11
-1.41024e-11
2.67533e-11
6.79618e-12
1.27859e-11
-1.71496e-11
7.21681e-12
-1.21663e-11
-1.23322e-11
1.74342e-11
4.40637e-12
9.39543e-12
-9.33453e-12
5.65642e-12
-7.67359e-12
-9.62384e-12
1.01897e-11
2.76576e-12
6.57007e-12
-5.40503e-12
4.89289e-12
-5.08044e-12
-6.90563e-12
6.30118e-12
1.62494e-12
4.44202e-12
-3.01739e-12
3.40012e-12
-3.25819e-12
-4.6835e-12
3.77527e-12
8.84982e-13
2.97187e-12
-1.70457e-12
2.40958e-12
-2.05934e-12
-3.03359e-12
2.39229e-12
4.03236e-13
2.03648e-12
-9.3771e-13
1.68454e-12
-1.22269e-12
-1.7837e-12
1.37342e-12
1.26847e-12
1.07996e-12
)
;

boundaryField
{
    inlet
    {
        type            calculated;
        value           nonuniform List<scalar> 
16
(
2.90356e-13
1.24427e-13
4.72921e-14
1.31354e-13
1.24427e-13
-4.34197e-13
-5.23327e-13
-5.35475e-13
4.72921e-14
-5.23327e-13
-6.62823e-13
-6.94337e-13
1.31354e-13
-5.35475e-13
-6.94337e-13
-9.68749e-13
)
;
    }
    outlet
    {
        type            calculated;
        value           nonuniform 0();
    }
    walls
    {
        type            calculated;
        value           nonuniform List<scalar> 
160
(
-4.52152e-11
-1.67829e-11
-1.14179e-11
-4.4682e-12
-3.50744e-12
-1.6226e-12
-1.31783e-12
-7.56127e-13
-6.04998e-13
-3.74993e-13
-4.02497e-10
-1.61667e-10
-8.90353e-11
-3.61269e-11
-1.92178e-11
-8.82785e-12
-4.63225e-12
-2.43553e-12
-1.38918e-12
-7.46801e-13
-2.83131e-10
-1.10968e-10
-6.5345e-11
-2.81976e-11
-1.59361e-11
-7.98468e-12
-4.44562e-12
-2.5195e-12
-1.49827e-12
-8.3652e-13
-1.12212e-10
-6.3835e-11
-4.33121e-11
-2.33408e-11
-1.45885e-11
-8.12343e-12
-4.82821e-12
-2.75863e-12
-1.68116e-12
-9.1911e-13
-4.48808e-11
-1.28623e-11
-1.37794e-11
-3.60059e-12
-3.24864e-12
-5.76683e-13
-4.24407e-13
1.56692e-13
1.63966e-13
2.4818e-13
-2.07368e-10
-5.5288e-11
-3.29084e-11
-6.7956e-12
-3.69372e-12
1.6213e-13
2.77973e-13
6.14672e-13
4.72863e-13
4.14367e-13
-2.40082e-10
-6.11109e-11
-4.15843e-11
-8.86263e-12
-4.62591e-12
9.6883e-14
4.23595e-13
7.90345e-13
6.34019e-13
5.11764e-13
-3.04508e-11
7.65961e-14
2.7629e-12
6.3317e-12
4.30225e-12
3.53379e-12
2.28906e-12
1.58462e-12
1.0596e-12
6.7248e-13
-4.52152e-11
-1.67829e-11
-1.14179e-11
-4.4682e-12
-3.50744e-12
-1.6226e-12
-1.31783e-12
-7.56127e-13
-6.04998e-13
-3.74993e-13
-4.02497e-10
-1.61667e-10
-8.90353e-11
-3.61269e-11
-1.92178e-11
-8.82785e-12
-4.63225e-12
-2.43553e-12
-1.38918e-12
-7.46801e-13
-2.83131e-10
-1.10968e-10
-6.5345e-11
-2.81976e-11
-1.59361e-11
-7.98468e-12
-4.44562e-12
-2.5195e-12
-1.49827e-12
-8.3652e-13
-1.12212e-10
-6.3835e-11
-4.33121e-11
-2.33408e-11
-1.45885e-11
-8.12343e-12
-4.82821e-12
-2.75863e-12
-1.68116e-12
-9.1911e-13
-4.48808e-11
-1.28623e-11
-1.37794e-11
-3.60059e-12
-3.24864e-12
-5.76683e-13
-4.24407e-13
1.56692e-13
1.63966e-13
2.4818e-13
-2.07368e-10
-5.5288e-11
-3.29084e-11
-6.7956e-12
-3.69372e-12
1.6213e-13
2.77973e-13
6.14672e-13
4.72863e-13
4.14367e-13
-2.40082e-10
-6.11109e-11
-4.15843e-11
-8.86263e-12
-4.62591e-12
9.6883e-14
4.23595e-13
7.90345e-13
6.34019e-13
5.11764e-13
-3.04508e-11
7.65961e-14
2.7629e-12
6.3317e-12
4.30225e-12
3.53379e-12
2.28906e-12
1.58462e-12
1.0596e-12
6.7248e-13
)
;
    }
    procBoundary1to0
    {
        type            processor;
        value           nonuniform List<scalar> 
16
(
-3.30481e-11
8.83154e-11
3.70471e-11
-2.31442e-11
8.83154e-11
1.40578e-09
9.3441e-10
9.27009e-11
3.70471e-11
9.3441e-10
9.31951e-10
8.53183e-11
-2.31442e-11
9.27009e-11
8.53183e-11
-2.19698e-11
)
;
    }
}


// ************************************************************************* //
