/*--------------------------------*- C++ -*----------------------------------*\
| =========                 |                                                 |
| \\      /  F ield         | OpenFOAM: The Open Source CFD Toolbox           |
|  \\    /   O peration     | Version:  5.x                                   |
|   \\  /    A nd           | Web:      www.OpenFOAM.org                      |
|    \\/     M anipulation  |                                                 |
\*---------------------------------------------------------------------------*/
FoamFile
{
    version     2.0;
    format      ascii;
    class       volVectorField;
    location    "0.11";
    object      U;
}
// * * * * * * * * * * * * * * * * * * * * * * * * * * * * * * * * * * * * * //

dimensions      [0 1 -1 0 0 0 0];

internalField   nonuniform List<vector> 
160
(
(7.24712e-06 4.27654e-06 7.24712e-06)
(8.65424e-06 -5.95738e-06 6.46224e-05)
(-6.6818e-06 -2.28133e-06 4.54331e-05)
(-7.2114e-06 2.92653e-06 1.81255e-05)
(2.6952e-06 2.36428e-06 2.6952e-06)
(3.40163e-06 -3.80294e-06 2.60145e-05)
(-1.72515e-06 -3.94971e-06 1.78524e-05)
(-2.06488e-06 1.91668e-06 1.03365e-05)
(1.83312e-06 2.3372e-06 1.83312e-06)
(2.72674e-06 4.32488e-07 1.4328e-05)
(-1.56669e-06 2.58529e-07 1.05136e-05)
(-2.217e-06 1.77541e-06 7.01236e-06)
(7.19058e-07 1.06309e-06 7.19058e-07)
(1.13753e-06 -2.24915e-07 5.82844e-06)
(-2.80401e-07 -7.35119e-07 4.54954e-06)
(-5.75652e-07 1.06778e-06 3.78697e-06)
(5.65015e-07 1.03806e-06 5.65015e-07)
(8.84741e-07 6.49875e-07 3.10476e-06)
(-2.64591e-07 4.43436e-07 2.57236e-06)
(-5.21903e-07 8.94789e-07 2.36808e-06)
(2.62497e-07 4.97875e-07 2.62497e-07)
(4.38676e-07 1.6383e-07 1.42902e-06)
(4.48911e-08 -1.32383e-08 1.29184e-06)
(-9.11464e-08 4.48203e-07 1.32076e-06)
(2.13273e-07 4.39197e-07 2.13273e-07)
(3.39e-07 3.30393e-07 7.5127e-07)
(4.26193e-08 2.52332e-07 7.20452e-07)
(-6.69722e-08 3.52355e-07 7.8572e-07)
(1.22964e-07 2.21481e-07 1.22964e-07)
(2.08352e-07 1.2032e-07 3.95594e-07)
(9.93802e-08 6.37674e-08 4.08852e-07)
(2.62516e-08 1.5361e-07 4.49671e-07)
(9.84388e-08 1.66245e-07 9.84388e-08)
(1.62746e-07 1.22192e-07 2.26149e-07)
(8.65113e-08 9.07752e-08 2.43686e-07)
(2.73504e-08 1.02508e-07 2.74393e-07)
(6.13066e-08 4.74481e-08 6.13066e-08)
(1.05144e-07 2.05717e-08 1.21908e-07)
(8.19681e-08 8.0574e-09 1.36431e-07)
(4.07172e-08 2.14008e-08 1.50478e-07)
(6.46224e-05 -5.95738e-06 8.65424e-06)
(4.78306e-05 -0.00011503 4.78306e-05)
(-5.43244e-05 -7.2831e-05 4.8696e-05)
(-3.31697e-05 -1.31849e-05 1.5032e-05)
(2.60145e-05 -3.80294e-06 3.40163e-06)
(1.88765e-05 -6.27432e-05 1.88765e-05)
(-1.72326e-05 -4.61454e-05 1.74533e-05)
(-8.82746e-06 -1.02757e-05 8.71892e-06)
(1.4328e-05 4.32488e-07 2.72674e-06)
(1.16837e-05 -2.15405e-05 1.16837e-05)
(-8.61158e-06 -1.44691e-05 1.1421e-05)
(-5.25347e-06 -4.99153e-06 6.33764e-06)
(5.82844e-06 -2.24915e-07 1.13753e-06)
(5.11425e-06 -1.25228e-05 5.11425e-06)
(-2.04992e-06 -9.6225e-06 4.94874e-06)
(-1.07226e-06 -3.80222e-06 3.74729e-06)
(3.10476e-06 6.49875e-07 8.84741e-07)
(2.972e-06 -4.04142e-06 2.972e-06)
(-8.05582e-07 -3.07857e-06 2.96993e-06)
(-5.81733e-07 -1.61617e-06 2.54261e-06)
(1.42902e-06 1.6383e-07 4.38676e-07)
(1.51894e-06 -2.37237e-06 1.51894e-06)
(7.22721e-08 -2.03977e-06 1.58629e-06)
(3.38186e-08 -1.18806e-06 1.55068e-06)
(7.5127e-07 3.30393e-07 3.39e-07)
(8.73551e-07 -7.51716e-07 8.73551e-07)
(1.63551e-07 -6.83061e-07 9.3736e-07)
(4.94846e-08 -5.32341e-07 9.91101e-07)
(3.95594e-07 1.2032e-07 2.08352e-07)
(5.13356e-07 -4.31807e-07 5.13356e-07)
(2.11049e-07 -4.44576e-07 5.73362e-07)
(1.02101e-07 -3.70332e-07 6.16416e-07)
(2.26149e-07 1.22192e-07 1.62746e-07)
(3.19245e-07 -1.44273e-07 3.19245e-07)
(1.7214e-07 -1.77121e-07 3.62005e-07)
(7.82281e-08 -1.865e-07 4.01951e-07)
(1.21908e-07 2.05717e-08 1.05144e-07)
(1.87894e-07 -7.0263e-08 1.87894e-07)
(1.33517e-07 -8.46124e-08 2.16264e-07)
(6.81461e-08 -8.72732e-08 2.34768e-07)
(4.54331e-05 -2.28133e-06 -6.6818e-06)
(4.8696e-05 -7.2831e-05 -5.43244e-05)
(-3.92083e-05 -6.26392e-05 -3.92083e-05)
(-3.84173e-05 -8.32529e-06 -8.91679e-06)
(1.78524e-05 -3.94971e-06 -1.72515e-06)
(1.74533e-05 -4.61454e-05 -1.72326e-05)
(-1.14134e-05 -4.72586e-05 -1.14134e-05)
(-9.76423e-06 -7.51928e-06 -1.95123e-06)
(1.05136e-05 2.58529e-07 -1.56669e-06)
(1.1421e-05 -1.44691e-05 -8.61158e-06)
(-6.4654e-06 -1.31506e-05 -6.4654e-06)
(-6.65357e-06 -3.20965e-06 -4.62947e-07)
(4.54954e-06 -7.35119e-07 -2.80401e-07)
(4.94874e-06 -9.6225e-06 -2.04992e-06)
(-1.30399e-06 -9.82047e-06 -1.30399e-06)
(-1.40628e-06 -2.78199e-06 8.84931e-07)
(2.57236e-06 4.43436e-07 -2.64591e-07)
(2.96993e-06 -3.07857e-06 -8.05582e-07)
(-4.57658e-07 -3.0445e-06 -4.57658e-07)
(-7.33668e-07 -1.25971e-06 8.26547e-07)
(1.29184e-06 -1.32383e-08 4.48911e-08)
(1.58629e-06 -2.03977e-06 7.22721e-08)
(2.43229e-07 -2.15843e-06 2.43229e-07)
(2.29257e-08 -1.10077e-06 7.77433e-07)
(7.20452e-07 2.52332e-07 4.26193e-08)
(9.3736e-07 -6.83061e-07 1.63551e-07)
(2.66242e-07 -7.75574e-07 2.66242e-07)
(7.25058e-08 -5.62007e-07 5.71984e-07)
(4.08852e-07 6.37674e-08 9.93802e-08)
(5.73362e-07 -4.44576e-07 2.11049e-07)
(2.75816e-07 -5.27682e-07 2.75816e-07)
(1.30402e-07 -4.30119e-07 4.18486e-07)
(2.43686e-07 9.07752e-08 8.65113e-08)
(3.62005e-07 -1.77121e-07 1.7214e-07)
(2.17316e-07 -2.40353e-07 2.17316e-07)
(1.04221e-07 -2.46789e-07 3.01062e-07)
(1.36431e-07 8.0574e-09 8.19681e-08)
(2.16264e-07 -8.46124e-08 1.33517e-07)
(1.5912e-07 -1.07079e-07 1.5912e-07)
(8.39252e-08 -1.1285e-07 1.93225e-07)
(1.81255e-05 2.92653e-06 -7.2114e-06)
(1.5032e-05 -1.31849e-05 -3.31697e-05)
(-8.91679e-06 -8.32529e-06 -3.84173e-05)
(-4.84956e-06 1.03255e-06 -4.84956e-06)
(1.03365e-05 1.91668e-06 -2.06488e-06)
(8.71892e-06 -1.02757e-05 -8.82746e-06)
(-1.95123e-06 -7.51928e-06 -9.76423e-06)
(6.14042e-08 -1.06128e-06 6.14042e-08)
(7.01236e-06 1.77541e-06 -2.217e-06)
(6.33764e-06 -4.99153e-06 -5.25347e-06)
(-4.62947e-07 -3.20965e-06 -6.65357e-06)
(4.82506e-07 -1.90627e-06 4.82506e-07)
(3.78697e-06 1.06778e-06 -5.75652e-07)
(3.74729e-06 -3.80222e-06 -1.07226e-06)
(8.84931e-07 -2.78199e-06 -1.40628e-06)
(1.04107e-06 -2.21587e-06 1.04107e-06)
(2.36808e-06 8.94789e-07 -5.21903e-07)
(2.54261e-06 -1.61617e-06 -5.81733e-07)
(8.26547e-07 -1.25971e-06 -7.33668e-07)
(7.08405e-07 -1.56678e-06 7.08405e-07)
(1.32076e-06 4.48203e-07 -9.11464e-08)
(1.55068e-06 -1.18806e-06 3.38186e-08)
(7.77433e-07 -1.10077e-06 2.29257e-08)
(5.79049e-07 -1.29613e-06 5.79049e-07)
(7.8572e-07 3.52355e-07 -6.69722e-08)
(9.91101e-07 -5.32341e-07 4.94846e-08)
(5.71984e-07 -5.62007e-07 7.25058e-08)
(3.75555e-07 -8.11828e-07 3.75555e-07)
(4.49671e-07 1.5361e-07 2.62516e-08)
(6.16416e-07 -3.70332e-07 1.02101e-07)
(4.18486e-07 -4.30119e-07 1.30402e-07)
(2.59553e-07 -5.8096e-07 2.59553e-07)
(2.74393e-07 1.02508e-07 2.73504e-08)
(4.01951e-07 -1.865e-07 7.82281e-08)
(3.01062e-07 -2.46789e-07 1.04221e-07)
(1.73815e-07 -3.57993e-07 1.73815e-07)
(1.50478e-07 2.14008e-08 4.07172e-08)
(2.34768e-07 -8.72732e-08 6.81461e-08)
(1.93225e-07 -1.1285e-07 8.39252e-08)
(1.10348e-07 -1.58274e-07 1.10348e-07)
)
;

boundaryField
{
    inlet
    {
        type            fixedValue;
        value           uniform (0 0 0);
    }
    outlet
    {
        type            zeroGradient;
    }
    walls
    {
        type            fixedValue;
        value           uniform (0 0 0);
    }
    procBoundary1to0
    {
        type            processor;
        value           nonuniform List<vector> 
16
(
(7.77237e-06 4.99862e-06 7.77237e-06)
(6.35275e-06 -2.50456e-05 9.02945e-05)
(-5.22279e-06 -1.13446e-05 5.37328e-05)
(-3.11852e-06 3.62075e-06 2.20233e-05)
(9.02945e-05 -2.50456e-05 6.35275e-06)
(5.19118e-05 -0.000309946 5.19118e-05)
(-7.50009e-05 -0.000214652 3.81047e-05)
(-3.17959e-05 -1.82836e-05 1.47446e-05)
(5.37328e-05 -1.13446e-05 -5.22279e-06)
(3.81047e-05 -0.000214652 -7.50009e-05)
(-4.32752e-05 -0.000221322 -4.32752e-05)
(-2.43824e-05 -2.11307e-05 -1.2263e-05)
(2.20233e-05 3.62075e-06 -3.11852e-06)
(1.47446e-05 -1.82836e-05 -3.17959e-05)
(-1.2263e-05 -2.11307e-05 -2.43824e-05)
(-4.15153e-06 5.27424e-06 -4.15153e-06)
)
;
    }
}


// ************************************************************************* //
