/*--------------------------------*- C++ -*----------------------------------*\
| =========                 |                                                 |
| \\      /  F ield         | OpenFOAM: The Open Source CFD Toolbox           |
|  \\    /   O peration     | Version:  5.x                                   |
|   \\  /    A nd           | Web:      www.OpenFOAM.org                      |
|    \\/     M anipulation  |                                                 |
\*---------------------------------------------------------------------------*/
FoamFile
{
    version     2.0;
    format      ascii;
    class       volVectorField;
    location    "0.11";
    object      Us;
}
// * * * * * * * * * * * * * * * * * * * * * * * * * * * * * * * * * * * * * //

dimensions      [0 1 -1 0 0 0 0];

internalField   uniform (0 0 0);

boundaryField
{
    inlet
    {
        type            zeroGradient;
    }
    outlet
    {
        type            zeroGradient;
    }
    walls
    {
        type            zeroGradient;
    }
    procBoundary1to0
    {
        type            processor;
        value           nonuniform List<vector> 
16
(
(-1.85958e-17 -4.12426e-14 -1.85958e-17)
(-6.82753e-16 -1.51424e-12 -6.82753e-16)
(-7.1851e-16 -1.59354e-12 -7.1851e-16)
(-5.87511e-17 -1.30301e-13 -5.87511e-17)
(-6.82753e-16 -1.51424e-12 -6.82753e-16)
(-2.45954e-14 -5.45488e-11 -2.45954e-14)
(-2.58611e-14 -5.73558e-11 -2.58611e-14)
(-2.08764e-15 -4.63007e-12 -2.08764e-15)
(-7.1851e-16 -1.59354e-12 -7.1851e-16)
(-2.58611e-14 -5.73558e-11 -2.58611e-14)
(-2.72163e-14 -6.03615e-11 -2.72163e-14)
(-2.22401e-15 -4.93252e-12 -2.22401e-15)
(-5.87511e-17 -1.30301e-13 -5.87511e-17)
(-2.08764e-15 -4.63007e-12 -2.08764e-15)
(-2.22401e-15 -4.93252e-12 -2.22401e-15)
(-2.12214e-16 -4.70658e-13 -2.12214e-16)
)
;
    }
}


// ************************************************************************* //
