/*--------------------------------*- C++ -*----------------------------------*\
| =========                 |                                                 |
| \\      /  F ield         | OpenFOAM: The Open Source CFD Toolbox           |
|  \\    /   O peration     | Version:  5.x                                   |
|   \\  /    A nd           | Web:      www.OpenFOAM.org                      |
|    \\/     M anipulation  |                                                 |
\*---------------------------------------------------------------------------*/
FoamFile
{
    version     2.0;
    format      ascii;
    class       volScalarField;
    location    "0.06";
    object      Ksl;
}
// * * * * * * * * * * * * * * * * * * * * * * * * * * * * * * * * * * * * * //

dimensions      [1 -3 -1 0 0 0 0];

internalField   nonuniform List<scalar> 
320
(
0
0
0
0
0
0
0
0
0
0
0
0
5.92034e-05
0.000559953
0.000313332
2.63911e-05
0.000831789
0.012991
0.00623024
0.000374148
0.0153506
0.235214
0.134834
0.00793805
0.216033
2.09702
1.05063
0.111827
1.57502
3.08518
1.49447
0.781755
0.0870692
1.20329
0.615369
0.0437489
0.00240278
0.031333
0.0184226
0.00120657
0.000124233
0.00108705
0.000642043
6.20918e-05
6.38466e-06
8.53802e-05
5.61823e-05
3.36229e-06
0
0
0
0
0
0
0
0
0
0
0
0
0
0
0
0
0
0
0
0
0
0
0
0
0
0
0
0
0
0
0
0
0
0
0
0
0
0
0
0
0
0.000136284
0.000116554
0
0.000559953
0.00280743
0.00219555
0.000501476
0.012991
0.0829095
0.0731098
0.00953073
0.235214
5.85553
2.09016
0.195664
2.09702
3.24563
1.53819
1.09363
3.08518
3.19373
1.50931
1.46394
1.20329
4.25063
1.71065
0.551015
0.031333
0.350192
0.241565
0.0185486
0.00108705
0.011377
0.00655291
0.000675041
8.53802e-05
0.000284249
0.000199227
6.92611e-05
0
2.24675e-05
9.72365e-06
0
0
0
0
0
0
0
0
0
0
0
0
0
0
0
0
0
0
0
0
0
0
0
0
0
0
0
0
0
0
0
0
0
0
0
0
0
0
0.000116554
7.80662e-05
0
0.000313332
0.00219555
0.0019658
0.000235315
0.00623024
0.0731098
0.0673397
0.00403334
0.134834
2.09016
1.34438
0.109312
1.05063
1.53819
1.02432
0.704689
1.49447
1.50931
1.00884
0.99247
0.615369
1.71065
1.09755
0.397102
0.0184226
0.241565
0.120255
0.0139193
0.000642043
0.00655291
0.00607083
0.000366463
5.61823e-05
0.000199227
0.000113058
3.85262e-05
0
9.72365e-06
8.29817e-06
0
0
0
0
0
0
0
0
0
0
0
0
0
0
0
0
0
0
0
0
0
0
0
0
0
0
0
0
0
0
0
0
0
0
0
0
0
0
0
0
0
2.63911e-05
0.000501476
0.000235315
0
0.000374148
0.00953073
0.00403334
0.000227384
0.00793805
0.195664
0.109312
0.00535421
0.111827
1.09363
0.704689
0.0764086
0.781755
1.46394
0.99247
0.538326
0.0437489
0.551015
0.397102
0.0300574
0.00120657
0.0185486
0.0139193
0.000828359
6.20918e-05
0.000675041
0.000366463
4.03663e-05
3.36229e-06
6.92611e-05
3.85262e-05
0
0
0
0
0
0
0
0
0
0
0
0
0
0
0
0
0
0
0
0
0
0
0
0
0
0
0
0
0
0
0
0
0
)
;

boundaryField
{
    inlet
    {
        type            zeroGradient;
    }
    outlet
    {
        type            zeroGradient;
    }
    walls
    {
        type            zeroGradient;
    }
}


// ************************************************************************* //
