/*--------------------------------*- C++ -*----------------------------------*\
| =========                 |                                                 |
| \\      /  F ield         | OpenFOAM: The Open Source CFD Toolbox           |
|  \\    /   O peration     | Version:  5.x                                   |
|   \\  /    A nd           | Web:      www.OpenFOAM.org                      |
|    \\/     M anipulation  |                                                 |
\*---------------------------------------------------------------------------*/
FoamFile
{
    version     2.0;
    format      ascii;
    class       volScalarField;
    location    "0.06";
    object      p;
}
// * * * * * * * * * * * * * * * * * * * * * * * * * * * * * * * * * * * * * //

dimensions      [0 2 -2 0 0 0 0];

internalField   nonuniform List<scalar> 
320
(
2.73048e-08
3.01714e-08
2.34582e-08
1.27358e-08
-2.81727e-08
1.84041e-08
-3.48911e-08
-5.77176e-08
-1.40337e-08
9.09611e-08
-1.65123e-08
-7.52137e-08
-1.2694e-07
1.61493e-07
-1.09214e-07
-2.43265e-07
-3.62187e-07
2.63769e-07
-2.77124e-07
-5.31453e-07
-1.08221e-06
5.62825e-09
-8.31459e-07
-1.2668e-06
-2.05526e-06
1.66872e-06
-7.93286e-07
-2.5275e-06
-6.58966e-06
-5.52463e-06
-6.51358e-06
-6.96656e-06
-1.20738e-05
-1.49702e-05
-1.35044e-05
-1.24452e-05
-1.52934e-05
-1.77349e-05
-1.61926e-05
-1.54211e-05
-1.6285e-05
-1.69896e-05
-1.66609e-05
-1.63452e-05
-1.67016e-05
-1.72393e-05
-1.68545e-05
-1.6655e-05
-1.72855e-05
-1.74881e-05
-1.73733e-05
-1.72771e-05
-1.69361e-05
-1.70282e-05
-1.69528e-05
-1.69145e-05
-1.74243e-05
-1.74741e-05
-1.74378e-05
-1.741e-05
-1.70254e-05
-1.70351e-05
-1.70207e-05
-1.70211e-05
-1.73837e-05
-1.73946e-05
-1.73888e-05
-1.73777e-05
-1.71084e-05
-1.71111e-05
-1.71073e-05
-1.7107e-05
-1.72969e-05
-1.72988e-05
-1.72976e-05
-1.72951e-05
-1.72014e-05
-1.7203e-05
-1.72019e-05
-1.72006e-05
3.01714e-08
4.24645e-08
3.09951e-08
2.39719e-08
1.84041e-08
7.55509e-08
1.21243e-08
-2.30071e-08
9.09611e-08
2.67931e-07
1.06509e-07
2.00026e-08
1.61493e-07
6.52947e-07
2.14847e-07
1.36202e-10
2.63769e-07
1.59056e-06
5.48568e-07
-1.73015e-08
5.62825e-09
3.70993e-06
1.00199e-06
-1.36413e-07
1.66872e-06
1.92852e-05
8.64513e-06
4.31908e-07
-5.52463e-06
-2.43359e-06
-5.12764e-06
-6.07352e-06
-1.49702e-05
-3.61689e-05
-2.35307e-05
-1.55385e-05
-1.77349e-05
-2.53147e-05
-2.01672e-05
-1.77247e-05
-1.69896e-05
-1.85121e-05
-1.7429e-05
-1.69835e-05
-1.72393e-05
-1.83809e-05
-1.7448e-05
-1.7103e-05
-1.74881e-05
-1.78756e-05
-1.75908e-05
-1.74586e-05
-1.70282e-05
-1.71885e-05
-1.70362e-05
-1.69918e-05
-1.74741e-05
-1.75294e-05
-1.74832e-05
-1.7454e-05
-1.70351e-05
-1.70706e-05
-1.70394e-05
-1.70296e-05
-1.73946e-05
-1.73968e-05
-1.73938e-05
-1.73883e-05
-1.71111e-05
-1.71204e-05
-1.71106e-05
-1.71092e-05
-1.72988e-05
-1.72993e-05
-1.72989e-05
-1.72969e-05
-1.7203e-05
-1.72051e-05
-1.72035e-05
-1.72021e-05
2.34582e-08
3.09951e-08
2.44961e-08
1.11737e-08
-3.48911e-08
1.21243e-08
-3.77995e-08
-6.00827e-08
-1.65123e-08
1.06509e-07
5.62957e-09
-7.08152e-08
-1.09214e-07
2.14847e-07
-4.18049e-08
-2.11259e-07
-2.77124e-07
5.48568e-07
4.12628e-08
-4.16443e-07
-8.31459e-07
1.00199e-06
-3.67108e-07
-1.00978e-06
-7.93286e-07
8.64513e-06
4.61743e-06
-1.34535e-06
-6.51358e-06
-5.12764e-06
-6.10543e-06
-6.84557e-06
-1.35044e-05
-2.35307e-05
-1.89201e-05
-1.39119e-05
-1.61926e-05
-2.01672e-05
-1.80141e-05
-1.62928e-05
-1.66609e-05
-1.7429e-05
-1.72609e-05
-1.66872e-05
-1.68545e-05
-1.7448e-05
-1.70147e-05
-1.67816e-05
-1.73733e-05
-1.75908e-05
-1.75543e-05
-1.73521e-05
-1.69528e-05
-1.70362e-05
-1.69519e-05
-1.69246e-05
-1.74378e-05
-1.74832e-05
-1.74734e-05
-1.74227e-05
-1.70207e-05
-1.70394e-05
-1.7021e-05
-1.70163e-05
-1.73888e-05
-1.73938e-05
-1.73912e-05
-1.73828e-05
-1.71073e-05
-1.71106e-05
-1.71072e-05
-1.71067e-05
-1.72976e-05
-1.72989e-05
-1.72979e-05
-1.72954e-05
-1.72019e-05
-1.72035e-05
-1.72026e-05
-1.72012e-05
1.27358e-08
2.39719e-08
1.11737e-08
3.89327e-09
-5.77176e-08
-2.30071e-08
-6.00827e-08
-8.28369e-08
-7.52137e-08
2.00026e-08
-7.08152e-08
-1.26011e-07
-2.43265e-07
1.36202e-10
-2.11259e-07
-3.3536e-07
-5.31453e-07
-1.73015e-08
-4.16443e-07
-6.60841e-07
-1.2668e-06
-1.36413e-07
-1.00978e-06
-1.47366e-06
-2.5275e-06
4.31908e-07
-1.34535e-06
-2.90608e-06
-6.96656e-06
-6.07352e-06
-6.84557e-06
-7.22059e-06
-1.24452e-05
-1.55385e-05
-1.39119e-05
-1.26112e-05
-1.54211e-05
-1.77247e-05
-1.62928e-05
-1.54434e-05
-1.63452e-05
-1.69835e-05
-1.66872e-05
-1.63496e-05
-1.6655e-05
-1.7103e-05
-1.67816e-05
-1.66027e-05
-1.72771e-05
-1.74586e-05
-1.73521e-05
-1.72475e-05
-1.69145e-05
-1.69918e-05
-1.69246e-05
-1.68936e-05
-1.741e-05
-1.7454e-05
-1.74227e-05
-1.73941e-05
-1.70211e-05
-1.70296e-05
-1.70163e-05
-1.7017e-05
-1.73777e-05
-1.73883e-05
-1.73828e-05
-1.73694e-05
-1.7107e-05
-1.71092e-05
-1.71067e-05
-1.71091e-05
-1.72951e-05
-1.72969e-05
-1.72954e-05
-1.72912e-05
-1.72006e-05
-1.72021e-05
-1.72012e-05
-1.72e-05
)
;

boundaryField
{
    inlet
    {
        type            zeroGradient;
    }
    outlet
    {
        type            totalPressure;
        rho             rho;
        psi             none;
        gamma           1;
        p0              uniform 0;
        value           nonuniform List<scalar> 
16
(
-6.61783e-16
0
-3.67239e-15
-1.67241e-14
0
0
0
-2.99601e-15
-3.67239e-15
0
-5.7128e-15
-2.30334e-14
-1.67241e-14
-2.99601e-15
-2.30334e-14
-4.62082e-14
)
;
    }
    walls
    {
        type            zeroGradient;
    }
}


// ************************************************************************* //
