/*--------------------------------*- C++ -*----------------------------------*\
| =========                 |                                                 |
| \\      /  F ield         | OpenFOAM: The Open Source CFD Toolbox           |
|  \\    /   O peration     | Version:  5.x                                   |
|   \\  /    A nd           | Web:      www.OpenFOAM.org                      |
|    \\/     M anipulation  |                                                 |
\*---------------------------------------------------------------------------*/
FoamFile
{
    version     2.0;
    format      ascii;
    class       surfaceScalarField;
    location    "0.06";
    object      phi;
}
// * * * * * * * * * * * * * * * * * * * * * * * * * * * * * * * * * * * * * //

dimensions      [0 3 -1 0 0 0 0];

internalField   nonuniform List<scalar> 
784
(
-3.20606e-14
1.33886e-13
-3.20606e-14
2.2489e-13
-1.08945e-12
-9.05712e-14
4.66467e-13
-7.59459e-15
-5.74949e-14
1.45798e-12
-1.68207e-13
-5.55423e-13
1.24474e-12
-5.55423e-13
9.94818e-13
-1.7801e-12
-8.59574e-13
9.1048e-13
8.11005e-13
-7.34246e-13
2.73184e-12
-3.6338e-13
-1.67013e-12
4.58502e-12
-1.67013e-12
2.21318e-12
-3.13082e-12
-2.53257e-12
2.98269e-12
2.08119e-12
-2.03967e-12
7.35894e-12
-1.6444e-12
-4.20606e-12
1.29972e-11
-4.20606e-12
4.97832e-12
-4.25806e-12
-8.0571e-12
5.90943e-12
7.22838e-12
-6.07828e-12
1.68094e-11
-3.54101e-12
-1.18113e-11
3.66197e-11
-1.18113e-11
9.28606e-12
3.05961e-13
-2.56613e-11
1.41738e-11
2.07259e-11
-1.83852e-11
4.18927e-11
-1.09095e-11
-2.78049e-11
9.22296e-11
-2.78049e-11
2.09814e-11
2.87959e-11
-7.72762e-11
3.06775e-11
6.14655e-11
-5.04358e-11
9.676e-11
-2.41899e-11
-6.71603e-11
2.2655e-10
-6.71603e-11
3.38215e-11
1.9655e-10
-2.68736e-10
6.408e-11
2.05761e-10
-1.74554e-10
2.19642e-10
-5.88024e-11
-8.17511e-11
3.90052e-10
-8.17511e-11
4.43862e-11
4.32536e-10
-3.62124e-10
8.18715e-11
3.9523e-10
-2.26955e-10
3.72676e-10
-7.11616e-11
-2.34967e-11
4.37046e-10
-2.34967e-11
-1.54554e-11
4.56138e-10
-3.16432e-11
2.80385e-11
4.58362e-10
-1.06626e-10
4.3007e-10
-2.93558e-11
8.46984e-11
2.67649e-10
8.46984e-11
-5.11679e-11
2.15754e-10
3.7625e-10
-8.3225e-11
2.68063e-10
2.22356e-10
2.74933e-10
7.19123e-11
8.35187e-11
1.00611e-10
8.35187e-11
-1.84411e-11
4.14695e-11
2.76244e-10
-8.74149e-11
6.8222e-11
2.68815e-10
1.04777e-10
8.27407e-11
2.07187e-11
5.91741e-11
2.07187e-11
-1.20131e-11
1.35625e-11
6.06388e-11
-2.28051e-11
2.97294e-11
4.92845e-11
6.33699e-11
1.86019e-11
2.09487e-11
1.72766e-11
2.09487e-11
-6.01018e-12
2.4058e-12
3.81156e-11
-2.31743e-11
8.7685e-12
3.8125e-11
1.96507e-11
2.05448e-11
3.13561e-12
1.10053e-11
3.13561e-12
-2.48109e-12
-1.45279e-12
9.47531e-12
-4.06459e-12
2.40649e-12
7.94552e-12
1.28074e-11
2.77872e-12
4.21542e-12
2.57451e-12
4.21542e-12
-1.58887e-12
-4.63986e-14
4.39791e-12
-5.25443e-12
1.3172e-12
4.75487e-12
3.32813e-12
4.22489e-12
4.29511e-13
1.7155e-12
4.29511e-13
-5.31328e-13
-7.09911e-13
1.62437e-12
-6.00137e-13
2.59526e-14
1.36007e-12
2.43944e-12
2.88563e-13
6.83711e-13
3.48089e-13
6.83711e-13
-3.67642e-13
-1.57902e-13
4.99352e-13
-1.09053e-12
1.26501e-13
6.22345e-13
5.94773e-13
7.54126e-13
6.94111e-14
2.09271e-13
6.94111e-14
-1.52308e-13
-1.46244e-13
2.10056e-13
-1.66013e-13
-9.61159e-15
1.49809e-13
3.79177e-13
4.95752e-14
9.78346e-14
1.35956e-14
9.78346e-14
-9.00333e-14
-4.46711e-14
8.62882e-14
-2.05632e-13
4.60474e-15
1.01379e-13
6.83243e-14
1.05221e-13
6.79632e-15
6.79632e-15
-5.35846e-14
1.57135e-14
-6.34706e-14
1.44969e-14
4.86094e-15
-9.05712e-14
-1.08945e-12
2.2489e-13
2.24705e-13
-2.94544e-12
2.24705e-13
2.92935e-13
-1.34514e-12
2.48697e-13
8.57952e-15
3.79496e-13
-8.59574e-13
-1.7801e-12
9.94818e-13
1.35068e-12
-7.36592e-12
1.35068e-12
1.57385e-12
-3.25031e-12
9.47757e-13
5.16519e-13
7.02533e-13
-2.53257e-12
-3.13082e-12
2.21318e-12
2.90993e-12
-1.82509e-11
2.90993e-12
3.69862e-12
-8.21387e-12
2.13521e-12
5.65987e-13
2.00475e-12
-8.0571e-12
-4.25806e-12
4.97832e-12
7.84228e-12
-5.00496e-11
7.84228e-12
9.99291e-12
-2.13189e-11
4.87617e-12
3.07882e-12
3.93907e-12
-2.56613e-11
3.05961e-13
9.28606e-12
1.7599e-11
-1.3657e-10
1.7599e-11
2.66084e-11
-5.83398e-11
9.62631e-12
1.11818e-11
7.59593e-12
-7.72762e-11
2.87959e-11
2.09814e-11
5.16833e-11
-3.94489e-10
5.16833e-11
7.471e-11
-1.57439e-10
2.56368e-11
4.48344e-11
1.68675e-11
-2.68736e-10
1.9655e-10
3.38215e-11
1.31761e-10
-1.19548e-09
1.31761e-10
2.34758e-10
-4.80789e-10
4.57991e-11
1.97412e-10
2.3378e-11
-3.62124e-10
4.32536e-10
4.43862e-11
1.81467e-10
-2.28267e-09
1.81467e-10
3.57561e-10
-9.49662e-10
6.58242e-11
4.51379e-10
3.24326e-11
-3.16432e-11
4.56138e-10
-1.54554e-11
-7.50986e-11
-2.19576e-09
-7.50986e-11
5.23714e-11
-1.08856e-09
-9.51936e-11
4.95578e-10
-2.11827e-11
3.7625e-10
2.15754e-10
-5.11679e-11
-2.00137e-10
-1.04298e-09
-2.00137e-10
-3.60961e-10
-6.2121e-10
-8.41738e-11
2.46023e-10
-3.94942e-11
2.76244e-10
4.14695e-11
-1.84411e-11
-7.56419e-11
-3.39208e-10
-7.56419e-11
-2.80376e-10
-1.77121e-10
2.94593e-11
5.629e-11
-7.90225e-12
6.06388e-11
1.35625e-11
-1.20131e-11
-3.13048e-11
-1.55321e-10
-3.13048e-11
-6.01194e-11
-9.17014e-11
-7.31996e-12
2.41323e-11
-9.35976e-12
3.81156e-11
2.4058e-12
-6.01018e-12
-1.36625e-11
-5.17645e-11
-1.36625e-11
-4.12382e-11
-2.75333e-11
1.53262e-12
6.80049e-12
-3.36153e-12
9.47531e-12
-1.45279e-12
-2.48109e-12
-5.49662e-12
-2.18207e-11
-5.49662e-12
-1.01206e-11
-1.33708e-11
-1.59291e-12
1.5267e-12
-2.06812e-12
4.39791e-12
-4.63986e-14
-1.58887e-12
-2.15717e-12
-8.71047e-12
-2.15717e-12
-5.69667e-12
-4.57557e-12
-5.00849e-13
1.24069e-12
-1.18576e-12
1.62437e-12
-7.09911e-13
-5.31328e-13
-1.15933e-12
-3.14305e-12
-1.15933e-12
-1.90797e-12
-2.0751e-12
-3.91755e-13
4.7801e-14
-4.26514e-13
4.99352e-13
-1.57902e-13
-3.67642e-13
-3.20888e-13
-1.50258e-12
-3.20888e-13
-9.23739e-13
-6.44944e-13
-2.04965e-13
1.80453e-13
-3.02276e-13
2.10056e-13
-1.46244e-13
-1.52308e-13
-2.81345e-13
-5.19787e-13
-2.81345e-13
-3.01225e-13
-3.57465e-13
-1.17801e-13
3.99458e-14
-1.11147e-13
8.62882e-14
-4.46711e-14
-9.00333e-14
-8.92611e-14
-1.68689e-13
-8.92611e-14
-2.02588e-13
-7.03965e-14
-7.2361e-14
2.56593e-14
-8.30733e-14
1.57135e-14
-5.35846e-14
-6.8626e-14
-6.8626e-14
-7.78158e-14
-4.66983e-14
-4.72891e-14
-5.74949e-14
-7.59459e-15
4.66467e-13
2.48697e-13
-1.34514e-12
2.92935e-13
4.78005e-13
-3.23e-13
4.78005e-13
1.28407e-12
4.91598e-13
-7.34246e-13
8.11005e-13
9.1048e-13
9.47757e-13
-3.25031e-12
1.57385e-12
1.08206e-12
-5.91619e-13
1.08206e-12
2.28696e-12
7.81695e-13
-2.03967e-12
2.08119e-12
2.98269e-12
2.13521e-12
-8.21387e-12
3.69862e-12
3.38686e-12
-3.09494e-12
3.38686e-12
4.84207e-12
2.8365e-12
-6.07828e-12
7.22838e-12
5.90943e-12
4.87617e-12
-2.13189e-11
9.99291e-12
7.70477e-12
-8.75212e-12
7.70477e-12
1.13107e-11
5.17522e-12
-1.83852e-11
2.07259e-11
1.41738e-11
9.62631e-12
-5.83398e-11
2.66084e-11
2.03244e-11
-3.01483e-11
2.03244e-11
2.59564e-11
1.32746e-11
-5.04358e-11
6.14655e-11
3.06775e-11
2.56368e-11
-1.57439e-10
7.471e-11
5.08599e-11
-8.05944e-11
5.08599e-11
6.72538e-11
2.64301e-11
-1.74554e-10
2.05761e-10
6.408e-11
4.57991e-11
-4.80789e-10
2.34758e-10
1.63037e-10
-3.1507e-10
1.63037e-10
1.96547e-10
5.71217e-11
-2.26955e-10
3.9523e-10
8.18715e-11
6.58242e-11
-9.49662e-10
3.57561e-10
2.2707e-10
-6.37562e-10
2.2707e-10
3.85486e-10
7.05642e-11
-1.06626e-10
4.58362e-10
2.80385e-11
-9.51936e-11
-1.08856e-09
5.23714e-11
1.14409e-10
-1.05677e-09
1.14409e-10
4.4582e-10
3.28921e-11
2.22356e-10
2.68063e-10
-8.3225e-11
-8.41738e-11
-6.2121e-10
-3.60961e-10
-2.19072e-10
-7.86971e-10
-2.19072e-10
2.58559e-10
-7.13047e-11
2.68815e-10
6.8222e-11
-8.74149e-11
2.94593e-11
-1.77121e-10
-2.80376e-10
-2.65992e-10
-1.96069e-10
-2.65992e-10
6.96333e-11
-8.49688e-11
4.92845e-11
2.97294e-11
-2.28051e-11
-7.31996e-12
-9.17014e-11
-6.01194e-11
-4.98711e-11
-1.10966e-10
-4.98711e-11
3.1117e-11
-2.07146e-11
3.8125e-11
8.7685e-12
-2.31743e-11
1.53262e-12
-2.75333e-11
-4.12382e-11
-3.95539e-11
-2.87933e-11
-3.95539e-11
1.06309e-11
-2.24293e-11
7.94552e-12
2.40649e-12
-4.06459e-12
-1.59291e-12
-1.33708e-11
-1.01206e-11
-8.52755e-12
-1.4924e-11
-8.52755e-12
3.74322e-12
-3.70801e-12
4.75487e-12
1.3172e-12
-5.25443e-12
-5.00849e-13
-4.57557e-12
-5.69667e-12
-5.77432e-12
-4.37708e-12
-5.77432e-12
1.95396e-12
-5.17081e-12
1.36007e-12
2.59526e-14
-6.00137e-13
-3.91755e-13
-2.0751e-12
-1.90797e-12
-1.55458e-12
-2.05143e-12
-1.55458e-12
4.64715e-13
-4.91848e-13
6.22345e-13
1.26501e-13
-1.09053e-12
-2.04965e-13
-6.44944e-13
-9.23739e-13
-9.497e-13
-5.61977e-13
-9.497e-13
3.60518e-13
-1.14779e-12
1.49809e-13
-9.61159e-15
-1.66013e-13
-1.17801e-13
-3.57465e-13
-3.01225e-13
-2.4498e-13
-3.07627e-13
-2.4498e-13
1.17771e-13
-1.13383e-13
1.01379e-13
4.60474e-15
-2.05632e-13
-7.2361e-14
-7.03965e-14
-2.02588e-13
-2.02343e-13
-4.76578e-14
-2.02343e-13
5.68576e-14
-2.24495e-13
1.44969e-14
-6.34706e-14
-4.66983e-14
-7.78158e-14
-7.05215e-14
-7.05215e-14
-6.09465e-14
-1.68207e-13
1.45798e-12
3.79496e-13
8.57952e-15
4.91598e-13
1.28407e-12
2.51686e-12
-3.6338e-13
2.73184e-12
7.02533e-13
5.16519e-13
7.81695e-13
2.28696e-12
4.08025e-12
-1.6444e-12
7.35894e-12
2.00475e-12
5.65987e-13
2.8365e-12
4.84207e-12
9.75326e-12
-3.54101e-12
1.68094e-11
3.93907e-12
3.07882e-12
5.17522e-12
1.13107e-11
2.01037e-11
-1.09095e-11
4.18927e-11
7.59593e-12
1.11818e-11
1.32746e-11
2.59564e-11
4.6653e-11
-2.41899e-11
9.676e-11
1.68675e-11
4.48344e-11
2.64301e-11
6.72538e-11
9.95132e-11
-5.88024e-11
2.19642e-10
2.3378e-11
1.97412e-10
5.71217e-11
1.96547e-10
2.13757e-10
-7.11616e-11
3.72676e-10
3.24326e-11
4.51379e-10
7.05642e-11
3.85486e-10
3.54885e-10
-2.93558e-11
4.3007e-10
-2.11827e-11
4.95578e-10
3.28921e-11
4.4582e-10
4.20669e-10
7.19123e-11
2.74933e-10
-3.94942e-11
2.46023e-10
-7.13047e-11
2.58559e-10
2.7806e-10
8.27407e-11
1.04777e-10
-7.90225e-12
5.629e-11
-8.49688e-11
6.96333e-11
1.08122e-10
1.86019e-11
6.33699e-11
-9.35976e-12
2.41323e-11
-2.07146e-11
3.1117e-11
6.66931e-11
2.05449e-11
1.96507e-11
-3.36153e-12
6.80049e-12
-2.24293e-11
1.06309e-11
2.18346e-11
2.77872e-12
1.28074e-11
-2.06812e-12
1.5267e-12
-3.70801e-12
3.74322e-12
1.44186e-11
4.22489e-12
3.32813e-12
-1.18576e-12
1.24069e-12
-5.17081e-12
1.95396e-12
4.07692e-12
2.88563e-13
2.43944e-12
-4.26514e-13
4.7801e-14
-4.91848e-13
4.64715e-13
3.09322e-12
7.54126e-13
5.94773e-13
-3.02276e-13
1.80453e-13
-1.14779e-12
3.60518e-13
7.97637e-13
4.95752e-14
3.79177e-13
-1.11147e-13
3.99458e-14
-1.13383e-13
1.17771e-13
5.70875e-13
1.05221e-13
6.83243e-14
-8.30733e-14
2.56593e-14
-2.24495e-13
5.68576e-14
1.21893e-13
4.86094e-15
-4.72891e-14
-6.09465e-14
)
;

boundaryField
{
    inlet
    {
        type            calculated;
        value           uniform 0;
    }
    outlet
    {
        type            calculated;
        value           nonuniform List<scalar> 
16
(
-6.97653e-14
9.23081e-13
-1.76483e-13
-8.23297e-13
9.23081e-13
2.3149e-12
9.70733e-13
-2.63341e-13
-1.76483e-13
9.70733e-13
-1.35611e-13
-9.18175e-13
-8.23297e-13
-2.63341e-13
-9.18175e-13
-1.53368e-12
)
;
    }
    walls
    {
        type            calculated;
        value           nonuniform List<scalar> 
320
(
0
0
0
1.93064e-28
1.32828e-25
1.08025e-22
5.58258e-20
9.96396e-18
1.4905e-20
5.49128e-24
0
0
0
0
0
0
0
0
0
0
0
0
0
2.23692e-26
3.05048e-23
3.04287e-20
1.32804e-17
7.17343e-16
7.57252e-18
2.63325e-21
0
0
0
0
0
0
0
0
0
0
0
0
0
1.18964e-26
1.40786e-23
1.70001e-20
6.56912e-18
3.47602e-16
3.87289e-18
1.56853e-21
0
0
0
0
0
0
0
0
0
0
0
0
0
2.85797e-29
2.38078e-26
2.78301e-23
1.92107e-20
4.94641e-18
7.49028e-21
4.19097e-24
0
0
0
0
0
0
0
0
0
0
0
0
0
-2.85797e-29
-2.38078e-26
-2.78301e-23
-1.92107e-20
-4.94641e-18
-7.49028e-21
-4.19097e-24
0
0
0
0
0
0
0
0
0
0
0
0
0
-7.97283e-27
-1.11283e-23
-1.67756e-20
-6.88319e-18
-3.40571e-16
-3.44634e-18
-2.33873e-21
0
0
0
0
0
0
0
0
0
0
0
0
0
-3.60046e-27
-4.58992e-24
-9.25205e-21
-4.43583e-18
-2.30899e-16
-2.51619e-18
-1.80094e-21
0
0
0
0
0
0
0
0
0
0
0
0
0
0
-7.27324e-27
-1.25714e-23
-1.31688e-20
-3.40721e-18
-7.77022e-21
-5.82967e-24
0
0
0
0
0
0
0
0
0
0
0
0
0
1.93064e-28
1.32828e-25
1.08025e-22
5.58258e-20
9.96396e-18
1.4905e-20
5.49128e-24
0
0
0
0
0
0
0
0
0
0
0
0
0
2.23692e-26
3.05048e-23
3.04287e-20
1.32804e-17
7.17343e-16
7.57252e-18
2.63325e-21
0
0
0
0
0
0
0
0
0
0
0
0
0
1.18964e-26
1.40786e-23
1.70001e-20
6.56912e-18
3.47602e-16
3.87289e-18
1.56853e-21
0
0
0
0
0
0
0
0
0
0
0
0
0
2.85797e-29
2.38078e-26
2.78301e-23
1.92107e-20
4.94641e-18
7.49028e-21
4.19097e-24
0
0
0
0
0
0
0
0
0
0
0
0
0
-2.85797e-29
-2.38078e-26
-2.78301e-23
-1.92107e-20
-4.94641e-18
-7.49028e-21
-4.19097e-24
0
0
0
0
0
0
0
0
0
0
0
0
0
-7.97283e-27
-1.11283e-23
-1.67756e-20
-6.88319e-18
-3.40571e-16
-3.44634e-18
-2.33873e-21
0
0
0
0
0
0
0
0
0
0
0
0
0
-3.60046e-27
-4.58992e-24
-9.25205e-21
-4.43583e-18
-2.30899e-16
-2.51619e-18
-1.80094e-21
0
0
0
0
0
0
0
0
0
0
0
0
0
0
-7.27324e-27
-1.25714e-23
-1.31688e-20
-3.40721e-18
-7.77022e-21
-5.82967e-24
0
0
0
0
0
0
0
0
0
0
)
;
    }
}


// ************************************************************************* //
