/*--------------------------------*- C++ -*----------------------------------*\
| =========                 |                                                 |
| \\      /  F ield         | OpenFOAM: The Open Source CFD Toolbox           |
|  \\    /   O peration     | Version:  5.x                                   |
|   \\  /    A nd           | Web:      www.OpenFOAM.org                      |
|    \\/     M anipulation  |                                                 |
\*---------------------------------------------------------------------------*/
FoamFile
{
    version     2.0;
    format      ascii;
    class       volVectorField;
    location    "0.06";
    object      U;
}
// * * * * * * * * * * * * * * * * * * * * * * * * * * * * * * * * * * * * * //

dimensions      [0 1 -1 0 0 0 0];

internalField   nonuniform List<vector> 
320
(
(-1.17488e-08 3.2936e-08 -1.17488e-08)
(6.08932e-09 -1.03166e-07 -1.91312e-08)
(7.1171e-08 5.26983e-08 -1.61781e-08)
(5.58904e-08 1.79915e-07 -3.84149e-08)
(-1.20169e-07 -2.56132e-08 -1.20169e-07)
(1.10863e-08 -3.45779e-07 -1.78378e-07)
(2.23998e-07 -9.11572e-08 -1.40174e-07)
(7.34887e-08 1.71999e-07 -7.44376e-08)
(-3.10133e-07 5.43072e-07 -3.10133e-07)
(-5.07704e-08 -1.27415e-07 -4.6408e-07)
(5.85993e-07 4.44152e-07 -3.50789e-07)
(3.03293e-07 8.81045e-07 -3.01915e-07)
(-7.78452e-07 8.26887e-07 -7.78452e-07)
(-1.16933e-07 -9.33637e-07 -1.45175e-06)
(1.2766e-06 1.50332e-07 -1.01749e-06)
(5.13629e-07 1.3093e-06 -6.23274e-07)
(-1.9751e-06 3.79102e-06 -1.9751e-06)
(-7.25881e-07 -4.70178e-07 -4.3357e-06)
(2.85557e-06 2.45123e-06 -2.87338e-06)
(1.4062e-06 4.62022e-06 -1.7711e-06)
(-4.96593e-06 8.61168e-06 -4.96593e-06)
(-1.62058e-06 1.1681e-07 -1.33232e-05)
(6.58677e-06 4.34153e-06 -8.09557e-06)
(2.7023e-06 9.41321e-06 -4.03894e-06)
(-1.02098e-05 2.38708e-05 -1.02098e-05)
(-5.22527e-06 1.33751e-05 -4.11842e-05)
(1.24469e-05 1.95848e-05 -2.40068e-05)
(6.37144e-06 2.42098e-05 -8.53471e-06)
(-1.53003e-05 4.73002e-05 -1.53003e-05)
(-6.72507e-06 4.55555e-05 -6.98125e-05)
(1.82067e-05 4.29389e-05 -3.87794e-05)
(7.64339e-06 4.52508e-05 -1.26157e-05)
(-3.87731e-06 6.98703e-05 -3.87731e-06)
(-7.099e-06 7.72388e-05 -4.50569e-06)
(4.22358e-06 7.25649e-05 -1.34077e-05)
(5.51761e-06 6.72353e-05 -4.47588e-06)
(1.55466e-05 6.57179e-05 1.55466e-05)
(5.85872e-06 6.52613e-05 7.04507e-05)
(-1.83851e-05 7.06147e-05 3.82835e-05)
(-7.38937e-06 6.5958e-05 1.26191e-05)
(1.30891e-05 2.42098e-05 1.30891e-05)
(1.08465e-05 1.21493e-05 4.72195e-05)
(-1.57375e-05 2.10596e-05 3.48329e-05)
(-1.07265e-05 2.53318e-05 1.17566e-05)
(3.45777e-06 1.02586e-05 3.45777e-06)
(1.8662e-06 -2.36374e-07 1.07631e-05)
(-4.83562e-06 2.45507e-06 6.90331e-06)
(-2.25523e-06 1.08088e-05 2.93878e-06)
(3.32893e-06 6.47168e-06 3.32893e-06)
(2.55332e-06 3.73522e-06 6.42573e-06)
(-4.13099e-06 5.45466e-06 5.07581e-06)
(-2.85985e-06 7.04743e-06 2.97445e-06)
(5.23412e-07 4.41468e-07 5.23412e-07)
(2.66854e-07 -2.46798e-06 1.69793e-06)
(-8.91721e-07 -1.64542e-06 1.09892e-06)
(-3.88011e-07 7.46792e-07 4.31373e-07)
(6.71612e-07 1.9864e-06 6.71612e-07)
(4.89326e-07 1.60419e-06 7.5106e-07)
(-9.05367e-07 1.90204e-06 6.68895e-07)
(-6.61934e-07 2.16557e-06 6.31943e-07)
(8.05194e-08 -6.50812e-07 8.05194e-08)
(2.7775e-08 -1.28609e-06 2.92904e-07)
(-1.63445e-07 -1.11198e-06 1.84632e-07)
(-5.1015e-08 -5.21399e-07 4.68984e-08)
(1.12556e-07 8.15035e-07 1.12556e-07)
(7.29063e-08 7.73791e-07 9.2168e-08)
(-1.76636e-07 8.36516e-07 9.91683e-08)
(-1.37545e-07 8.46065e-07 1.16e-07)
(1.37488e-08 -4.8687e-07 1.37488e-08)
(2.19722e-09 -6.03945e-07 4.08823e-08)
(-4.16913e-08 -5.74249e-07 2.03708e-08)
(-1.39847e-08 -4.41221e-07 7.93281e-09)
(1.84222e-08 4.06107e-07 1.84222e-08)
(7.51711e-09 4.07896e-07 1.80465e-08)
(-3.3491e-08 4.21281e-07 1.83538e-08)
(-2.54382e-08 4.16127e-07 1.83017e-08)
(4.74004e-11 -3.2681e-07 4.74004e-11)
(6.29904e-10 -3.47213e-07 1.83111e-09)
(-1.51381e-08 -3.44327e-07 5.8715e-12)
(-2.81898e-09 -3.19817e-07 -7.59344e-10)
(-1.91312e-08 -1.03166e-07 6.08932e-09)
(3.42243e-09 -3.08678e-07 3.42243e-09)
(5.14206e-08 -1.06617e-07 5.86823e-09)
(3.41214e-08 6.98959e-08 3.23602e-09)
(-1.78378e-07 -3.45779e-07 1.10863e-08)
(-3.00553e-09 -8.20663e-07 -3.00553e-09)
(3.32903e-07 -4.48436e-07 -1.68517e-08)
(1.40993e-07 -1.03753e-07 4.99925e-09)
(-4.6408e-07 -1.27415e-07 -5.07704e-08)
(-7.52636e-08 -1.43226e-06 -7.52636e-08)
(7.53091e-07 -4.46454e-07 -1.02643e-07)
(3.56137e-07 3.39942e-07 -6.243e-08)
(-1.45175e-06 -9.33637e-07 -1.16933e-07)
(-3.20817e-07 -5.00058e-06 -3.20817e-07)
(2.12667e-06 -2.50366e-06 -3.6943e-07)
(9.16874e-07 -2.08602e-07 -1.35929e-07)
(-4.3357e-06 -4.70178e-07 -7.25881e-07)
(-1.53917e-06 -1.26926e-05 -1.53917e-06)
(5.48684e-06 -4.78772e-06 -1.50648e-06)
(2.52064e-06 1.23949e-06 -7.79439e-07)
(-1.33232e-05 1.1681e-07 -1.62058e-06)
(-4.53802e-06 -3.81348e-05 -4.53802e-06)
(1.60933e-05 -1.76433e-05 -4.06783e-06)
(6.7928e-06 2.55553e-06 -1.5593e-06)
(-4.11842e-05 1.33751e-05 -5.22527e-06)
(-1.87732e-05 -5.49875e-05 -1.87732e-05)
(4.58739e-05 -1.67198e-05 -1.71051e-05)
(2.18306e-05 1.59766e-05 -5.31797e-06)
(-6.98125e-05 4.55555e-05 -6.72507e-06)
(-2.98381e-05 -0.000330561 -2.98381e-05)
(7.78425e-05 -0.000145831 -2.51851e-05)
(3.37586e-05 4.62231e-05 -6.51779e-06)
(-4.50569e-06 7.72388e-05 -7.099e-06)
(-1.72741e-05 -0.000449009 -1.72741e-05)
(5.87243e-06 -0.000188633 -3.41947e-05)
(1.43961e-05 8.32299e-05 -8.8857e-06)
(7.04507e-05 6.52613e-05 5.85872e-06)
(2.81554e-05 -0.000232635 2.81554e-05)
(-7.8359e-05 -0.000152704 2.1155e-05)
(-3.29902e-05 7.05987e-05 5.38134e-06)
(4.72195e-05 1.21493e-05 1.08465e-05)
(3.31195e-05 -7.477e-05 3.31195e-05)
(-5.36231e-05 -3.04401e-05 4.61438e-05)
(-3.37763e-05 1.65461e-05 1.20364e-05)
(1.07631e-05 -2.36374e-07 1.8662e-06)
(5.26723e-06 -4.63841e-05 5.26723e-06)
(-1.30609e-05 -3.14844e-05 6.77315e-06)
(-6.25822e-06 1.5543e-06 1.88539e-06)
(6.42573e-06 3.73522e-06 2.55332e-06)
(4.19538e-06 -5.66597e-06 4.19538e-06)
(-7.74404e-06 -4.88514e-07 6.07099e-06)
(-4.9729e-06 4.82724e-06 2.82779e-06)
(1.69793e-06 -2.46798e-06 2.66854e-07)
(8.17172e-07 -8.77214e-06 8.17172e-07)
(-2.20736e-06 -6.56289e-06 1.10383e-06)
(-1.0634e-06 -1.7828e-06 2.72856e-07)
(7.5106e-07 1.60419e-06 4.89326e-07)
(4.56098e-07 2.01734e-07 4.56098e-07)
(-1.02641e-06 1.01924e-06 6.87064e-07)
(-7.02052e-07 1.85802e-06 5.40133e-07)
(2.92904e-07 -1.28609e-06 2.7775e-08)
(1.26606e-07 -2.06306e-06 1.26606e-07)
(-4.19668e-07 -1.78931e-06 1.83273e-07)
(-1.90574e-07 -1.10126e-06 2.328e-08)
(9.2168e-08 7.73791e-07 7.29063e-08)
(5.22973e-08 5.37682e-07 5.22973e-08)
(-1.50509e-07 6.94244e-07 7.83091e-08)
(-1.21355e-07 8.35492e-07 9.03429e-08)
(4.08823e-08 -6.03945e-07 2.19722e-09)
(7.73189e-09 -7.05079e-07 7.73189e-09)
(-7.69966e-08 -6.80908e-07 1.82665e-08)
(-2.69088e-08 -5.59227e-07 3.52253e-09)
(1.80465e-08 4.07896e-07 7.51711e-09)
(5.99968e-09 3.83896e-07 5.99968e-09)
(-3.28637e-08 4.16932e-07 9.42595e-09)
(-2.56726e-08 4.23765e-07 9.65008e-09)
(1.83111e-09 -3.47213e-07 6.29905e-10)
(7.18506e-10 -3.65155e-07 7.18506e-10)
(-1.88538e-08 -3.644e-07 2.64108e-09)
(-3.76852e-09 -3.40934e-07 1.07394e-09)
(-1.61781e-08 5.26983e-08 7.1171e-08)
(5.86823e-09 -1.06617e-07 5.14206e-08)
(7.36937e-08 4.37788e-08 7.36937e-08)
(5.62706e-08 1.97137e-07 9.372e-08)
(-1.40174e-07 -9.11572e-08 2.23998e-07)
(-1.68517e-08 -4.48436e-07 3.32903e-07)
(2.40732e-07 -2.1437e-07 2.40732e-07)
(9.94982e-08 1.06162e-07 1.644e-07)
(-3.50789e-07 4.44152e-07 5.85993e-07)
(-1.02643e-07 -4.46454e-07 7.53091e-07)
(6.19042e-07 1.12858e-07 6.19042e-07)
(3.59497e-07 7.83777e-07 5.51453e-07)
(-1.01749e-06 1.50332e-07 1.2766e-06)
(-3.6943e-07 -2.50366e-06 2.12667e-06)
(1.50614e-06 -1.30797e-06 1.50614e-06)
(7.68533e-07 6.16805e-07 1.05642e-06)
(-2.87338e-06 2.45123e-06 2.85557e-06)
(-1.50648e-06 -4.78772e-06 5.48684e-06)
(3.70806e-06 -1.17861e-06 3.70806e-06)
(2.18439e-06 3.41024e-06 2.54166e-06)
(-8.09557e-06 4.34153e-06 6.58677e-06)
(-4.06783e-06 -1.76433e-05 1.60933e-05)
(9.82534e-06 -1.14664e-05 9.82534e-06)
(5.27666e-06 5.16508e-06 5.40624e-06)
(-2.40068e-05 1.95848e-05 1.24469e-05)
(-1.71051e-05 -1.67198e-05 4.58739e-05)
(2.63307e-05 -4.18962e-06 2.63307e-05)
(1.80869e-05 2.02218e-05 1.02756e-05)
(-3.87794e-05 4.29389e-05 1.82067e-05)
(-2.51851e-05 -0.000145831 7.78425e-05)
(4.26722e-05 -0.000105434 4.26722e-05)
(2.59622e-05 4.06132e-05 1.47632e-05)
(-1.34077e-05 7.25649e-05 4.22358e-06)
(-3.41947e-05 -0.000188633 5.87243e-06)
(1.2472e-05 -0.000118627 1.2472e-05)
(2.88652e-05 7.26509e-05 4.51012e-06)
(3.82835e-05 7.06147e-05 -1.83851e-05)
(2.1155e-05 -0.000152704 -7.8359e-05)
(-4.22964e-05 -0.000218885 -4.22964e-05)
(-2.30676e-05 6.59197e-05 -1.48478e-05)
(3.48329e-05 2.10596e-05 -1.57375e-05)
(4.61438e-05 -3.04401e-05 -5.36231e-05)
(-3.7134e-05 -2.01424e-05 -3.7134e-05)
(-4.28665e-05 2.21326e-05 -1.39503e-05)
(6.90331e-06 2.45507e-06 -4.83562e-06)
(6.77315e-06 -3.14844e-05 -1.30609e-05)
(-8.40189e-06 -3.96679e-05 -8.40189e-06)
(-6.94355e-06 2.15014e-06 -4.17941e-06)
(5.07581e-06 5.45466e-06 -4.13099e-06)
(6.07099e-06 -4.88514e-07 -7.74404e-06)
(-5.57334e-06 1.56088e-07 -5.57334e-06)
(-6.03247e-06 6.06129e-06 -3.66723e-06)
(1.09892e-06 -1.64542e-06 -8.91721e-07)
(1.10383e-06 -6.56289e-06 -2.20736e-06)
(-1.47163e-06 -7.30042e-06 -1.47163e-06)
(-1.20524e-06 -1.5314e-06 -7.90152e-07)
(6.68895e-07 1.90204e-06 -9.05367e-07)
(6.87064e-07 1.01924e-06 -1.02641e-06)
(-8.38999e-07 1.11197e-06 -8.38999e-07)
(-8.24708e-07 2.08254e-06 -8.45796e-07)
(1.84632e-07 -1.11198e-06 -1.63445e-07)
(1.83273e-07 -1.78931e-06 -4.19668e-07)
(-2.74999e-07 -1.80798e-06 -2.74999e-07)
(-2.10124e-07 -1.00709e-06 -1.30679e-07)
(9.91683e-08 8.36516e-07 -1.76636e-07)
(7.83091e-08 6.94244e-07 -1.50509e-07)
(-1.42771e-07 7.15785e-07 -1.42771e-07)
(-1.31844e-07 8.75828e-07 -1.76777e-07)
(2.03708e-08 -5.74249e-07 -4.16913e-08)
(1.82665e-08 -6.80908e-07 -7.69966e-08)
(-4.80561e-08 -6.71962e-07 -4.80561e-08)
(-2.89563e-08 -5.41424e-07 -3.13696e-08)
(1.83538e-08 4.21281e-07 -3.3491e-08)
(9.42595e-09 4.16932e-07 -3.28637e-08)
(-3.10157e-08 4.22816e-07 -3.10157e-08)
(-2.68384e-08 4.31217e-07 -3.45367e-08)
(5.8715e-12 -3.44327e-07 -1.51381e-08)
(2.64108e-09 -3.644e-07 -1.88538e-08)
(-1.55024e-08 -3.62554e-07 -1.55024e-08)
(-4.2413e-09 -3.38469e-07 -1.40277e-08)
(-3.84149e-08 1.79915e-07 5.58904e-08)
(3.23602e-09 6.98959e-08 3.41214e-08)
(9.372e-08 1.97137e-07 5.62706e-08)
(5.41109e-08 3.10348e-07 5.41109e-08)
(-7.44376e-08 1.71999e-07 7.34887e-08)
(4.99925e-09 -1.03753e-07 1.40993e-07)
(1.644e-07 1.06162e-07 9.94982e-08)
(6.60419e-08 3.50366e-07 6.60419e-08)
(-3.01915e-07 8.81045e-07 3.03293e-07)
(-6.243e-08 3.39942e-07 3.56137e-07)
(5.51453e-07 7.83777e-07 3.59497e-07)
(2.90775e-07 1.17619e-06 2.90775e-07)
(-6.23274e-07 1.3093e-06 5.13629e-07)
(-1.35929e-07 -2.08602e-07 9.16874e-07)
(1.05642e-06 6.16805e-07 7.68533e-07)
(4.7592e-07 1.73695e-06 4.7592e-07)
(-1.7711e-06 4.62022e-06 1.4062e-06)
(-7.79439e-07 1.23949e-06 2.52064e-06)
(2.54166e-06 3.41024e-06 2.18439e-06)
(1.38439e-06 5.33596e-06 1.38439e-06)
(-4.03894e-06 9.41321e-06 2.7023e-06)
(-1.5593e-06 2.55553e-06 6.7928e-06)
(5.40624e-06 5.16508e-06 5.27666e-06)
(2.48674e-06 9.96752e-06 2.48674e-06)
(-8.53471e-06 2.42098e-05 6.37144e-06)
(-5.31797e-06 1.59766e-05 2.18306e-05)
(1.02756e-05 2.02218e-05 1.80869e-05)
(6.14938e-06 2.43402e-05 6.14938e-06)
(-1.26157e-05 4.52508e-05 7.64339e-06)
(-6.51779e-06 4.62231e-05 3.37586e-05)
(1.47632e-05 4.06132e-05 2.59622e-05)
(7.15717e-06 4.32562e-05 7.15717e-06)
(-4.47588e-06 6.72353e-05 5.51761e-06)
(-8.8857e-06 8.32299e-05 1.43961e-05)
(4.51012e-06 7.26509e-05 2.88652e-05)
(6.91769e-06 6.45822e-05 6.91769e-06)
(1.26191e-05 6.5958e-05 -7.38937e-06)
(5.38134e-06 7.05987e-05 -3.29902e-05)
(-1.48478e-05 6.59197e-05 -2.30676e-05)
(-6.79405e-06 6.531e-05 -6.79405e-06)
(1.17566e-05 2.53318e-05 -1.07265e-05)
(1.20364e-05 1.65461e-05 -3.37763e-05)
(-1.39503e-05 2.21326e-05 -4.28665e-05)
(-1.1618e-05 2.61733e-05 -1.1618e-05)
(2.93878e-06 1.08088e-05 -2.25523e-06)
(1.88539e-06 1.5543e-06 -6.25822e-06)
(-4.17941e-06 2.15014e-06 -6.94355e-06)
(-2.20451e-06 1.12547e-05 -2.20451e-06)
(2.97445e-06 7.04743e-06 -2.85985e-06)
(2.82779e-06 4.82724e-06 -4.9729e-06)
(-3.66723e-06 6.06129e-06 -6.03247e-06)
(-3.05104e-06 7.5562e-06 -3.05104e-06)
(4.31373e-07 7.46791e-07 -3.88011e-07)
(2.72856e-07 -1.7828e-06 -1.0634e-06)
(-7.90152e-07 -1.5314e-06 -1.20524e-06)
(-3.88197e-07 1.02042e-06 -3.88197e-07)
(6.31943e-07 2.16557e-06 -6.61934e-07)
(5.40133e-07 1.85802e-06 -7.02052e-07)
(-8.45796e-07 2.08254e-06 -8.24708e-07)
(-6.94436e-07 2.34182e-06 -6.94436e-07)
(4.68984e-08 -5.21399e-07 -5.1015e-08)
(2.328e-08 -1.10126e-06 -1.90574e-07)
(-1.30679e-07 -1.00709e-06 -2.10124e-07)
(-4.69053e-08 -4.00934e-07 -4.69053e-08)
(1.16e-07 8.46065e-07 -1.37545e-07)
(9.03429e-08 8.35492e-07 -1.21355e-07)
(-1.76777e-07 8.75828e-07 -1.31844e-07)
(-1.50994e-07 8.83459e-07 -1.50994e-07)
(7.93281e-09 -4.41221e-07 -1.39847e-08)
(3.52253e-09 -5.59227e-07 -2.69088e-08)
(-3.13696e-08 -5.41424e-07 -2.89563e-08)
(-1.09204e-08 -3.99068e-07 -1.09204e-08)
(1.83017e-08 4.16127e-07 -2.54382e-08)
(9.65008e-09 4.23765e-07 -2.56726e-08)
(-3.45367e-08 4.31217e-07 -2.68384e-08)
(-2.8271e-08 4.2239e-07 -2.8271e-08)
(-7.59344e-10 -3.19817e-07 -2.81898e-09)
(1.07394e-09 -3.40934e-07 -3.76852e-09)
(-1.40277e-08 -3.38469e-07 -4.2413e-09)
(-3.07249e-09 -3.11421e-07 -3.07249e-09)
)
;

boundaryField
{
    inlet
    {
        type            fixedValue;
        value           uniform (0 0 0);
    }
    outlet
    {
        type            zeroGradient;
    }
    walls
    {
        type            fixedValue;
        value           uniform (0 0 0);
    }
}


// ************************************************************************* //
