/*--------------------------------*- C++ -*----------------------------------*\
| =========                 |                                                 |
| \\      /  F ield         | OpenFOAM: The Open Source CFD Toolbox           |
|  \\    /   O peration     | Version:  5.x                                   |
|   \\  /    A nd           | Web:      www.OpenFOAM.org                      |
|    \\/     M anipulation  |                                                 |
\*---------------------------------------------------------------------------*/
FoamFile
{
    version     2.0;
    format      ascii;
    class       volVectorField;
    location    "0.06";
    object      Us;
}
// * * * * * * * * * * * * * * * * * * * * * * * * * * * * * * * * * * * * * //

dimensions      [0 1 -1 0 0 0 0];

internalField   nonuniform List<vector> 
320
(
(-3.25285e-20 -1.50998e-16 -3.25285e-20)
(-2.64386e-19 -1.22728e-15 -2.64386e-19)
(-2.4224e-19 -1.12448e-15 -2.4224e-19)
(-7.19619e-21 -3.34048e-17 -7.19619e-21)
(-1.82774e-18 -8.48438e-15 -1.82774e-18)
(-1.67511e-17 -7.77589e-14 -1.67511e-17)
(-1.55359e-17 -7.21178e-14 -1.55359e-17)
(-4.55468e-19 -2.11429e-15 -4.55468e-19)
(-1.0071e-16 -4.67496e-13 -1.0071e-16)
(-1.05538e-15 -4.89911e-12 -1.05538e-15)
(-9.90784e-16 -4.59923e-12 -9.90784e-16)
(-2.86724e-17 -1.33098e-13 -2.86724e-17)
(-5.28443e-15 -2.45304e-11 -5.28443e-15)
(-6.46332e-14 -3.00028e-10 -6.46332e-14)
(-6.14284e-14 -2.85151e-10 -6.14284e-14)
(-1.75486e-15 -8.14609e-12 -1.75486e-15)
(-2.58774e-13 -1.20123e-09 -2.58774e-13)
(-3.79911e-12 -1.76355e-08 -3.79911e-12)
(-3.65606e-12 -1.69715e-08 -3.65606e-12)
(-1.03115e-13 -4.78659e-10 -1.03115e-13)
(-1.14037e-11 -5.29363e-08 -1.14037e-11)
(-2.0931e-10 -9.7162e-07 -2.0931e-10)
(-2.03993e-10 -9.46938e-07 -2.03993e-10)
(-5.68127e-12 -2.63725e-08 -5.68127e-12)
(-4.18765e-10 -1.94391e-06 -4.18765e-10)
(-1.02485e-08 -4.75738e-05 -1.02485e-08)
(-1.01172e-08 -4.69643e-05 -1.01172e-08)
(-2.78386e-10 -1.29227e-06 -2.78386e-10)
(-1.02532e-08 -4.75955e-05 -1.02532e-08)
(-3.76312e-07 -0.00174685 -3.76312e-07)
(-3.76378e-07 -0.00174715 -3.76378e-07)
(-1.02541e-08 -4.75997e-05 -1.02541e-08)
(-2.77407e-10 -1.28773e-06 -2.77407e-10)
(-1.01833e-08 -4.72708e-05 -1.01833e-08)
(-1.01833e-08 -4.72711e-05 -1.01833e-08)
(-2.77447e-10 -1.28791e-06 -2.77447e-10)
(-3.70347e-12 -1.71915e-08 -3.70347e-12)
(-1.35974e-10 -6.31194e-07 -1.35974e-10)
(-1.37755e-10 -6.39461e-07 -1.37755e-10)
(-5.62874e-12 -2.61287e-08 -5.62874e-12)
(0 0 0)
(0 0 0)
(0 0 0)
(0 0 0)
(0 0 0)
(0 0 0)
(0 0 0)
(0 0 0)
(0 0 0)
(0 0 0)
(0 0 0)
(0 0 0)
(0 0 0)
(0 0 0)
(0 0 0)
(0 0 0)
(0 0 0)
(0 0 0)
(0 0 0)
(0 0 0)
(0 0 0)
(0 0 0)
(0 0 0)
(0 0 0)
(0 0 0)
(0 0 0)
(0 0 0)
(0 0 0)
(0 0 0)
(0 0 0)
(0 0 0)
(0 0 0)
(0 0 0)
(0 0 0)
(0 0 0)
(0 0 0)
(0 0 0)
(0 0 0)
(0 0 0)
(0 0 0)
(-2.64386e-19 -1.22728e-15 -2.64386e-19)
(-2.42068e-18 -1.12368e-14 -2.42068e-18)
(-2.2448e-18 -1.04204e-14 -2.2448e-18)
(-6.57578e-20 -3.05249e-16 -6.57578e-20)
(-1.67511e-17 -7.77589e-14 -1.67511e-17)
(-1.7565e-16 -8.15371e-13 -1.7565e-16)
(-1.64903e-16 -7.65479e-13 -1.64903e-16)
(-4.76678e-18 -2.21274e-14 -4.76678e-18)
(-1.05538e-15 -4.89911e-12 -1.05538e-15)
(-1.2915e-14 -5.99514e-11 -1.2915e-14)
(-1.22746e-14 -5.69789e-11 -1.22746e-14)
(-3.50192e-16 -1.62559e-12 -3.50192e-16)
(-6.46332e-14 -3.00028e-10 -6.46332e-14)
(-9.49295e-13 -4.40664e-09 -9.49295e-13)
(-9.13535e-13 -4.24064e-09 -9.13535e-13)
(-2.57229e-14 -1.19406e-10 -2.57229e-14)
(-3.79911e-12 -1.76355e-08 -3.79911e-12)
(-6.97539e-11 -3.23798e-07 -6.97539e-11)
(-6.79791e-11 -3.1556e-07 -6.79791e-11)
(-1.88913e-12 -8.76937e-09 -1.88913e-12)
(-2.0931e-10 -9.7162e-07 -2.0931e-10)
(-5.12378e-09 -2.37847e-05 -5.12378e-09)
(-5.05775e-09 -2.34781e-05 -5.05775e-09)
(-1.38718e-10 -6.43931e-07 -1.38718e-10)
(-1.02485e-08 -4.75738e-05 -1.02485e-08)
(-3.7624e-07 -0.00174651 -3.7624e-07)
(-3.76243e-07 -0.00174653 -3.76243e-07)
(-1.01843e-08 -4.72754e-05 -1.01843e-08)
(-3.76312e-07 -0.00174685 -3.76312e-07)
(-2.76128e-05 -0.128179 -2.76128e-05)
(-2.76128e-05 -0.128179 -2.76128e-05)
(-3.76448e-07 -0.00174748 -3.76448e-07)
(-1.01833e-08 -4.72708e-05 -1.01833e-08)
(-3.76374e-07 -0.00174713 -3.76374e-07)
(-3.76312e-07 -0.00174685 -3.76312e-07)
(-1.012e-08 -4.69772e-05 -1.012e-08)
(-1.35974e-10 -6.31194e-07 -1.35974e-10)
(-4.99412e-09 -2.31827e-05 -4.99412e-09)
(-5.05777e-09 -2.34782e-05 -5.05777e-09)
(-2.04004e-10 -9.4699e-07 -2.04004e-10)
(0 0 0)
(0 0 0)
(0 0 0)
(0 0 0)
(0 0 0)
(0 0 0)
(0 0 0)
(0 0 0)
(0 0 0)
(0 0 0)
(0 0 0)
(0 0 0)
(0 0 0)
(0 0 0)
(0 0 0)
(0 0 0)
(0 0 0)
(0 0 0)
(0 0 0)
(0 0 0)
(0 0 0)
(0 0 0)
(0 0 0)
(0 0 0)
(0 0 0)
(0 0 0)
(0 0 0)
(0 0 0)
(0 0 0)
(0 0 0)
(0 0 0)
(0 0 0)
(0 0 0)
(0 0 0)
(0 0 0)
(0 0 0)
(0 0 0)
(0 0 0)
(0 0 0)
(0 0 0)
(-2.4224e-19 -1.12448e-15 -2.4224e-19)
(-2.2448e-18 -1.04204e-14 -2.2448e-18)
(-2.08408e-18 -9.67434e-15 -2.08408e-18)
(-6.09801e-20 -2.8307e-16 -6.09801e-20)
(-1.55359e-17 -7.21178e-14 -1.55359e-17)
(-1.64903e-16 -7.65479e-13 -1.64903e-16)
(-1.54971e-16 -7.19375e-13 -1.54971e-16)
(-4.47519e-18 -2.07739e-14 -4.47519e-18)
(-9.90784e-16 -4.59923e-12 -9.90784e-16)
(-1.22746e-14 -5.69789e-11 -1.22746e-14)
(-1.16765e-14 -5.42025e-11 -1.16765e-14)
(-3.32841e-16 -1.54505e-12 -3.32841e-16)
(-6.14284e-14 -2.85151e-10 -6.14284e-14)
(-9.13535e-13 -4.24064e-09 -9.13535e-13)
(-8.79799e-13 -4.08403e-09 -8.79799e-13)
(-2.47552e-14 -1.14914e-10 -2.47552e-14)
(-3.65606e-12 -1.69715e-08 -3.65606e-12)
(-6.79791e-11 -3.1556e-07 -6.79791e-11)
(-6.62914e-11 -3.07725e-07 -6.62914e-11)
(-1.84119e-12 -8.54682e-09 -1.84119e-12)
(-2.03993e-10 -9.46938e-07 -2.03993e-10)
(-5.05775e-09 -2.34781e-05 -5.05775e-09)
(-4.995e-09 -2.31868e-05 -4.995e-09)
(-1.36941e-10 -6.35679e-07 -1.36941e-10)
(-1.01172e-08 -4.69643e-05 -1.01172e-08)
(-3.76243e-07 -0.00174653 -3.76243e-07)
(-3.76372e-07 -0.00174712 -3.76372e-07)
(-1.01852e-08 -4.72796e-05 -1.01852e-08)
(-3.76378e-07 -0.00174715 -3.76378e-07)
(-2.76128e-05 -0.128179 -2.76128e-05)
(-2.76128e-05 -0.128179 -2.76128e-05)
(-3.7645e-07 -0.00174749 -3.7645e-07)
(-1.01833e-08 -4.72711e-05 -1.01833e-08)
(-3.76312e-07 -0.00174685 -3.76312e-07)
(-3.76376e-07 -0.00174714 -3.76376e-07)
(-1.02523e-08 -4.75915e-05 -1.02523e-08)
(-1.37755e-10 -6.39461e-07 -1.37755e-10)
(-5.05777e-09 -2.34782e-05 -5.05777e-09)
(-5.12474e-09 -2.37891e-05 -5.12474e-09)
(-2.09338e-10 -9.71751e-07 -2.09338e-10)
(0 0 0)
(0 0 0)
(0 0 0)
(0 0 0)
(0 0 0)
(0 0 0)
(0 0 0)
(0 0 0)
(0 0 0)
(0 0 0)
(0 0 0)
(0 0 0)
(0 0 0)
(0 0 0)
(0 0 0)
(0 0 0)
(0 0 0)
(0 0 0)
(0 0 0)
(0 0 0)
(0 0 0)
(0 0 0)
(0 0 0)
(0 0 0)
(0 0 0)
(0 0 0)
(0 0 0)
(0 0 0)
(0 0 0)
(0 0 0)
(0 0 0)
(0 0 0)
(0 0 0)
(0 0 0)
(0 0 0)
(0 0 0)
(0 0 0)
(0 0 0)
(0 0 0)
(0 0 0)
(-7.19619e-21 -3.34048e-17 -7.19619e-21)
(-6.57578e-20 -3.05249e-16 -6.57578e-20)
(-6.09801e-20 -2.8307e-16 -6.09801e-20)
(-1.80973e-21 -8.40079e-18 -1.80973e-21)
(-4.55468e-19 -2.11429e-15 -4.55468e-19)
(-4.76678e-18 -2.21274e-14 -4.76678e-18)
(-4.47519e-18 -2.07739e-14 -4.47519e-18)
(-1.31056e-19 -6.08362e-16 -1.31056e-19)
(-2.86724e-17 -1.33098e-13 -2.86724e-17)
(-3.50192e-16 -1.62559e-12 -3.50192e-16)
(-3.32841e-16 -1.54505e-12 -3.32841e-16)
(-9.61998e-18 -4.4656e-14 -9.61998e-18)
(-1.75486e-15 -8.14609e-12 -1.75486e-15)
(-2.57229e-14 -1.19406e-10 -2.57229e-14)
(-2.47552e-14 -1.14914e-10 -2.47552e-14)
(-7.06144e-16 -3.27793e-12 -7.06144e-16)
(-1.03115e-13 -4.78659e-10 -1.03115e-13)
(-1.88913e-12 -8.76937e-09 -1.88913e-12)
(-1.84119e-12 -8.54682e-09 -1.84119e-12)
(-5.18338e-14 -2.40613e-10 -5.18338e-14)
(-5.68127e-12 -2.63725e-08 -5.68127e-12)
(-1.38718e-10 -6.43931e-07 -1.38718e-10)
(-1.36941e-10 -6.35679e-07 -1.36941e-10)
(-3.8048e-12 -1.76619e-08 -3.8048e-12)
(-2.78386e-10 -1.29227e-06 -2.78386e-10)
(-1.01843e-08 -4.72754e-05 -1.01843e-08)
(-1.01852e-08 -4.72796e-05 -1.01852e-08)
(-2.79288e-10 -1.29646e-06 -2.79288e-10)
(-1.02541e-08 -4.75997e-05 -1.02541e-08)
(-3.76448e-07 -0.00174748 -3.76448e-07)
(-3.7645e-07 -0.00174749 -3.7645e-07)
(-1.0257e-08 -4.76133e-05 -1.0257e-08)
(-2.77447e-10 -1.28791e-06 -2.77447e-10)
(-1.012e-08 -4.69772e-05 -1.012e-08)
(-1.02523e-08 -4.75915e-05 -1.02523e-08)
(-4.18922e-10 -1.94464e-06 -4.18922e-10)
(-5.62874e-12 -2.61287e-08 -5.62874e-12)
(-2.04004e-10 -9.4699e-07 -2.04004e-10)
(-2.09338e-10 -9.71751e-07 -2.09338e-10)
(-1.14045e-11 -5.29399e-08 -1.14045e-11)
(0 0 0)
(0 0 0)
(0 0 0)
(0 0 0)
(0 0 0)
(0 0 0)
(0 0 0)
(0 0 0)
(0 0 0)
(0 0 0)
(0 0 0)
(0 0 0)
(0 0 0)
(0 0 0)
(0 0 0)
(0 0 0)
(0 0 0)
(0 0 0)
(0 0 0)
(0 0 0)
(0 0 0)
(0 0 0)
(0 0 0)
(0 0 0)
(0 0 0)
(0 0 0)
(0 0 0)
(0 0 0)
(0 0 0)
(0 0 0)
(0 0 0)
(0 0 0)
(0 0 0)
(0 0 0)
(0 0 0)
(0 0 0)
(0 0 0)
(0 0 0)
(0 0 0)
(0 0 0)
)
;

boundaryField
{
    inlet
    {
        type            zeroGradient;
    }
    outlet
    {
        type            zeroGradient;
    }
    walls
    {
        type            zeroGradient;
    }
}


// ************************************************************************* //
