FoamFile
{version 2.0; format ascii;class vectorField; location 0;object  v;}
1
(
( -1.16177e-10 -0.105161 -1.16177e-10 )  
)
