/*--------------------------------*- C++ -*----------------------------------*\
| =========                 |                                                 |
| \\      /  F ield         | OpenFOAM: The Open Source CFD Toolbox           |
|  \\    /   O peration     | Version:  5.x                                   |
|   \\  /    A nd           | Web:      www.OpenFOAM.org                      |
|    \\/     M anipulation  |                                                 |
\*---------------------------------------------------------------------------*/
FoamFile
{
    version     2.0;
    format      ascii;
    class       volScalarField;
    location    "0.07";
    object      Ksl;
}
// * * * * * * * * * * * * * * * * * * * * * * * * * * * * * * * * * * * * * //

dimensions      [1 -3 -1 0 0 0 0];

internalField   nonuniform List<scalar> 
320
(
0
0
0
0
0
0
0
0
2.67377e-05
0.000121171
8.54767e-05
0
0.000816457
0.00328423
0.00252751
0.000254856
0.018754
0.0792767
0.0649949
0.00587051
0.473374
0.931362
0.544212
0.121102
0.977037
1.01692
0.529431
0.480554
2.13799
2.19383
1.02018
0.87981
1.79352
2.81015
1.26321
0.261198
0.0117355
0.0209463
0.0189485
0.00331722
0.000263051
0.000546572
0.000395166
7.87946e-05
1.35706e-05
3.04389e-05
2.28731e-05
-5.049e-21
0
0
0
0
0
0
0
0
0
0
0
0
0
0
0
0
0
0
0
0
0
0
0
0
0
0
0
0
0
0
0
0
0
0
0
0
0
1.77028e-05
1.18341e-05
0
0.000121171
0.000720364
0.000540138
5.27433e-05
0.00328423
0.0249572
0.0197496
0.00199738
0.0792767
2.08839
0.911173
0.0695392
0.931362
1.04692
0.537094
0.619436
1.01692
1.00941
0.516449
0.523058
2.19383
2.22372
1.01115
0.988956
2.81015
2.98312
1.1779
0.750385
0.0209463
0.158262
0.108025
0.0242724
0.000546572
0.00512928
0.00319047
0.000412163
3.04389e-05
0.00013868
9.06409e-05
2.38719e-05
0
5.67448e-06
3.58306e-06
0
0
0
0
0
0
0
0
0
0
0
0
0
0
0
0
0
0
0
0
0
0
0
0
0
0
0
0
0
0
0
0
0
0
1.18341e-05
1.18937e-05
0
8.54767e-05
0.000540138
0.000623728
6.3924e-05
0.00252751
0.0197496
0.0249837
0.00283458
0.0649949
0.911173
0.814119
0.104563
0.544212
0.537094
0.514134
0.548878
0.529431
0.516449
0.503499
0.503533
1.02018
1.01115
0.51718
0.519967
1.26321
1.1779
0.586232
0.411624
0.0189485
0.108025
0.051934
0.0157546
0.000395166
0.00319047
0.00212661
0.000190154
2.28731e-05
9.06409e-05
4.66534e-05
1.49049e-05
0
3.58306e-06
2.37951e-06
0
0
0
0
0
0
0
0
0
0
0
0
0
0
0
0
0
0
0
0
0
0
0
0
0
0
0
0
0
0
0
0
0
0
0
0
0
0
5.27433e-05
6.3924e-05
0
0.000254856
0.00199738
0.00283458
0.000284175
0.00587051
0.0695392
0.104563
0.0139264
0.121102
0.619436
0.548878
0.469488
0.480554
0.523058
0.503533
0.472394
0.87981
0.988956
0.519967
0.431626
0.261198
0.750385
0.411624
0.06971
0.00331722
0.0242724
0.0157546
0.00294789
7.87946e-05
0.000412163
0.000190154
8.90958e-05
-5.049e-21
2.38719e-05
1.49049e-05
0
0
0
0
0
0
0
0
0
0
0
0
0
0
0
0
0
0
0
0
0
0
0
0
0
0
0
0
0
0
0
0
0
)
;

boundaryField
{
    inlet
    {
        type            zeroGradient;
    }
    outlet
    {
        type            zeroGradient;
    }
    walls
    {
        type            zeroGradient;
    }
}


// ************************************************************************* //
