/*--------------------------------*- C++ -*----------------------------------*\
| =========                 |                                                 |
| \\      /  F ield         | OpenFOAM: The Open Source CFD Toolbox           |
|  \\    /   O peration     | Version:  5.x                                   |
|   \\  /    A nd           | Web:      www.OpenFOAM.org                      |
|    \\/     M anipulation  |                                                 |
\*---------------------------------------------------------------------------*/
FoamFile
{
    version     2.0;
    format      ascii;
    class       surfaceScalarField;
    location    "0.07";
    object      phi;
}
// * * * * * * * * * * * * * * * * * * * * * * * * * * * * * * * * * * * * * //

dimensions      [0 3 -1 0 0 0 0];

internalField   nonuniform List<scalar> 
784
(
-7.35456e-13
-4.92539e-12
-7.35456e-13
-3.30761e-13
-7.69515e-12
-1.6711e-12
1.68947e-14
-8.04832e-12
-1.51797e-12
-7.27809e-12
-1.45155e-12
-2.27485e-12
-3.77011e-12
-2.27485e-12
-9.02063e-13
-7.79196e-12
-6.18141e-12
1.77594e-13
-7.82728e-12
-5.39929e-12
-6.15396e-12
-4.79097e-12
-4.58708e-12
-1.738e-12
-4.58708e-12
-1.44568e-12
-8.32635e-12
-1.52031e-11
1.09763e-12
-7.78967e-12
-1.23708e-11
-3.83172e-12
-1.01589e-11
-7.94683e-12
1.31147e-12
-7.94683e-12
-1.87951e-12
-9.51945e-12
-3.5684e-11
2.72738e-12
-7.72275e-12
-2.66214e-11
1.92221e-13
-1.89651e-11
-1.44452e-11
5.97101e-12
-1.44452e-11
-1.39957e-12
-1.29423e-11
-8.49287e-11
9.31497e-12
-9.57922e-12
-5.87362e-11
7.28532e-12
-3.40684e-11
-1.70812e-11
7.50458e-12
-1.70812e-11
-2.90039e-12
-1.77756e-11
-1.85368e-10
1.02653e-11
-1.11273e-11
-1.19943e-10
1.37919e-11
-5.60195e-11
-4.51391e-11
1.19511e-11
-4.51391e-11
3.87376e-12
-3.44347e-11
-5.93302e-10
4.64402e-11
-1.12907e-11
-3.56238e-10
3.13301e-11
-9.73953e-11
-1.82803e-11
-7.31081e-13
-1.82803e-11
8.32247e-13
-1.21141e-10
-4.95508e-10
2.51125e-11
-4.97922e-11
-2.89769e-10
2.61306e-11
-7.86882e-11
-2.58627e-13
1.65909e-11
-2.58627e-13
1.61366e-12
-1.31217e-10
1.93162e-10
3.18221e-11
-3.91341e-11
-1.55092e-11
1.94864e-11
1.86642e-11
3.07275e-11
3.22673e-11
3.07275e-11
8.5953e-12
-5.78993e-11
5.60513e-10
-1.4555e-11
-1.49489e-11
3.33684e-10
1.59089e-11
1.02439e-10
4.69393e-11
1.86947e-11
4.69393e-11
1.09261e-11
-1.68428e-11
4.22344e-10
-4.69345e-11
-1.52894e-11
3.53182e-10
1.23929e-11
8.93568e-11
1.57493e-11
1.37694e-11
1.57493e-11
4.88401e-12
-6.85197e-12
1.29174e-10
-1.12506e-11
-1.111e-11
9.635e-11
9.39535e-12
4.34396e-11
1.39677e-11
7.48955e-12
1.39677e-11
4.03967e-12
-8.67461e-13
8.3027e-11
-1.4157e-11
-4.4029e-12
6.75038e-11
6.4219e-12
3.35589e-11
4.62852e-12
5.07947e-12
4.62852e-12
1.97839e-12
-4.07242e-13
2.81687e-11
-3.67293e-12
-2.71495e-12
2.29773e-11
4.54931e-12
1.58582e-11
4.1751e-12
2.86374e-12
4.1751e-12
1.23961e-12
6.9567e-13
1.55441e-11
-3.64618e-12
-5.5499e-13
1.36957e-11
2.65656e-12
1.0788e-11
1.56393e-12
1.8497e-12
1.56393e-12
8.48301e-13
3.37097e-13
6.67533e-12
-7.53848e-13
-3.66002e-13
6.2085e-12
1.68439e-12
5.4376e-12
1.32266e-12
1.08336e-12
1.32266e-12
5.58169e-13
4.42136e-13
3.2377e-12
-7.17999e-13
9.63989e-14
3.22926e-12
8.82581e-13
3.3222e-12
5.99631e-13
6.50293e-13
5.99631e-13
4.06773e-13
2.1041e-13
1.72249e-12
-3.54282e-15
-1.14915e-14
1.82448e-12
4.7758e-13
1.806e-12
4.78873e-13
3.2896e-13
4.78873e-13
3.15131e-13
1.23649e-13
8.60709e-13
-2.40667e-14
3.09788e-14
9.48752e-13
1.9928e-13
1.077e-12
2.49867e-13
2.49867e-13
2.33079e-13
4.98576e-13
1.37191e-13
5.71752e-13
5.94579e-13
-1.6711e-12
-7.69515e-12
-3.30761e-13
-4.56304e-13
-1.67156e-11
-4.56304e-13
1.27376e-13
-1.5269e-11
-5.48152e-13
-1.33508e-11
-6.66683e-13
-6.18141e-12
-7.79196e-12
-9.02063e-13
-1.21886e-12
-2.66407e-11
-1.21886e-12
1.0349e-12
-2.13515e-11
-1.57057e-12
-1.60442e-11
-1.8566e-12
-1.52031e-11
-8.32635e-12
-1.44568e-12
-1.69136e-12
-5.36642e-11
-1.69136e-12
4.44363e-12
-3.7376e-11
-2.48126e-12
-2.15434e-11
-3.12437e-12
-3.5684e-11
-9.51945e-12
-1.87951e-12
-1.14773e-12
-1.22737e-10
-1.14773e-12
1.43603e-11
-7.65423e-11
-2.96307e-12
-3.06111e-11
-4.11336e-12
-8.49287e-11
-1.29423e-11
-1.39957e-12
7.37035e-12
-3.07335e-10
7.37035e-12
4.68657e-11
-1.73559e-10
-1.21461e-12
-4.06404e-11
-4.36327e-12
-1.85368e-10
-1.77756e-11
-2.90039e-12
2.74243e-11
-7.3292e-10
2.74243e-11
1.10966e-10
-3.80905e-10
3.86068e-12
-4.68934e-11
-3.17406e-12
-5.93302e-10
-3.44347e-11
3.87376e-12
1.72829e-10
-2.26518e-09
1.72829e-10
4.48483e-10
-1.06739e-09
5.45951e-11
3.98979e-11
7.28861e-12
-4.95508e-10
-1.21141e-10
8.32247e-13
1.33576e-10
-3.52335e-09
1.33576e-10
3.96372e-10
-1.65645e-09
3.64936e-11
1.11444e-10
8.96007e-12
1.93162e-10
-1.31217e-10
1.61366e-12
-1.32452e-10
-2.87212e-09
-1.32452e-10
-9.68503e-11
-1.62331e-09
-8.42562e-11
2.41442e-11
-1.01076e-11
5.60513e-10
-5.78993e-11
8.5953e-12
-1.37162e-10
-1.47677e-09
-1.37162e-10
-4.26084e-10
-9.59856e-10
-4.08429e-11
-4.9471e-11
-8.80581e-12
4.22344e-10
-1.68428e-11
1.09261e-11
-4.865e-11
-5.34787e-10
-4.865e-11
-3.44632e-10
-3.36041e-10
2.53493e-11
-5.23537e-11
2.78035e-12
1.29174e-10
-6.85197e-12
4.88401e-12
-8.46731e-12
-2.59503e-10
-8.46731e-12
-7.5227e-11
-1.79213e-10
6.28153e-12
-3.4513e-11
6.36561e-12
8.3027e-11
-8.67461e-13
4.03967e-12
7.55392e-13
-9.496e-11
7.55392e-13
-5.26021e-11
-6.59396e-11
7.58781e-12
-1.97378e-11
6.24907e-12
2.81687e-11
-4.07242e-13
1.97839e-12
2.65732e-12
-4.39372e-11
2.65732e-12
-1.13477e-11
-3.31726e-11
4.21534e-12
-1.12585e-11
5.56449e-12
1.55441e-11
6.9567e-13
1.23961e-12
2.17076e-12
-1.71906e-11
2.17076e-12
-6.87435e-12
-1.36547e-11
3.22287e-12
-5.78808e-12
4.30501e-12
6.67533e-12
3.37097e-13
8.48301e-13
1.77708e-12
-7.39415e-12
1.77708e-12
-1.42428e-12
-6.43298e-12
2.18817e-12
-3.09958e-12
2.91563e-12
3.2377e-12
4.42136e-13
5.58169e-13
1.08798e-12
-3.0947e-12
1.08798e-12
-5.92324e-13
-2.9497e-12
1.4263e-12
-1.59178e-12
1.98241e-12
1.72249e-12
2.1041e-13
4.06773e-13
8.06108e-13
-1.26191e-12
8.06108e-13
8.95893e-15
-1.33222e-12
1.00415e-12
-8.50776e-13
1.24836e-12
8.60709e-13
1.23649e-13
3.15131e-13
5.05374e-13
-5.51248e-13
5.05374e-13
1.23997e-13
-6.43348e-13
6.41252e-13
-4.47271e-13
8.26297e-13
4.98576e-13
2.33079e-13
3.67661e-13
3.67661e-13
1.86225e-13
4.44262e-13
5.17406e-13
-1.51797e-12
-8.04832e-12
1.68947e-14
-5.48152e-13
-1.5269e-11
1.27376e-13
1.92723e-14
-1.50696e-11
1.92723e-14
-1.33705e-11
-3.11058e-13
-5.39929e-12
-7.82728e-12
1.77594e-13
-1.57057e-12
-2.13515e-11
1.0349e-12
5.98752e-13
-1.94083e-11
5.98752e-13
-1.46865e-11
-5.68549e-13
-1.23708e-11
-7.78967e-12
1.09763e-12
-2.48126e-12
-3.7376e-11
4.44363e-12
3.1444e-12
-3.06596e-11
3.1444e-12
-1.70678e-11
-5.65583e-14
-2.66214e-11
-7.72275e-12
2.72738e-12
-2.96307e-12
-7.65423e-11
1.43603e-11
1.04204e-11
-5.74265e-11
1.04204e-11
-1.97695e-11
1.71808e-12
-5.87362e-11
-9.57922e-12
9.31497e-12
-1.21461e-12
-1.73559e-10
4.68657e-11
3.41627e-11
-1.28181e-10
3.41627e-11
-2.04511e-11
7.53004e-12
-1.19943e-10
-1.11273e-11
1.02653e-11
3.86068e-12
-3.80905e-10
1.10966e-10
7.77834e-11
-2.76027e-10
7.77834e-11
-1.47111e-11
1.64299e-11
-3.56238e-10
-1.12907e-11
4.64402e-11
5.45951e-11
-1.06739e-09
4.48483e-10
2.99809e-10
-7.66455e-10
2.99809e-10
3.75989e-11
4.84581e-11
-2.89769e-10
-4.97922e-11
2.51125e-11
3.64936e-11
-1.65645e-09
3.96372e-10
2.51854e-10
-1.19718e-09
2.51854e-10
6.70666e-11
3.99041e-11
-1.55092e-11
-3.91341e-11
3.18221e-11
-8.42562e-11
-1.62331e-09
-9.68503e-11
5.79658e-11
-1.48162e-09
5.79658e-11
-2.29284e-11
-9.27284e-12
3.33684e-10
-1.49489e-11
-1.4555e-11
-4.08429e-11
-9.59856e-10
-4.26084e-10
-2.57844e-10
-1.04762e-09
-2.57844e-10
-6.00462e-11
-5.35424e-11
3.53182e-10
-1.52894e-11
-4.69345e-11
2.53493e-11
-3.36041e-10
-3.44632e-10
-3.29528e-10
-3.37865e-10
-3.29528e-10
-3.11053e-11
-4.18348e-11
9.635e-11
-1.111e-11
-1.12506e-11
6.28153e-12
-1.79213e-10
-7.5227e-11
-6.72735e-11
-1.90754e-10
-6.72735e-11
-2.08861e-11
-8.24443e-12
6.75038e-11
-4.4029e-12
-1.4157e-11
7.58781e-12
-6.59396e-11
-5.26021e-11
-5.39625e-11
-6.76539e-11
-5.39625e-11
-1.15766e-11
-6.1284e-12
2.29773e-11
-2.71495e-12
-3.67293e-12
4.21534e-12
-3.31726e-11
-1.13477e-11
-1.19968e-11
-3.52297e-11
-1.19968e-11
-7.72295e-12
1.74551e-12
1.36957e-11
-5.5499e-13
-3.64618e-12
3.22287e-12
-1.36547e-11
-6.87435e-12
-7.15884e-12
-1.44663e-11
-7.15884e-12
-4.46139e-12
1.06258e-12
6.2085e-12
-3.66002e-13
-7.53848e-13
2.18817e-12
-6.43298e-12
-1.42428e-12
-1.4892e-12
-7.11157e-12
-1.4892e-12
-2.91202e-12
1.8123e-12
3.22926e-12
9.63989e-14
-7.17999e-13
1.4263e-12
-2.9497e-12
-5.92324e-13
-4.37077e-13
-3.38482e-12
-4.37077e-13
-1.75335e-12
1.14506e-12
1.82448e-12
-1.14915e-14
-3.54282e-15
1.00415e-12
-1.33222e-12
8.95894e-15
1.29775e-13
-1.63609e-12
1.29775e-13
-1.08897e-12
8.58646e-13
9.48752e-13
3.09788e-14
-2.40667e-14
6.41252e-13
-6.43348e-13
1.23997e-13
2.34155e-13
-8.21894e-13
2.34155e-13
-6.28387e-13
5.6819e-13
5.71752e-13
1.37191e-13
4.44262e-13
1.86225e-13
2.42126e-13
2.42126e-13
3.84227e-13
-1.45155e-12
-7.27809e-12
-6.66683e-13
-1.33508e-11
-3.11058e-13
-1.33705e-11
-1.34825e-11
-4.79097e-12
-6.15396e-12
-1.8566e-12
-1.60442e-11
-5.68549e-13
-1.46865e-11
-1.40976e-11
-1.01589e-11
-3.83172e-12
-3.12437e-12
-2.15434e-11
-5.65583e-14
-1.70678e-11
-1.41269e-11
-1.89651e-11
1.92221e-13
-4.11336e-12
-3.06111e-11
1.71808e-12
-1.97695e-11
-1.26015e-11
-3.40684e-11
7.28532e-12
-4.36327e-12
-4.06404e-11
7.53004e-12
-2.04511e-11
-6.13365e-12
-5.60195e-11
1.37919e-11
-3.17406e-12
-4.68934e-11
1.64299e-11
-1.47111e-11
8.82312e-12
-9.73953e-11
3.13301e-11
7.28861e-12
3.98979e-11
4.84581e-11
3.75989e-11
4.92383e-11
-7.86882e-11
2.61306e-11
8.96007e-12
1.11444e-10
3.99041e-11
6.70666e-11
7.98454e-11
1.86642e-11
1.94864e-11
-1.01076e-11
2.41442e-11
-9.27284e-12
-2.29284e-11
6.53361e-11
1.02439e-10
1.59089e-11
-8.80581e-12
-4.9471e-11
-5.35424e-11
-6.00462e-11
2.29063e-11
8.93568e-11
1.23929e-11
2.78035e-12
-5.23537e-11
-4.18348e-11
-3.11053e-11
3.88894e-12
4.34396e-11
9.39535e-12
6.36561e-12
-3.4513e-11
-8.24443e-12
-2.08861e-11
-2.9003e-12
3.35589e-11
6.4219e-12
6.24907e-12
-1.97378e-11
-6.1284e-12
-1.15766e-11
-5.65035e-12
1.58582e-11
4.54931e-12
5.56449e-12
-1.12585e-11
1.74551e-12
-7.72295e-12
-5.62194e-12
1.0788e-11
2.65656e-12
4.30501e-12
-5.78808e-12
1.06258e-12
-4.46139e-12
-4.68393e-12
5.4376e-12
1.68439e-12
2.91563e-12
-3.09958e-12
1.8123e-12
-2.91202e-12
-3.31505e-12
3.3222e-12
8.82581e-13
1.98241e-12
-1.59178e-12
1.14506e-12
-1.75335e-12
-2.18554e-12
1.806e-12
4.7758e-13
1.24836e-12
-8.50776e-13
8.58646e-13
-1.08897e-12
-1.37219e-12
1.077e-12
1.9928e-13
8.26297e-13
-4.47271e-13
5.6819e-13
-6.28387e-13
-8.00377e-13
5.94579e-13
5.17406e-13
3.84227e-13
)
;

boundaryField
{
    inlet
    {
        type            calculated;
        value           nonuniform List<scalar> 
16
(
1.24851e-13
-2.83963e-14
-7.42668e-14
7.00575e-14
-2.83963e-14
-2.89421e-13
-3.34417e-13
-2.45691e-13
-7.42668e-14
-3.34417e-13
-4.17612e-13
-3.47546e-13
7.00575e-14
-2.45691e-13
-3.47546e-13
-4.23073e-13
)
;
    }
    outlet
    {
        type            calculated;
        value           nonuniform List<scalar> 
16
(
5.30237e-12
7.64616e-12
8.06592e-12
7.58965e-12
7.64616e-12
1.4286e-11
1.37155e-11
1.25284e-11
8.06592e-12
1.37155e-11
1.39348e-11
1.29251e-11
7.58965e-12
1.25284e-11
1.29251e-11
1.31392e-11
)
;
    }
    walls
    {
        type            calculated;
        value           nonuniform List<scalar> 
320
(
5.46968e-13
1.69721e-12
3.57102e-12
6.4221e-12
1.21155e-11
1.63145e-11
4.29158e-11
2.46214e-11
-8.40236e-12
-3.85657e-11
-4.0153e-11
-1.32867e-11
-1.08277e-11
-3.42347e-12
-3.06724e-12
-1.05691e-12
-9.3949e-13
-3.83098e-13
-3.18203e-13
-1.47811e-13
1.31539e-12
4.90544e-12
1.25961e-11
3.08098e-11
7.53058e-11
1.76021e-10
5.60948e-10
5.63102e-10
-1.84958e-10
-6.11698e-10
-4.27387e-10
-1.283e-10
-7.90835e-11
-2.59788e-11
-1.37115e-11
-5.60114e-12
-2.57826e-12
-1.2979e-12
-6.102e-13
-3.29749e-13
1.15271e-12
4.09859e-12
9.78989e-12
2.19476e-11
4.98781e-11
1.08326e-10
3.13835e-10
3.0399e-10
-2.53573e-11
-3.34718e-10
-2.94981e-10
-8.43947e-11
-5.60143e-11
-1.9014e-11
-1.09699e-11
-4.79535e-12
-2.41548e-12
-1.30626e-12
-6.52027e-13
-3.70623e-13
1.06103e-12
3.53561e-12
7.82262e-12
1.53489e-11
2.90985e-11
5.10678e-11
9.01954e-11
8.54395e-11
-1.22122e-11
-1.00534e-10
-8.50115e-11
-3.9622e-11
-3.00279e-11
-1.34153e-11
-8.74976e-12
-4.1617e-12
-2.42402e-12
-1.25103e-12
-7.14392e-13
-3.73847e-13
9.58632e-14
3.08837e-13
1.11173e-12
2.31963e-12
7.19185e-12
8.71037e-12
3.6102e-11
2.35607e-11
3.20143e-11
-1.28819e-11
-4.77637e-11
-1.20707e-11
-1.47145e-11
-4.24325e-12
-3.79168e-12
-1.05757e-12
-8.14355e-13
-1.53511e-13
-1.08375e-13
4.56845e-14
1.64877e-13
7.93974e-13
2.90822e-12
8.5764e-12
2.71897e-11
6.43737e-11
2.57008e-10
2.37178e-10
1.9221e-11
-2.41225e-10
-2.55173e-10
-5.59937e-11
-4.00675e-11
-9.53336e-12
-5.86174e-12
-1.5908e-12
-7.60344e-13
-1.7441e-13
-2.88067e-14
6.18244e-14
1.09025e-13
6.26792e-13
2.45785e-12
7.2906e-12
2.2951e-11
5.24395e-11
2.0633e-10
1.91443e-10
1.47126e-10
-1.75989e-10
-3.13853e-10
-6.28827e-11
-5.08945e-11
-1.20314e-11
-7.17797e-12
-1.93524e-12
-7.58404e-13
-1.44899e-13
3.16862e-14
9.4471e-14
-1.39414e-13
-2.60979e-13
-4.19308e-14
9.55405e-13
4.2961e-12
8.9515e-12
2.82505e-11
2.46005e-11
-2.01814e-12
-3.23274e-11
-3.23262e-11
-4.84981e-12
-4.75338e-12
1.7313e-12
5.93578e-13
1.12785e-12
5.80297e-13
4.51972e-13
2.82289e-13
1.95576e-13
5.46968e-13
1.69721e-12
3.57102e-12
6.4221e-12
1.21155e-11
1.63145e-11
4.29158e-11
2.46214e-11
-8.40236e-12
-3.85657e-11
-4.0153e-11
-1.32867e-11
-1.08277e-11
-3.42347e-12
-3.06724e-12
-1.05691e-12
-9.3949e-13
-3.83098e-13
-3.18203e-13
-1.47811e-13
1.31539e-12
4.90544e-12
1.25961e-11
3.08098e-11
7.53058e-11
1.76021e-10
5.60948e-10
5.63102e-10
-1.84958e-10
-6.11698e-10
-4.27387e-10
-1.283e-10
-7.90835e-11
-2.59788e-11
-1.37115e-11
-5.60114e-12
-2.57826e-12
-1.2979e-12
-6.102e-13
-3.29749e-13
1.15271e-12
4.09859e-12
9.78989e-12
2.19476e-11
4.98781e-11
1.08326e-10
3.13835e-10
3.0399e-10
-2.53573e-11
-3.34718e-10
-2.94981e-10
-8.43947e-11
-5.60143e-11
-1.9014e-11
-1.09699e-11
-4.79535e-12
-2.41548e-12
-1.30626e-12
-6.52027e-13
-3.70623e-13
1.06103e-12
3.53561e-12
7.82262e-12
1.53489e-11
2.90985e-11
5.10678e-11
9.01954e-11
8.54395e-11
-1.22122e-11
-1.00534e-10
-8.50115e-11
-3.9622e-11
-3.00279e-11
-1.34153e-11
-8.74976e-12
-4.1617e-12
-2.42402e-12
-1.25103e-12
-7.14392e-13
-3.73847e-13
9.58632e-14
3.08837e-13
1.11173e-12
2.31963e-12
7.19185e-12
8.71037e-12
3.6102e-11
2.35607e-11
3.20143e-11
-1.28819e-11
-4.77637e-11
-1.20707e-11
-1.47145e-11
-4.24325e-12
-3.79168e-12
-1.05757e-12
-8.14355e-13
-1.53511e-13
-1.08375e-13
4.56845e-14
1.64877e-13
7.93974e-13
2.90822e-12
8.5764e-12
2.71897e-11
6.43737e-11
2.57008e-10
2.37178e-10
1.9221e-11
-2.41225e-10
-2.55173e-10
-5.59937e-11
-4.00675e-11
-9.53335e-12
-5.86174e-12
-1.5908e-12
-7.60344e-13
-1.7441e-13
-2.88067e-14
6.18244e-14
1.09025e-13
6.26792e-13
2.45785e-12
7.2906e-12
2.2951e-11
5.24395e-11
2.0633e-10
1.91443e-10
1.47126e-10
-1.75989e-10
-3.13853e-10
-6.28827e-11
-5.08945e-11
-1.20314e-11
-7.17797e-12
-1.93524e-12
-7.58404e-13
-1.44899e-13
3.16862e-14
9.4471e-14
-1.39414e-13
-2.60979e-13
-4.19308e-14
9.55405e-13
4.2961e-12
8.9515e-12
2.82505e-11
2.46005e-11
-2.01814e-12
-3.23274e-11
-3.23262e-11
-4.84981e-12
-4.75338e-12
1.7313e-12
5.93578e-13
1.12785e-12
5.80297e-13
4.51972e-13
2.82289e-13
1.95576e-13
)
;
    }
}


// ************************************************************************* //
