/*--------------------------------*- C++ -*----------------------------------*\
| =========                 |                                                 |
| \\      /  F ield         | OpenFOAM: The Open Source CFD Toolbox           |
|  \\    /   O peration     | Version:  5.x                                   |
|   \\  /    A nd           | Web:      www.OpenFOAM.org                      |
|    \\/     M anipulation  |                                                 |
\*---------------------------------------------------------------------------*/
FoamFile
{
    version     2.0;
    format      ascii;
    class       volVectorField;
    location    "0.07";
    object      Us;
}
// * * * * * * * * * * * * * * * * * * * * * * * * * * * * * * * * * * * * * //

dimensions      [0 1 -1 0 0 0 0];

internalField   nonuniform List<vector> 
320
(
(-2.97734e-18 -8.70444e-15 -2.97734e-18)
(-2.7182e-17 -7.94683e-14 -2.7182e-17)
(-2.52053e-17 -7.36892e-14 -2.52053e-17)
(-7.44096e-19 -2.17541e-15 -7.44096e-19)
(-1.61328e-16 -4.71651e-13 -1.61328e-16)
(-1.68686e-15 -4.93163e-12 -1.68686e-15)
(-1.58358e-15 -4.6297e-12 -1.58358e-15)
(-4.61381e-17 -1.34888e-13 -4.61381e-17)
(-8.47268e-15 -2.47704e-11 -8.47268e-15)
(-1.03351e-13 -3.02154e-10 -1.03351e-13)
(-9.82246e-14 -2.87166e-10 -9.82246e-14)
(-2.82509e-15 -8.25932e-12 -2.82509e-15)
(-4.15453e-13 -1.2146e-09 -4.15453e-13)
(-6.07901e-12 -1.77724e-08 -6.07901e-12)
(-5.84993e-12 -1.71026e-08 -5.84993e-12)
(-1.66112e-13 -4.85638e-10 -1.66112e-13)
(-1.83491e-11 -5.36446e-08 -1.83491e-11)
(-3.35293e-10 -9.80251e-07 -3.35293e-10)
(-3.2676e-10 -9.55305e-07 -3.2676e-10)
(-9.16241e-12 -2.67869e-08 -9.16241e-12)
(-6.768e-10 -1.97867e-06 -6.768e-10)
(-1.64537e-08 -4.81034e-05 -1.64537e-08)
(-1.62416e-08 -4.74834e-05 -1.62416e-08)
(-4.49963e-10 -1.3155e-06 -4.49963e-10)
(-1.67906e-08 -4.90884e-05 -1.67906e-08)
(-6.08188e-07 -0.00177808 -6.08188e-07)
(-6.08194e-07 -0.00177809 -6.08194e-07)
(-1.66839e-08 -4.87764e-05 -1.66839e-08)
(-1.65711e-08 -4.84466e-05 -1.65711e-08)
(-6.08191e-07 -0.00177809 -6.08191e-07)
(-6.08405e-07 -0.00177871 -6.08405e-07)
(-1.66839e-08 -4.87763e-05 -1.66839e-08)
(-4.4535e-10 -1.30201e-06 -4.4535e-10)
(-1.63482e-08 -4.77951e-05 -1.63482e-08)
(-1.63513e-08 -4.78039e-05 -1.63513e-08)
(-4.48466e-10 -1.31112e-06 -4.48466e-10)
(-5.94583e-12 -1.7383e-08 -5.94583e-12)
(-2.18303e-10 -6.38224e-07 -2.18303e-10)
(-2.21201e-10 -6.46696e-07 -2.21201e-10)
(-9.07862e-12 -2.65419e-08 -9.07862e-12)
(0 0 0)
(0 0 0)
(0 0 0)
(0 0 0)
(0 0 0)
(0 0 0)
(0 0 0)
(0 0 0)
(0 0 0)
(0 0 0)
(0 0 0)
(0 0 0)
(0 0 0)
(0 0 0)
(0 0 0)
(0 0 0)
(0 0 0)
(0 0 0)
(0 0 0)
(0 0 0)
(0 0 0)
(0 0 0)
(0 0 0)
(0 0 0)
(0 0 0)
(0 0 0)
(0 0 0)
(0 0 0)
(0 0 0)
(0 0 0)
(0 0 0)
(0 0 0)
(0 0 0)
(0 0 0)
(0 0 0)
(0 0 0)
(0 0 0)
(0 0 0)
(0 0 0)
(0 0 0)
(-2.7182e-17 -7.94683e-14 -2.7182e-17)
(-2.83931e-16 -8.3009e-13 -2.83931e-16)
(-2.66518e-16 -7.79181e-13 -2.66518e-16)
(-7.75737e-18 -2.26792e-14 -7.75737e-18)
(-1.68686e-15 -4.93163e-12 -1.68686e-15)
(-2.05963e-14 -6.02146e-11 -2.05963e-14)
(-1.95754e-14 -5.72298e-11 -1.95754e-14)
(-5.62244e-16 -1.64376e-12 -5.62244e-16)
(-1.03351e-13 -3.02154e-10 -1.03351e-13)
(-1.5139e-12 -4.42597e-09 -1.5139e-12)
(-1.45688e-12 -4.25929e-09 -1.45688e-12)
(-4.12989e-14 -1.2074e-10 -4.12989e-14)
(-6.07901e-12 -1.77724e-08 -6.07901e-12)
(-1.11241e-10 -3.25219e-07 -1.11241e-10)
(-1.08411e-10 -3.16947e-07 -1.08411e-10)
(-3.03307e-12 -8.86736e-09 -3.03307e-12)
(-3.35293e-10 -9.80251e-07 -3.35293e-10)
(-8.17119e-09 -2.3889e-05 -8.17119e-09)
(-8.06593e-09 -2.35812e-05 -8.06593e-09)
(-2.22717e-10 -6.51127e-07 -2.22717e-10)
(-1.64537e-08 -4.81034e-05 -1.64537e-08)
(-6.00011e-07 -0.00175417 -6.00011e-07)
(-6.00018e-07 -0.00175419 -6.00018e-07)
(-1.63512e-08 -4.78039e-05 -1.63512e-08)
(-6.08188e-07 -0.00177808 -6.08188e-07)
(-4.40347e-05 -0.128738 -4.40347e-05)
(-4.40347e-05 -0.128738 -4.40347e-05)
(-6.08408e-07 -0.00177872 -6.08408e-07)
(-6.08191e-07 -0.00177809 -6.08191e-07)
(-4.40347e-05 -0.128738 -4.40347e-05)
(-4.40347e-05 -0.128738 -4.40347e-05)
(-6.08306e-07 -0.00177842 -6.08306e-07)
(-1.63482e-08 -4.77951e-05 -1.63482e-08)
(-6.00228e-07 -0.0017548 -6.00228e-07)
(-6.0013e-07 -0.00175452 -6.0013e-07)
(-1.62461e-08 -4.74964e-05 -1.62461e-08)
(-2.18303e-10 -6.38224e-07 -2.18303e-10)
(-7.96448e-09 -2.32847e-05 -7.96448e-09)
(-8.06598e-09 -2.35814e-05 -8.06598e-09)
(-3.26779e-10 -9.55358e-07 -3.26779e-10)
(0 0 0)
(0 0 0)
(0 0 0)
(0 0 0)
(0 0 0)
(0 0 0)
(0 0 0)
(0 0 0)
(0 0 0)
(0 0 0)
(0 0 0)
(0 0 0)
(0 0 0)
(0 0 0)
(0 0 0)
(0 0 0)
(0 0 0)
(0 0 0)
(0 0 0)
(0 0 0)
(0 0 0)
(0 0 0)
(0 0 0)
(0 0 0)
(0 0 0)
(0 0 0)
(0 0 0)
(0 0 0)
(0 0 0)
(0 0 0)
(0 0 0)
(0 0 0)
(0 0 0)
(0 0 0)
(0 0 0)
(0 0 0)
(0 0 0)
(0 0 0)
(0 0 0)
(0 0 0)
(-2.52053e-17 -7.36892e-14 -2.52053e-17)
(-2.66518e-16 -7.79181e-13 -2.66518e-16)
(-2.50428e-16 -7.32143e-13 -2.50428e-16)
(-7.28047e-18 -2.12849e-14 -7.28047e-18)
(-1.58358e-15 -4.6297e-12 -1.58358e-15)
(-1.95754e-14 -5.72298e-11 -1.95754e-14)
(-1.86217e-14 -5.44418e-11 -1.86217e-14)
(-5.343e-16 -1.56206e-12 -5.343e-16)
(-9.82246e-14 -2.87166e-10 -9.82246e-14)
(-1.45688e-12 -4.25929e-09 -1.45688e-12)
(-1.40309e-12 -4.10203e-09 -1.40309e-12)
(-3.97387e-14 -1.16178e-10 -3.97387e-14)
(-5.84993e-12 -1.71026e-08 -5.84993e-12)
(-1.08411e-10 -3.16947e-07 -1.08411e-10)
(-1.0572e-10 -3.0908e-07 -1.0572e-10)
(-2.95559e-12 -8.64086e-09 -2.95559e-12)
(-3.2676e-10 -9.55305e-07 -3.2676e-10)
(-8.06593e-09 -2.35812e-05 -8.06593e-09)
(-7.96589e-09 -2.32888e-05 -7.96589e-09)
(-2.19826e-10 -6.42674e-07 -2.19826e-10)
(-1.62416e-08 -4.74834e-05 -1.62416e-08)
(-6.00018e-07 -0.00175419 -6.00018e-07)
(-6.00225e-07 -0.0017548 -6.00225e-07)
(-1.63499e-08 -4.77999e-05 -1.63499e-08)
(-6.08194e-07 -0.00177809 -6.08194e-07)
(-4.40347e-05 -0.128738 -4.40347e-05)
(-4.40347e-05 -0.128738 -4.40347e-05)
(-6.08305e-07 -0.00177842 -6.08305e-07)
(-6.08405e-07 -0.00177871 -6.08405e-07)
(-4.40347e-05 -0.128738 -4.40347e-05)
(-4.40347e-05 -0.128738 -4.40347e-05)
(-6.08411e-07 -0.00177873 -6.08411e-07)
(-1.63513e-08 -4.78039e-05 -1.63513e-08)
(-6.0013e-07 -0.00175452 -6.0013e-07)
(-6.00231e-07 -0.00175481 -6.00231e-07)
(-1.64598e-08 -4.81214e-05 -1.64598e-08)
(-2.21201e-10 -6.46696e-07 -2.21201e-10)
(-8.06598e-09 -2.35814e-05 -8.06598e-09)
(-8.17275e-09 -2.38936e-05 -8.17275e-09)
(-3.3534e-10 -9.80387e-07 -3.3534e-10)
(0 0 0)
(0 0 0)
(0 0 0)
(0 0 0)
(0 0 0)
(0 0 0)
(0 0 0)
(0 0 0)
(0 0 0)
(0 0 0)
(0 0 0)
(0 0 0)
(0 0 0)
(0 0 0)
(0 0 0)
(0 0 0)
(0 0 0)
(0 0 0)
(0 0 0)
(0 0 0)
(0 0 0)
(0 0 0)
(0 0 0)
(0 0 0)
(0 0 0)
(0 0 0)
(0 0 0)
(0 0 0)
(0 0 0)
(0 0 0)
(0 0 0)
(0 0 0)
(0 0 0)
(0 0 0)
(0 0 0)
(0 0 0)
(0 0 0)
(0 0 0)
(0 0 0)
(0 0 0)
(-7.44096e-19 -2.17541e-15 -7.44096e-19)
(-7.75737e-18 -2.26792e-14 -7.75737e-18)
(-7.28047e-18 -2.12849e-14 -7.28047e-18)
(-2.13274e-19 -6.23519e-16 -2.13274e-19)
(-4.61381e-17 -1.34888e-13 -4.61381e-17)
(-5.62244e-16 -1.64376e-12 -5.62244e-16)
(-5.343e-16 -1.56206e-12 -5.343e-16)
(-1.54447e-17 -4.51535e-14 -1.54447e-17)
(-2.82509e-15 -8.25932e-12 -2.82509e-15)
(-4.12989e-14 -1.2074e-10 -4.12989e-14)
(-3.97387e-14 -1.16178e-10 -3.97387e-14)
(-1.1337e-15 -3.31444e-12 -1.1337e-15)
(-1.66112e-13 -4.85638e-10 -1.66112e-13)
(-3.03307e-12 -8.86736e-09 -3.03307e-12)
(-2.95559e-12 -8.64086e-09 -2.95559e-12)
(-8.32179e-14 -2.43293e-10 -8.32179e-14)
(-9.16241e-12 -2.67869e-08 -9.16241e-12)
(-2.22717e-10 -6.51127e-07 -2.22717e-10)
(-2.19826e-10 -6.42674e-07 -2.19826e-10)
(-6.10852e-12 -1.78586e-08 -6.10852e-12)
(-4.49963e-10 -1.3155e-06 -4.49963e-10)
(-1.63512e-08 -4.78039e-05 -1.63512e-08)
(-1.63499e-08 -4.77999e-05 -1.63499e-08)
(-4.48389e-10 -1.31089e-06 -4.48389e-10)
(-1.66839e-08 -4.87764e-05 -1.66839e-08)
(-6.08408e-07 -0.00177872 -6.08408e-07)
(-6.08305e-07 -0.00177842 -6.08305e-07)
(-1.65772e-08 -4.84646e-05 -1.65772e-08)
(-1.66839e-08 -4.87763e-05 -1.66839e-08)
(-6.08306e-07 -0.00177842 -6.08306e-07)
(-6.08411e-07 -0.00177873 -6.08411e-07)
(-1.67968e-08 -4.91066e-05 -1.67968e-08)
(-4.48466e-10 -1.31112e-06 -4.48466e-10)
(-1.62461e-08 -4.74964e-05 -1.62461e-08)
(-1.64598e-08 -4.81214e-05 -1.64598e-08)
(-6.77054e-10 -1.97941e-06 -6.77054e-10)
(-9.07862e-12 -2.65419e-08 -9.07862e-12)
(-3.26779e-10 -9.55358e-07 -3.26779e-10)
(-3.3534e-10 -9.80387e-07 -3.3534e-10)
(-1.83504e-11 -5.36485e-08 -1.83504e-11)
(0 0 0)
(0 0 0)
(0 0 0)
(0 0 0)
(0 0 0)
(0 0 0)
(0 0 0)
(0 0 0)
(0 0 0)
(0 0 0)
(0 0 0)
(0 0 0)
(0 0 0)
(0 0 0)
(0 0 0)
(0 0 0)
(0 0 0)
(0 0 0)
(0 0 0)
(0 0 0)
(0 0 0)
(0 0 0)
(0 0 0)
(0 0 0)
(0 0 0)
(0 0 0)
(0 0 0)
(0 0 0)
(0 0 0)
(0 0 0)
(0 0 0)
(0 0 0)
(0 0 0)
(0 0 0)
(0 0 0)
(0 0 0)
(0 0 0)
(0 0 0)
(0 0 0)
(0 0 0)
)
;

boundaryField
{
    inlet
    {
        type            zeroGradient;
    }
    outlet
    {
        type            zeroGradient;
    }
    walls
    {
        type            zeroGradient;
    }
}


// ************************************************************************* //
