FoamFile
{version 2.0; format ascii;class Cloud<passiveParticle>; location 0;object  positions;}
1
(
( 0.0499989 0.0175033 0.0499989 ) 0 
)
