FoamFile
{version 2.0; format ascii;class vectorField; location 0;object  v;}
1
(
( -4.40348e-05 -0.128738 -4.40348e-05 )  
)
