FoamFile
{version 2.0; format ascii;class Cloud<passiveParticle>; location 0;object  positions;}
2
(
( 0.49997 0.49997 3.11427 ) 0 
( 0.499966 0.499964 2.77491 ) 0 
)
