FoamFile
{version 2.0; format ascii;class vectorField; location 0;object  v;}
2
(
( 0.000124193 0.00010982 -8.26457 )  
( -0.000392063 -0.000393925 -8.08849 )  
)
