/*--------------------------------*- C++ -*----------------------------------*\
| =========                 |                                                 |
| \\      /  F ield         | OpenFOAM: The Open Source CFD Toolbox           |
|  \\    /   O peration     | Version:  5.x                                   |
|   \\  /    A nd           | Web:      www.OpenFOAM.org                      |
|    \\/     M anipulation  |                                                 |
\*---------------------------------------------------------------------------*/
FoamFile
{
    version     2.0;
    format      ascii;
    class       volScalarField;
    location    "0.1";
    object      p;
}
// * * * * * * * * * * * * * * * * * * * * * * * * * * * * * * * * * * * * * //

dimensions      [0 2 -2 0 0 0 0];

internalField   nonuniform List<scalar> 
160
(
-3.83021e-06
-3.88323e-06
-3.92101e-06
-3.69484e-06
-3.8537e-06
-3.86162e-06
-3.87229e-06
-3.80897e-06
-3.98891e-06
-3.9897e-06
-4.01507e-06
-3.93102e-06
-3.98511e-06
-3.98927e-06
-3.9922e-06
-3.98367e-06
-4.03706e-06
-4.04637e-06
-4.05552e-06
-4.03696e-06
-4.04444e-06
-4.0531e-06
-4.05596e-06
-4.05741e-06
-4.06486e-06
-4.07376e-06
-4.07767e-06
-4.07928e-06
-4.07087e-06
-4.07889e-06
-4.08189e-06
-4.08615e-06
-4.079e-06
-4.08619e-06
-4.08921e-06
-4.09367e-06
-4.08276e-06
-4.08877e-06
-4.09133e-06
-4.09575e-06
-3.88323e-06
-5.22939e-06
-4.66507e-06
-4.62264e-06
-3.86162e-06
-4.77303e-06
-4.39573e-06
-4.46383e-06
-3.9897e-06
-4.46953e-06
-4.32179e-06
-4.36154e-06
-3.98927e-06
-4.25537e-06
-4.18749e-06
-4.25396e-06
-4.04637e-06
-4.20314e-06
-4.17239e-06
-4.20845e-06
-4.0531e-06
-4.13634e-06
-4.12537e-06
-4.16574e-06
-4.07376e-06
-4.12384e-06
-4.12294e-06
-4.14526e-06
-4.07889e-06
-4.10714e-06
-4.10963e-06
-4.12678e-06
-4.08619e-06
-4.10454e-06
-4.10832e-06
-4.11976e-06
-4.08877e-06
-4.10001e-06
-4.10358e-06
-4.11205e-06
-3.92101e-06
-4.66507e-06
-4.54552e-06
-4.41922e-06
-3.87229e-06
-4.39573e-06
-4.26489e-06
-4.29164e-06
-4.01507e-06
-4.32179e-06
-4.30194e-06
-4.2651e-06
-3.9922e-06
-4.18749e-06
-4.17027e-06
-4.21341e-06
-4.05552e-06
-4.17239e-06
-4.17057e-06
-4.1918e-06
-4.05596e-06
-4.12537e-06
-4.12806e-06
-4.16176e-06
-4.07767e-06
-4.12294e-06
-4.12752e-06
-4.14778e-06
-4.08189e-06
-4.10963e-06
-4.11425e-06
-4.13234e-06
-4.08921e-06
-4.10832e-06
-4.11321e-06
-4.1258e-06
-4.09133e-06
-4.10358e-06
-4.10783e-06
-4.11734e-06
-3.69484e-06
-4.62264e-06
-4.41922e-06
-4.49348e-06
-3.80897e-06
-4.46383e-06
-4.29164e-06
-4.49282e-06
-3.93102e-06
-4.36154e-06
-4.2651e-06
-4.45155e-06
-3.98367e-06
-4.25396e-06
-4.21341e-06
-4.34747e-06
-4.03696e-06
-4.20845e-06
-4.1918e-06
-4.28501e-06
-4.05741e-06
-4.16574e-06
-4.16176e-06
-4.22518e-06
-4.07928e-06
-4.14526e-06
-4.14778e-06
-4.19109e-06
-4.08615e-06
-4.12678e-06
-4.13234e-06
-4.16055e-06
-4.09367e-06
-4.11976e-06
-4.1258e-06
-4.14584e-06
-4.09575e-06
-4.11205e-06
-4.11734e-06
-4.13034e-06
)
;

boundaryField
{
    inlet
    {
        type            zeroGradient;
    }
    outlet
    {
        type            totalPressure;
        rho             rho;
        psi             none;
        gamma           1;
        p0              nonuniform 0();
        value           nonuniform 0();
    }
    walls
    {
        type            zeroGradient;
    }
    procBoundary1to0
    {
        type            processor;
        value           nonuniform List<scalar> 
16
(
-3.46516e-06
-3.76425e-06
-3.70093e-06
-3.44684e-06
-3.76425e-06
-5.84033e-06
-4.76284e-06
-4.72649e-06
-3.70093e-06
-4.76284e-06
-4.42018e-06
-4.28642e-06
-3.44684e-06
-4.72649e-06
-4.28642e-06
-4.38856e-06
)
;
    }
}


// ************************************************************************* //
