/*--------------------------------*- C++ -*----------------------------------*\
| =========                 |                                                 |
| \\      /  F ield         | OpenFOAM: The Open Source CFD Toolbox           |
|  \\    /   O peration     | Version:  5.x                                   |
|   \\  /    A nd           | Web:      www.OpenFOAM.org                      |
|    \\/     M anipulation  |                                                 |
\*---------------------------------------------------------------------------*/
FoamFile
{
    version     2.0;
    format      ascii;
    class       surfaceScalarField;
    location    "0.1";
    object      phi;
}
// * * * * * * * * * * * * * * * * * * * * * * * * * * * * * * * * * * * * * //

dimensions      [0 3 -1 0 0 0 0];

internalField   nonuniform List<scalar> 
384
(
4.94302e-11
1.78414e-11
4.94302e-11
7.35571e-12
-2.5785e-11
3.98404e-10
-4.73223e-11
-1.85207e-11
3.28821e-10
1.47266e-11
1.11196e-10
1.66681e-11
1.52601e-11
1.66681e-11
5.48262e-12
-8.70449e-12
1.52702e-10
-1.18213e-11
-1.02478e-11
1.15775e-10
1.19027e-11
6.29036e-11
1.40815e-11
9.15751e-12
1.40815e-11
4.02375e-12
3.10976e-13
8.95541e-11
-1.34968e-11
-2.4562e-12
7.36175e-11
8.74921e-12
4.46012e-11
5.33763e-12
6.73936e-12
5.33763e-12
2.55797e-12
1.2557e-12
3.62833e-11
-3.01413e-12
-1.10511e-12
3.06227e-11
6.33731e-12
2.45415e-11
4.62484e-12
4.25184e-12
4.62484e-12
1.91453e-12
2.03891e-12
2.01588e-11
-3.01263e-12
7.90534e-13
1.8001e-11
4.08072e-12
1.60553e-11
2.14396e-12
2.91911e-12
2.14396e-12
1.35176e-12
1.45711e-12
9.51969e-12
-2.72763e-13
6.0119e-13
9.12017e-12
2.55506e-12
9.21093e-12
1.76135e-12
1.8691e-12
1.76135e-12
1.08404e-12
1.16415e-12
5.15389e-12
-2.45152e-13
7.37967e-13
5.18311e-12
1.47957e-12
5.66622e-12
1.0138e-12
1.17795e-12
1.0138e-12
8.15395e-13
6.94352e-13
2.83305e-12
3.38714e-13
4.11665e-13
3.04251e-12
8.01841e-13
3.33417e-12
8.11176e-13
6.36419e-13
8.11176e-13
6.64188e-13
3.83825e-13
1.6576e-12
2.98834e-13
2.37782e-13
1.83611e-12
3.63397e-13
2.0899e-12
5.15115e-13
5.15115e-13
5.03645e-13
9.48572e-13
3.69744e-13
1.08285e-12
1.19407e-12
3.98404e-10
-2.5785e-11
7.35571e-12
-3.2798e-11
-5.80823e-10
-3.2798e-11
-3.05164e-10
-3.72065e-10
2.53996e-11
-7.17207e-11
1.17793e-11
1.52702e-10
-8.70449e-12
5.48262e-12
1.08292e-12
-2.77584e-10
1.08292e-12
-7.89264e-11
-1.90234e-10
1.39531e-11
-4.62481e-11
1.4767e-11
8.95541e-11
3.10976e-13
4.02375e-12
5.78934e-12
-1.10055e-10
5.78934e-12
-4.73144e-11
-7.59465e-11
1.24338e-11
-2.75218e-11
1.34041e-11
3.62833e-11
1.2557e-12
2.55797e-12
6.77035e-12
-5.10291e-11
6.77035e-12
-9.58132e-12
-3.77266e-11
8.75447e-12
-1.60728e-11
1.10446e-11
2.01588e-11
2.03891e-12
1.91453e-12
4.97911e-12
-2.06697e-11
4.97911e-12
-4.66991e-12
-1.6266e-11
6.1894e-12
-8.59488e-12
8.22823e-12
9.51969e-12
1.45711e-12
1.35176e-12
3.76252e-12
-9.15538e-12
3.76252e-12
-6.6141e-14
-7.81833e-12
4.50117e-12
-4.92478e-12
5.73001e-12
5.15389e-12
1.16415e-12
1.08404e-12
2.46526e-12
-3.77811e-12
2.46526e-12
4.37084e-13
-3.5698e-12
2.96275e-12
-2.70634e-12
3.88213e-12
2.83305e-12
6.94352e-13
8.15395e-13
1.75634e-12
-1.6247e-12
1.75634e-12
8.61959e-13
-1.7382e-12
2.10531e-12
-1.51132e-12
2.58064e-12
1.6576e-12
3.83825e-13
6.64188e-13
1.18807e-12
-6.85634e-13
1.18807e-12
6.94397e-13
-8.34046e-13
1.42563e-12
-8.23984e-13
1.75648e-12
9.48572e-13
5.03645e-13
8.06932e-13
8.06932e-13
5.89564e-13
9.53697e-13
1.09994e-12
3.28821e-10
-1.85207e-11
-4.73223e-11
2.53996e-11
-3.72065e-10
-3.05164e-10
-2.77612e-10
-3.55972e-10
-2.77612e-10
-4.51205e-11
-4.31612e-11
1.15775e-10
-1.02478e-11
-1.18213e-11
1.39531e-11
-1.90234e-10
-7.89264e-11
-6.76964e-11
-1.92673e-10
-6.76964e-11
-2.93151e-11
-6.08188e-12
7.36175e-11
-2.4562e-12
-1.34968e-11
1.24338e-11
-7.59465e-11
-4.73144e-11
-4.68403e-11
-7.41251e-11
-4.68403e-11
-1.71314e-11
-1.35573e-12
3.06227e-11
-1.10511e-12
-3.01413e-12
8.75447e-12
-3.77266e-11
-9.58132e-12
-9.00373e-12
-3.86087e-11
-9.00373e-12
-1.12081e-11
5.89948e-12
1.8001e-11
7.90534e-13
-3.01263e-12
6.1894e-12
-1.6266e-11
-4.66991e-12
-4.77776e-12
-1.66744e-11
-4.77776e-12
-6.95866e-12
4.58595e-12
9.12017e-12
6.0119e-13
-2.72763e-13
4.50117e-12
-7.81833e-12
-6.61409e-14
3.91467e-13
-8.45496e-12
3.91467e-13
-4.63114e-12
4.18179e-12
5.18311e-12
7.37967e-13
-2.45152e-13
2.96275e-12
-3.5698e-12
4.37084e-13
7.96465e-13
-4.12237e-12
7.96465e-13
-2.94089e-12
2.87996e-12
3.04251e-12
4.11665e-13
3.38714e-13
2.10531e-12
-1.7382e-12
8.61959e-13
1.12255e-12
-2.15685e-12
1.12255e-12
-1.85595e-12
2.06148e-12
1.83611e-12
2.37782e-13
2.98834e-13
1.42563e-12
-8.34046e-13
6.94397e-13
9.00972e-13
-1.10754e-12
9.00972e-13
-1.09954e-12
1.42498e-12
1.08285e-12
3.69744e-13
9.53697e-13
5.89564e-13
7.11174e-13
7.11174e-13
9.26155e-13
1.11196e-10
1.47266e-11
1.17793e-11
-7.17207e-11
-4.31612e-11
-4.51205e-11
1.36121e-12
6.29036e-11
1.19027e-11
1.4767e-11
-4.62481e-11
-6.08188e-12
-2.93151e-11
-7.76558e-12
4.46012e-11
8.74921e-12
1.34041e-11
-2.75218e-11
-1.35573e-12
-1.71314e-11
-1.21554e-11
2.45415e-11
6.33731e-12
1.10446e-11
-1.60728e-11
5.89948e-12
-1.12081e-11
-1.08725e-11
1.60553e-11
4.08072e-12
8.22823e-12
-8.59488e-12
4.58595e-12
-6.95866e-12
-8.57342e-12
9.21093e-12
2.55506e-12
5.73001e-12
-4.92478e-12
4.18179e-12
-4.63114e-12
-6.15851e-12
5.66622e-12
1.47957e-12
3.88213e-12
-2.70634e-12
2.87996e-12
-2.94089e-12
-4.16421e-12
3.33417e-12
8.01841e-13
2.58064e-12
-1.51132e-12
2.06148e-12
-1.85595e-12
-2.68754e-12
2.0899e-12
3.63397e-13
1.75648e-12
-8.23984e-13
1.42498e-12
-1.09954e-12
-1.57891e-12
1.19407e-12
1.09994e-12
9.26155e-13
)
;

boundaryField
{
    inlet
    {
        type            calculated;
        value           nonuniform List<scalar> 
16
(
2.56257e-13
9.05924e-14
1.46823e-14
1.19733e-13
9.05924e-14
-4.02354e-13
-4.8753e-13
-4.69718e-13
1.46823e-14
-4.8753e-13
-6.22503e-13
-6.25091e-13
1.19733e-13
-4.69718e-13
-6.25091e-13
-8.5253e-13
)
;
    }
    outlet
    {
        type            calculated;
        value           nonuniform 0();
    }
    walls
    {
        type            calculated;
        value           nonuniform List<scalar> 
160
(
-4.34617e-11
-1.53774e-11
-1.10301e-11
-4.12855e-12
-3.38107e-12
-1.47759e-12
-1.23635e-12
-6.68229e-13
-5.40413e-13
-3.25036e-13
-4.13615e-10
-1.58597e-10
-8.85119e-11
-3.44483e-11
-1.82317e-11
-8.1457e-12
-4.18363e-12
-2.16486e-12
-1.20009e-12
-6.43869e-13
-2.88148e-10
-1.06744e-10
-6.38885e-11
-2.64017e-11
-1.49695e-11
-7.30631e-12
-3.9907e-12
-2.23953e-12
-1.29687e-12
-7.25845e-13
-1.07569e-10
-5.94088e-11
-4.08679e-11
-2.13829e-11
-1.33974e-11
-7.28319e-12
-4.30109e-12
-2.40921e-12
-1.45051e-12
-7.87562e-13
-4.5467e-11
-1.24923e-11
-1.40767e-11
-3.76086e-12
-3.41396e-12
-6.74839e-13
-5.34793e-13
9.1494e-14
9.78903e-14
2.06902e-13
-2.19256e-10
-5.62623e-11
-3.48436e-11
-7.53329e-12
-4.32076e-12
-2.55318e-13
2.73968e-15
4.20475e-13
3.40481e-13
3.29423e-13
-2.5785e-10
-6.26529e-11
-4.42641e-11
-9.78194e-12
-5.38496e-12
-3.87822e-13
1.08393e-13
5.56764e-13
4.76058e-13
4.10507e-13
-3.17841e-11
-1.51848e-12
8.39205e-13
5.25802e-12
3.43641e-12
2.97434e-12
1.88282e-12
1.32315e-12
8.70662e-13
5.62966e-13
-4.34617e-11
-1.53774e-11
-1.10301e-11
-4.12855e-12
-3.38107e-12
-1.47759e-12
-1.23635e-12
-6.68229e-13
-5.40413e-13
-3.25036e-13
-4.13615e-10
-1.58597e-10
-8.85119e-11
-3.44483e-11
-1.82317e-11
-8.1457e-12
-4.18363e-12
-2.16486e-12
-1.20009e-12
-6.43869e-13
-2.88148e-10
-1.06744e-10
-6.38885e-11
-2.64017e-11
-1.49695e-11
-7.30631e-12
-3.9907e-12
-2.23953e-12
-1.29687e-12
-7.25845e-13
-1.07569e-10
-5.94088e-11
-4.08679e-11
-2.13829e-11
-1.33974e-11
-7.28319e-12
-4.30109e-12
-2.40921e-12
-1.45051e-12
-7.87562e-13
-4.5467e-11
-1.24923e-11
-1.40767e-11
-3.76086e-12
-3.41396e-12
-6.74839e-13
-5.34793e-13
9.1494e-14
9.78903e-14
2.06902e-13
-2.19256e-10
-5.62623e-11
-3.48436e-11
-7.53329e-12
-4.32076e-12
-2.55318e-13
2.7397e-15
4.20475e-13
3.40481e-13
3.29423e-13
-2.5785e-10
-6.26529e-11
-4.42641e-11
-9.78194e-12
-5.38496e-12
-3.87822e-13
1.08393e-13
5.56764e-13
4.76058e-13
4.10507e-13
-3.17841e-11
-1.51848e-12
8.39205e-13
5.25802e-12
3.43641e-12
2.97434e-12
1.88282e-12
1.32315e-12
8.70662e-13
5.62966e-13
)
;
    }
    procBoundary1to0
    {
        type            processor;
        value           nonuniform List<scalar> 
16
(
-2.97785e-11
8.30704e-11
3.25249e-11
-2.02098e-11
8.30704e-11
1.44323e-09
9.47854e-10
8.52293e-11
3.25249e-11
9.47854e-10
9.61995e-10
8.02995e-11
-2.02098e-11
8.52293e-11
8.02995e-11
-2.41154e-11
)
;
    }
}


// ************************************************************************* //
