/*--------------------------------*- C++ -*----------------------------------*\
| =========                 |                                                 |
| \\      /  F ield         | OpenFOAM: The Open Source CFD Toolbox           |
|  \\    /   O peration     | Version:  5.x                                   |
|   \\  /    A nd           | Web:      www.OpenFOAM.org                      |
|    \\/     M anipulation  |                                                 |
\*---------------------------------------------------------------------------*/
FoamFile
{
    version     2.0;
    format      ascii;
    class       volVectorField;
    location    "0.1";
    object      U;
}
// * * * * * * * * * * * * * * * * * * * * * * * * * * * * * * * * * * * * * //

dimensions      [0 1 -1 0 0 0 0];

internalField   nonuniform List<vector> 
160
(
(6.96434e-06 3.83799e-06 6.96434e-06)
(8.51905e-06 -5.24598e-06 6.64446e-05)
(-6.56077e-06 -1.86754e-06 4.62508e-05)
(-7.31939e-06 2.64071e-06 1.73942e-05)
(2.46195e-06 2.10571e-06 2.46195e-06)
(3.17854e-06 -3.71762e-06 2.55559e-05)
(-1.6214e-06 -4.04391e-06 1.71826e-05)
(-2.01127e-06 1.75481e-06 9.63472e-06)
(1.76498e-06 2.15452e-06 1.76498e-06)
(2.6752e-06 4.24405e-07 1.42568e-05)
(-1.58174e-06 2.19541e-07 1.02828e-05)
(-2.26888e-06 1.64002e-06 6.62388e-06)
(6.61391e-07 9.59156e-07 6.61391e-07)
(1.0724e-06 -2.8875e-07 5.56436e-06)
(-3.03478e-07 -8.33563e-07 4.26289e-06)
(-6.03421e-07 9.90258e-07 3.47464e-06)
(5.42811e-07 9.53504e-07 5.42811e-07)
(8.50235e-07 5.86321e-07 2.94808e-06)
(-2.98608e-07 3.72199e-07 2.41823e-06)
(-5.49899e-07 8.41131e-07 2.17745e-06)
(2.38126e-07 4.44008e-07 2.38126e-07)
(4.03334e-07 1.10828e-07 1.31978e-06)
(2.13252e-08 -6.4463e-08 1.18274e-06)
(-1.07687e-07 4.09908e-07 1.1867e-06)
(1.99574e-07 4.0161e-07 1.99574e-07)
(3.16525e-07 2.95791e-07 6.79285e-07)
(1.7577e-08 2.19111e-07 6.47467e-07)
(-8.52482e-08 3.29497e-07 7.01204e-07)
(1.08502e-07 1.97026e-07 1.08502e-07)
(1.8592e-07 9.49038e-08 3.51963e-07)
(8.20205e-08 3.96185e-08 3.6381e-07)
(1.54793e-08 1.3884e-07 3.93498e-07)
(8.78855e-08 1.49198e-07 8.78855e-08)
(1.4545e-07 1.07087e-07 1.95644e-07)
(6.97162e-08 7.70798e-08 2.11279e-07)
(1.65437e-08 9.33362e-08 2.37233e-07)
(5.31905e-08 4.17423e-08 5.31905e-08)
(9.24665e-08 1.50045e-08 1.05238e-07)
(7.10152e-08 2.76846e-09 1.18554e-07)
(3.39758e-08 1.95675e-08 1.29222e-07)
(6.64446e-05 -5.24598e-06 8.51905e-06)
(4.87743e-05 -0.000115463 4.87743e-05)
(-5.68756e-05 -7.17473e-05 5.02366e-05)
(-3.50893e-05 -1.252e-05 1.40502e-05)
(2.55559e-05 -3.71762e-06 3.17854e-06)
(1.81804e-05 -6.37497e-05 1.81804e-05)
(-1.74903e-05 -4.66105e-05 1.68031e-05)
(-8.9885e-06 -9.93127e-06 7.95542e-06)
(1.42568e-05 4.24405e-07 2.6752e-06)
(1.1434e-05 -2.11061e-05 1.1434e-05)
(-9.04296e-06 -1.39245e-05 1.12303e-05)
(-5.56712e-06 -4.68526e-06 5.87993e-06)
(5.56436e-06 -2.8875e-07 1.0724e-06)
(4.79827e-06 -1.25701e-05 4.79827e-06)
(-2.19707e-06 -9.55323e-06 4.6288e-06)
(-1.19218e-06 -3.65537e-06 3.3871e-06)
(2.94808e-06 5.86321e-07 8.50235e-07)
(2.78865e-06 -3.91474e-06 2.78865e-06)
(-9.23709e-07 -2.94077e-06 2.79123e-06)
(-6.84187e-07 -1.48079e-06 2.32012e-06)
(1.31978e-06 1.10828e-07 4.03334e-07)
(1.38903e-06 -2.3221e-06 1.38903e-06)
(-1.08914e-08 -1.99077e-06 1.4507e-06)
(-3.28678e-08 -1.11292e-06 1.38968e-06)
(6.79285e-07 2.95791e-07 3.16525e-07)
(7.84954e-07 -7.16517e-07 7.84954e-07)
(1.03475e-07 -6.47235e-07 8.43749e-07)
(4.85345e-09 -4.74683e-07 8.87417e-07)
(3.51963e-07 9.49038e-08 1.8592e-07)
(4.55782e-07 -4.13567e-07 4.55782e-07)
(1.66083e-07 -4.24709e-07 5.11558e-07)
(7.06689e-08 -3.35552e-07 5.43351e-07)
(1.95644e-07 1.07087e-07 1.4545e-07)
(2.77034e-07 -1.35759e-07 2.77034e-07)
(1.38586e-07 -1.66397e-07 3.15718e-07)
(5.67387e-08 -1.63545e-07 3.51194e-07)
(1.05238e-07 1.50045e-08 9.24665e-08)
(1.63567e-07 -6.52733e-08 1.63567e-07)
(1.11926e-07 -7.89424e-08 1.89427e-07)
(5.43793e-08 -7.66774e-08 2.04675e-07)
(4.62508e-05 -1.86754e-06 -6.56077e-06)
(5.02366e-05 -7.17473e-05 -5.68756e-05)
(-4.11326e-05 -6.12754e-05 -4.11326e-05)
(-4.1281e-05 -7.5765e-06 -9.29135e-06)
(1.71826e-05 -4.04391e-06 -1.6214e-06)
(1.68031e-05 -4.66105e-05 -1.74903e-05)
(-1.15121e-05 -4.84583e-05 -1.15121e-05)
(-1.00192e-05 -7.02452e-06 -2.2223e-06)
(1.02828e-05 2.19541e-07 -1.58174e-06)
(1.12303e-05 -1.39245e-05 -9.04296e-06)
(-6.79734e-06 -1.27165e-05 -6.79734e-06)
(-7.08954e-06 -2.92133e-06 -8.15287e-07)
(4.26289e-06 -8.33563e-07 -3.03478e-07)
(4.6288e-06 -9.55323e-06 -2.19707e-06)
(-1.45672e-06 -9.84832e-06 -1.45672e-06)
(-1.55658e-06 -2.61845e-06 6.76694e-07)
(2.41823e-06 3.72199e-07 -2.98608e-07)
(2.79123e-06 -2.94077e-06 -9.23709e-07)
(-5.88936e-07 -2.91769e-06 -5.88936e-07)
(-8.57395e-07 -1.11738e-06 6.6031e-07)
(1.18274e-06 -6.4463e-08 2.13252e-08)
(1.4507e-06 -1.99077e-06 -1.08914e-08)
(1.47109e-07 -2.11616e-06 1.47109e-07)
(-5.53862e-08 -1.02219e-06 6.62456e-07)
(6.47467e-07 2.19111e-07 1.7577e-08)
(8.43749e-07 -6.47235e-07 1.03475e-07)
(1.98825e-07 -7.35934e-07 1.98825e-07)
(2.13514e-08 -4.99956e-07 4.88058e-07)
(3.6381e-07 3.96185e-08 8.20205e-08)
(5.11558e-07 -4.24709e-07 1.66083e-07)
(2.24085e-07 -5.04567e-07 2.24085e-07)
(9.26606e-08 -3.93431e-07 3.59904e-07)
(2.11279e-07 7.70798e-08 6.97162e-08)
(3.15718e-07 -1.66397e-07 1.38586e-07)
(1.79067e-07 -2.26689e-07 1.79067e-07)
(7.86608e-08 -2.20568e-07 2.56805e-07)
(1.18554e-07 2.76845e-09 7.10152e-08)
(1.89427e-07 -7.89424e-08 1.11926e-07)
(1.34601e-07 -1.00664e-07 1.34601e-07)
(6.75589e-08 -1.01687e-07 1.66788e-07)
(1.73942e-05 2.64071e-06 -7.31939e-06)
(1.40502e-05 -1.252e-05 -3.50893e-05)
(-9.29135e-06 -7.5765e-06 -4.1281e-05)
(-5.07079e-06 1.23128e-06 -5.07079e-06)
(9.63472e-06 1.75481e-06 -2.01127e-06)
(7.95542e-06 -9.93127e-06 -8.9885e-06)
(-2.2223e-06 -7.02452e-06 -1.00192e-05)
(-2.0323e-07 -8.5005e-07 -2.0323e-07)
(6.62388e-06 1.64002e-06 -2.26888e-06)
(5.87993e-06 -4.68526e-06 -5.56712e-06)
(-8.15287e-07 -2.92133e-06 -7.08954e-06)
(1.71091e-07 -1.6148e-06 1.71091e-07)
(3.47464e-06 9.90258e-07 -6.03421e-07)
(3.3871e-06 -3.65537e-06 -1.19218e-06)
(6.76694e-07 -2.61845e-06 -1.55658e-06)
(8.67754e-07 -1.94474e-06 8.67754e-07)
(2.17745e-06 8.41131e-07 -5.49899e-07)
(2.32012e-06 -1.48079e-06 -6.84187e-07)
(6.6031e-07 -1.11738e-06 -8.57395e-07)
(5.68233e-07 -1.38004e-06 5.68233e-07)
(1.1867e-06 4.09908e-07 -1.07687e-07)
(1.38968e-06 -1.11292e-06 -3.28678e-08)
(6.62456e-07 -1.02219e-06 -5.53862e-08)
(4.88417e-07 -1.1697e-06 4.88417e-07)
(7.01204e-07 3.29497e-07 -8.52482e-08)
(8.87417e-07 -4.74683e-07 4.85346e-09)
(4.88058e-07 -4.99956e-07 2.13514e-08)
(3.09803e-07 -7.17721e-07 3.09803e-07)
(3.93498e-07 1.3884e-07 1.54793e-08)
(5.43351e-07 -3.35552e-07 7.06689e-08)
(3.59904e-07 -3.93431e-07 9.26606e-08)
(2.17273e-07 -5.20331e-07 2.17273e-07)
(2.37233e-07 9.33362e-08 1.65437e-08)
(3.51194e-07 -1.63545e-07 5.67387e-08)
(2.56805e-07 -2.20568e-07 7.86608e-08)
(1.43262e-07 -3.16734e-07 1.43262e-07)
(1.29222e-07 1.95675e-08 3.39758e-08)
(2.04675e-07 -7.66774e-08 5.43793e-08)
(1.66788e-07 -1.01687e-07 6.75589e-08)
(9.26391e-08 -1.3946e-07 9.26391e-08)
)
;

boundaryField
{
    inlet
    {
        type            fixedValue;
        value           uniform (0 0 0);
    }
    outlet
    {
        type            zeroGradient;
    }
    walls
    {
        type            fixedValue;
        value           uniform (0 0 0);
    }
    procBoundary1to0
    {
        type            processor;
        value           nonuniform List<vector> 
16
(
(7.03215e-06 4.42437e-06 7.03215e-06)
(5.74335e-06 -2.38001e-05 9.28929e-05)
(-4.78621e-06 -1.00608e-05 5.41615e-05)
(-2.91476e-06 3.26716e-06 2.09456e-05)
(9.28929e-05 -2.38001e-05 5.74335e-06)
(5.25493e-05 -0.000322629 5.25493e-05)
(-7.83294e-05 -0.000221406 3.79683e-05)
(-3.3556e-05 -1.63061e-05 1.35604e-05)
(5.41615e-05 -1.00608e-05 -4.78621e-06)
(3.79683e-05 -0.000221406 -7.83294e-05)
(-4.46741e-05 -0.000232372 -4.46741e-05)
(-2.55271e-05 -2.01951e-05 -1.25782e-05)
(2.09456e-05 3.26716e-06 -2.91476e-06)
(1.35604e-05 -1.63061e-05 -3.3556e-05)
(-1.25782e-05 -2.01951e-05 -2.55271e-05)
(-4.47189e-06 5.74625e-06 -4.47189e-06)
)
;
    }
}


// ************************************************************************* //
