/*--------------------------------*- C++ -*----------------------------------*\
| =========                 |                                                 |
| \\      /  F ield         | OpenFOAM: The Open Source CFD Toolbox           |
|  \\    /   O peration     | Version:  5.x                                   |
|   \\  /    A nd           | Web:      www.OpenFOAM.org                      |
|    \\/     M anipulation  |                                                 |
\*---------------------------------------------------------------------------*/
FoamFile
{
    version     2.0;
    format      ascii;
    class       volVectorField;
    location    "0.1";
    object      Us;
}
// * * * * * * * * * * * * * * * * * * * * * * * * * * * * * * * * * * * * * //

dimensions      [0 1 -1 0 0 0 0];

internalField   uniform (0 0 0);

boundaryField
{
    inlet
    {
        type            zeroGradient;
    }
    outlet
    {
        type            zeroGradient;
    }
    walls
    {
        type            zeroGradient;
    }
    procBoundary1to0
    {
        type            processor;
        value           nonuniform List<vector> 
16
(
(-1.34078e-15 -3.08525e-12 -1.34078e-15)
(-4.92272e-14 -1.13276e-10 -4.92272e-14)
(-5.11608e-14 -1.17726e-10 -5.11608e-14)
(-3.48505e-15 -8.01943e-12 -3.48505e-15)
(-4.92272e-14 -1.13276e-10 -4.92272e-14)
(-1.7849e-12 -4.10724e-09 -1.7849e-12)
(-1.85373e-12 -4.26561e-09 -1.85373e-12)
(-1.2466e-13 -2.86855e-10 -1.2466e-13)
(-5.11608e-14 -1.17726e-10 -5.11608e-14)
(-1.85373e-12 -4.26561e-09 -1.85373e-12)
(-1.92669e-12 -4.43349e-09 -1.92669e-12)
(-1.31176e-13 -3.01849e-10 -1.31176e-13)
(-3.48505e-15 -8.01943e-12 -3.48505e-15)
(-1.2466e-13 -2.86855e-10 -1.2466e-13)
(-1.31176e-13 -3.01849e-10 -1.31176e-13)
(-1.07244e-14 -2.4678e-11 -1.07244e-14)
)
;
    }
}


// ************************************************************************* //
