/*--------------------------------*- C++ -*----------------------------------*\
| =========                 |                                                 |
| \\      /  F ield         | OpenFOAM: The Open Source CFD Toolbox           |
|  \\    /   O peration     | Version:  5.x                                   |
|   \\  /    A nd           | Web:      www.OpenFOAM.org                      |
|    \\/     M anipulation  |                                                 |
\*---------------------------------------------------------------------------*/
FoamFile
{
    version     2.0;
    format      ascii;
    class       volScalarField;
    location    "0.084";
    object      interFace;
}
// * * * * * * * * * * * * * * * * * * * * * * * * * * * * * * * * * * * * * //

dimensions      [0 0 0 0 0 0 0];

internalField   nonuniform List<scalar> 
1560
(
0
0
0
0
0
0
0
0
0
0
0
0
0
0
0
0
0
0
0
0
0
0
0
0
0
0
0
0
0
0
0
0
0
0
0
0
0
0
0
0
0
0
0
0
0
0
0
0
0
0
0
0
0
0
0
0
0
0
0
0
0
0
0
0
0
0
0
0
0
0
0
0
0
0
0
0
0
0
0
0
0
0
0
0
0
0
0
0
0
0
0
0
0
0
0
0
0
0
0
0
0
0
0
0
0
0
0
0
0
0
0
0
0
0
0
0
0
0
0
0
0
0
0
0
0
0
0
0
0
0
0
0
0
0
0
0
0
0
0
0
0
0
0
0
0
0
0
0
0
0
0
0
0
0
0
0
0
0
0
0
0
0
0
0
0
0
0
0
0
0
0
0
0
0
0
0
0
0
0
0
0
0
0
0
0
0
0
0
0
0
0
0
0
0
0
0
0
0
0
0
0
0
0
0
0
0
0
0
0
0
0
0
0
0
0
0
0
0
0
0
0
0
0
0
0
0
0
0
0
0
0
0
0
0
0
0
0
0
0
0
0
0
0
0
0
0
0
0
0
0
0
0
0
0
0
0
0
0
0
0
0
0
0
0
0
0
0
0
0
0
0
0
0
0
0
0
0
0
0
0
0
0
0
0
0
0
0
0
0
0
0
0
0
0
0
0
0
0
0
0
0
0
0
0
0
0
0
0
0
0
0
0
0
0
0
0
0
0
0
0
0
0
0
0
0
0
0
0
0
0
0
0
0
0
0
0
0
0
0
0
0
0
0
0
0
0
0
0
0
0
0
0
0
0
0
0
0
0
0
0
0
0
0
0
0
0
0
0
0
0
0
0
0
0
0
0
0
0
0
0
0
0
0
0
0
0
0
0
0
0
0
0
0
0
0
0
0
0
0
0
0
0
0
0
0
0
0
0
0
0
0
0
0
0
0
0
0
0
0
0
0
0
0
0
0
0
0
0
0
0
0
0
0
0
0
0
0
0
0
0
0
0
0
0
0
0
0
0
0
0
0
0
0
0
0
0
0
0
0
0
0
0
0
0
0
0
0
0
0
0
0
0
0
0
0
0
0
0
0
0
0
0
0
0
0
0
0
0
0
0
0
0
0
0
0
0
0
0
0
0
0
0
0
0
0
0
0
0
0
0
0
0
0
0
0
0
0
0
0
0
0
0
0
0
0
0
0
0
0
0
0
0
0
0
0
0
0
0
0
0
0
0
0
0
0
0
0
0
0
0
0
0
0
0
0
0
0
0
0
0
0
0
0
0
0
0
0
0
0
0
0
0
0
0
0
0
0
0
0
0
0
0
0
0
0
0
0
0
0
0
0
0
0
0
0
0
0
0
0
0
0
0
0
0
0
0
0
0
0
0
0
0
0
0
0
0
0
0
0
0
0
0
0
0
0
0
0
0
0
0
0
0
0
0
0
0
0
0
0
0
0
0
0
0
0
0
0
0
0
0
0
0
0
0
0
0
0
0
0
0
0
0
0
0
0
0
0
0
0
0
0.423386
0.854467
0
0
0
0
0
0
0
0
0
0
0
0
0
0
0
0
0
0
0
0
0
0
0
0.328321
0.849043
0
0
0
0
0
0
0
0
0
0
0
0
0
0
0
0
0
0
0
0
0
0
0
0
0
0
0
0
0
0
0
0
0
0
0
0
0
0
0
0
0
0
0
0
0
0
0
0
0.629327
0
0
0
0
0
0
0
0
0
0
0
0
0
0
0
0
0
0
0
0
0
0
0
0
0.28004
0.728429
0
0
0
0
0
0
0
0
0
0
0
0
0
0
0
0
0
0
0
0
0
0
0
0.647881
0
0
0
0
0
0
0
0
0
0
0
0
0
0
0
0
0
0
0
0
0
0
0
0
0
0
0
0
0
0
0
0
0
0
0
0
0
0
0
0
0
0
0
0
0
0
0
0
0
0
0
0
0
0
0
0
0
0
0
0
0
0
0
0
0
0
0
0
0
0
0
0
0
0
0
0
0
0
0
0
0
0
0
0
0
0
0
0
0
0
0
0
0
0
0
0
0
0
0
0
0
0
0
0
0
0
0
0
0
0
0
0
0
0
0
0
0
0
0
0
0
0
0
0
0
0
0
0
0
0
0
0
0
0
0
0
0
0
0
0
0
0
0
0
0
0
0
0
0
0
0
0
0
0
0
0
0
0
0
0
0
0
0
0
0
0
0
0
0
0
0
0
0
0
0
0
0
0
0
0
0
0
0
0
0
0
0
0
0
0
0
0
0
0
0
0
0
0
0
0
0
0
0
0
0.549101
0.0112637
0.280325
0.48869
0.757752
0.219914
0.488975
0.916943
0.379105
0.648166
0
0
0
0
0.898388
0.360551
0.629612
0.300131
0.569192
0.0313547
0.300416
0
0.843474
0
0.889216
0
0.710032
0.889406
0
0
0
0
0
0
0
0
0
0
0
0
0
0
0.597461
0.0596147
0.328755
0.727637
0.996777
0.458931
0.728071
0.672755
0.423877
0.423972
0.583117
0.468743
0.627888
0.627983
0.762347
0.692748
0.513469
0.851893
0.558335
0.89676
0.71748
0.762442
0.692938
0.513659
0.852178
0.55843
0.89695
0.717671
0.503679
0.503824
0.548572
0.370646
0.281005
0.325753
0.325898
0
0.507531
0.848754
0
0
0.935538
0
0
0.508109
0
0
0
0.936117
0
0.77253
0.593248
0.638141
0.460215
0.549711
0.594604
0.415322
0.772819
0.593537
0.638286
0.460359
0.550145
0.594893
0.415611
0.852034
0.782435
0.78253
0
0.648022
0.986447
0.986542
0.862243
0.862388
0.727854
0.549928
0.818851
0.684317
0.684462
0.195181
0.105543
0.264686
0.264781
0.309552
0.150315
0.15041
0
0.459273
0.728334
0
0
0.667923
0.907765
0
0.459653
0
0.907955
0
0.668303
0
0.284774
0.37432
0.533557
0.354278
0.419186
0.399144
0.239907
0.284869
0.374605
0.533747
0.354468
0.419376
0.399239
0.240097
0.692526
0.15468
0.42382
0.284856
0.553996
0.0161502
0.28529
0.237541
0.104363
0.104507
0.1479
0.149256
0.192648
0.192792
0.327109
0.373214
0.193932
0.416606
0.238824
0.461499
0.282217
0.327254
0.373503
0.194221
0.41704
0.238969
0.461788
0.282506
0.374461
0.643381
0.623244
0.623339
0.508873
0.508968
0.488831
0.416823
0.462927
0.463072
0.685746
0.328538
0.551212
0.551357
0.125631
0.0560352
0.0561303
0.0359933
0.100902
0.0807648
0.0808598
0.215223
0.324906
0.145627
0.304769
0.190494
0.349636
0.170357
0.215318
0.325097
0.145817
0.305055
0.190589
0.349826
0.170547
0.553553
0.891977
0.71279
0.598419
0.936844
0.822473
0.777606
0.553933
0.713075
0.892452
0.598704
0.937224
0.822853
0.778082
0.0608984
0.0610431
0.105791
0.107147
0.0175064
0.0622545
0.0623992
0
0.602596
0.854178
0
0
0.464066
0.733206
0
0.603175
0
0.733351
0
0.464645
0
0.552423
0.595816
0.640708
0.864739
0.731561
0.776454
0.819846
0.552857
0.596394
0.641142
0.865317
0.732284
0.777032
0.820569
0.329749
0.150467
0.19536
0.196716
0.286212
0.331105
0.151823
0.330039
0.150756
0.195505
0.196861
0.286646
0.331395
0.152113
0.304911
0.414594
0.414689
0.573831
0.280181
0.439323
0.439418
0.419463
0.419607
0.285073
0.286429
0.555353
0.420819
0.420963
0
0
0
0
0
0
0
0.0761262
0.0762213
0.120993
0.185904
0.0962662
0.141038
0.141133
0
0.848936
0
0
0
0.479364
0.748425
0
0.849316
0
0.74852
0
0.479744
0
0.344997
0.165718
0.210585
0.275496
0.365042
0.409909
0.23063
0.345188
0.165908
0.21068
0.275591
0.365328
0.410099
0.23082
0.683327
0.50414
0.484003
0.728193
0.528869
0.752923
0.708056
0.504425
0.683802
0.484383
0.728573
0.529154
0.753303
0.708531
0
0.859747
0
0.559204
0.828344
0.290498
0.559638
0.153324
0.199428
0.199573
0.063683
0.244321
0.108431
0.108576
0.242893
0.468279
0.288997
0.332389
0.33389
0.377282
0.198
0.434685
0.43478
0.300272
0.365183
0.634104
0.499596
0.499691
0.243037
0.468568
0.289286
0.332823
0.334035
0.377571
0.198289
0.508959
0.688096
0.732989
0.465422
0.510315
0.734345
0.689453
0.509393
0.68882
0.733568
0.466001
0.510749
0.734924
0.690176
0.332606
0.557993
0.558137
0.601529
0.423603
0.466995
0.46714
0.952578
0.594017
0.753159
0.818166
0.618746
0.842895
0.977308
0.952388
0.593827
0.753064
0.81788
0.618556
0.84261
0.977118
0.295636
0.405322
0.405417
0.205998
0.450189
0.25077
0.250865
0
0
0
0
0
0
0
0.598672
0.957237
0.822703
0.734562
0.600028
0.824059
0.958593
0.598962
0.957526
0.823137
0.734707
0.600318
0.824493
0.958882
0.385228
0.674194
0.494914
0.474775
0.539781
0.519641
0.340362
0.385323
0.674384
0.495105
0.47506
0.539876
0.519831
0.340552
0.703418
0.524231
0.748284
0.544276
0.589142
0.813196
0.768329
0.524516
0.703893
0.748664
0.544656
0.589427
0.813576
0.768804
0.335246
0.335391
0.380139
0.560777
0.471136
0.515884
0.516029
0
0
0
0
0
0.946387
0
0
0
0
0
0
0.946965
0
0.474916
0.763881
0.763976
0.743836
0.629468
0.609328
0.609423
0.647489
0.511599
0.556492
0.780522
0.826626
0.871519
0.735629
0.647923
0.512178
0.556926
0.781101
0.82735
0.872098
0.736353
0.604097
0.424815
0.469708
0.650346
0.739842
0.784735
0.605453
0.604386
0.425104
0.469852
0.650491
0.740276
0.785024
0.605742
0.69381
0.693955
0.559421
0.740059
0
0.874449
0.874593
0
0
0
0
0
0
0
0.972479
0.613918
0.837971
0.813337
0.678829
0.902883
0
0.972669
0.614108
0.838257
0.813432
0.679019
0.903168
0
)
;

boundaryField
{
    inlet
    {
        type            calculated;
        value           uniform 0;
    }
    wall
    {
        type            calculated;
        value           uniform 0;
    }
    outlet
    {
        type            calculated;
        value           uniform 0;
    }
    procBoundary1to0
    {
        type            processor;
        value           uniform 0;
    }
    procBoundary1to3
    {
        type            processor;
        value           uniform 0;
    }
}


// ************************************************************************* //
