/*--------------------------------*- C++ -*----------------------------------*\
| =========                 |                                                 |
| \\      /  F ield         | OpenFOAM: The Open Source CFD Toolbox           |
|  \\    /   O peration     | Version:  5.x                                   |
|   \\  /    A nd           | Web:      www.OpenFOAM.org                      |
|    \\/     M anipulation  |                                                 |
\*---------------------------------------------------------------------------*/
FoamFile
{
    version     2.0;
    format      ascii;
    class       volScalarField;
    location    "0.05";
    object      Ksl;
}
// * * * * * * * * * * * * * * * * * * * * * * * * * * * * * * * * * * * * * //

dimensions      [1 -3 -1 0 0 0 0];

internalField   nonuniform List<scalar> 
320
(
0
0
0
0
0
0
0
0
0
0
0
0
0
0
0
0
4.75161e-05
0.000251982
0.000182098
1.98657e-05
0.00144636
0.00618681
0.00469102
0.000572776
0.0387598
0.145961
0.110291
0.0131781
0.614607
1.67208
1.16525
0.243657
2.86886
3.15919
1.52193
1.3155
0.577233
1.89281
1.18065
0.270518
0.0187511
0.0445395
0.0321295
0.00630732
0.00144405
0.00384191
0.00272021
0.000449929
2.67505e-05
8.96253e-05
6.3372e-05
8.91288e-06
0
0
0
0
0
0
0
0
0
0
0
0
0
0
0
0
0
0
0
0
0
0
0
0
0
0
0
0
0
0
0
0
0
0
0
0
0
0
0
0
0
5.00113e-05
3.46305e-05
0
0.000251982
0.001571
0.00114733
0.000185277
0.00618681
0.0516918
0.0340919
0.00516947
0.145961
1.468
1.40053
0.118292
1.67208
3.23308
1.5494
1.17186
3.15919
3.19008
1.50609
1.48353
1.89281
3.7649
1.72503
1.15616
0.0445395
0.815605
0.414745
0.0325641
0.00384191
0.0154012
0.0103779
0.00269122
8.96253e-05
0.000847716
0.000486432
6.47103e-05
0
1.73362e-05
1.11525e-05
0
0
0
0
0
0
0
0
0
0
0
0
0
0
0
0
0
0
0
0
0
0
0
0
0
0
0
0
0
0
0
0
0
0
0
0
0
0
3.46305e-05
2.74538e-05
0
0.000182098
0.00114733
0.000967144
0.000160876
0.00469102
0.0340919
0.0252924
0.00421387
0.110291
1.40053
1.30899
0.0795036
1.16525
1.5494
1.04496
0.84222
1.52193
1.50609
1.00632
1.00521
1.18065
1.72503
1.21097
0.999362
0.0321295
0.414745
0.353874
0.0178026
0.00272021
0.0103779
0.00615644
0.00185131
6.3372e-05
0.000486432
0.00036642
3.76064e-05
0
1.11525e-05
7.084e-06
0
0
0
0
0
0
0
0
0
0
0
0
0
0
0
0
0
0
0
0
0
0
0
0
0
0
0
0
0
0
0
0
0
0
0
0
0
0
0
0
0
1.98657e-05
0.000185277
0.000160876
0
0.000572776
0.00516947
0.00421387
0.00103855
0.0131781
0.118292
0.0795036
0.0181643
0.243657
1.17186
0.84222
0.229034
1.3155
1.48353
1.00521
0.842605
0.270518
1.15616
0.999362
0.187281
0.00630732
0.0325641
0.0178026
0.00693003
0.000449929
0.00269122
0.00185131
0.000928882
8.91288e-06
6.47103e-05
3.76064e-05
0
0
0
0
0
0
0
0
0
0
0
0
0
0
0
0
0
0
0
0
0
0
0
0
0
0
0
0
0
)
;

boundaryField
{
    inlet
    {
        type            zeroGradient;
    }
    outlet
    {
        type            zeroGradient;
    }
    walls
    {
        type            zeroGradient;
    }
}


// ************************************************************************* //
