/*--------------------------------*- C++ -*----------------------------------*\
| =========                 |                                                 |
| \\      /  F ield         | OpenFOAM: The Open Source CFD Toolbox           |
|  \\    /   O peration     | Version:  5.x                                   |
|   \\  /    A nd           | Web:      www.OpenFOAM.org                      |
|    \\/     M anipulation  |                                                 |
\*---------------------------------------------------------------------------*/
FoamFile
{
    version     2.0;
    format      ascii;
    class       volScalarField;
    location    "0.05";
    object      p;
}
// * * * * * * * * * * * * * * * * * * * * * * * * * * * * * * * * * * * * * //

dimensions      [0 2 -2 0 0 0 0];

internalField   nonuniform List<scalar> 
320
(
-2.75221e-08
-1.67914e-08
-1.22268e-08
-1.27597e-08
-8.61212e-08
-5.78379e-08
-4.65781e-08
-4.01239e-08
-1.54109e-07
-8.42729e-08
-6.10041e-08
-7.06726e-08
-2.49344e-07
-1.47455e-07
-1.18593e-07
-1.22355e-07
-3.59683e-07
-2.11e-07
-1.50254e-07
-1.86273e-07
-4.84068e-07
-1.1558e-07
-1.54644e-07
-2.67018e-07
-6.83716e-07
-6.87368e-07
-4.63263e-07
-5.14245e-07
-7.58879e-07
2.22806e-07
1.40165e-07
-4.60197e-07
-6.44874e-07
-8.15842e-07
-4.85026e-07
-8.26372e-07
-6.72866e-07
-1.63671e-06
-1.62532e-06
-1.08296e-06
-8.80137e-07
-8.8892e-07
-1.26341e-06
-9.19794e-07
-1.03136e-06
-1.23317e-06
-1.2581e-06
-1.1339e-06
-1.15498e-06
-1.21163e-06
-1.32782e-06
-1.1697e-06
-1.18571e-06
-1.21397e-06
-1.25086e-06
-1.20618e-06
-1.25929e-06
-1.29256e-06
-1.32909e-06
-1.27007e-06
-1.25963e-06
-1.26718e-06
-1.28503e-06
-1.27395e-06
-1.29451e-06
-1.30911e-06
-1.31939e-06
-1.30396e-06
-1.29533e-06
-1.29948e-06
-1.30729e-06
-1.30542e-06
-1.30546e-06
-1.31097e-06
-1.3144e-06
-1.31229e-06
-1.30792e-06
-1.31063e-06
-1.31371e-06
-1.31412e-06
-1.67914e-08
3.93426e-09
5.71823e-09
5.5301e-09
-5.78379e-08
2.47972e-08
2.54658e-08
2.40188e-08
-8.42729e-08
1.1369e-07
8.88859e-08
6.9136e-08
-1.47455e-07
3.2619e-07
2.08975e-07
1.48407e-07
-2.11e-07
9.35527e-07
5.79465e-07
3.30148e-07
-1.1558e-07
2.72797e-06
1.55082e-06
7.19884e-07
-6.87368e-07
2.82117e-06
1.52676e-06
4.88552e-07
2.22806e-07
2.41013e-05
1.23828e-05
2.77457e-06
-8.15842e-07
1.09616e-06
2.55898e-07
-3.43724e-07
-1.63671e-06
-2.61228e-05
-1.39209e-05
-4.40786e-06
-8.8892e-07
-5.94215e-06
-4.12575e-06
-2.17078e-06
-1.23317e-06
-3.41522e-06
-2.50502e-06
-2.01025e-06
-1.21163e-06
-2.5184e-06
-2.13084e-06
-1.73841e-06
-1.21397e-06
-1.64464e-06
-1.52579e-06
-1.49547e-06
-1.29256e-06
-1.55424e-06
-1.51515e-06
-1.45259e-06
-1.26718e-06
-1.36595e-06
-1.36433e-06
-1.36252e-06
-1.30911e-06
-1.35517e-06
-1.36135e-06
-1.35612e-06
-1.29948e-06
-1.32587e-06
-1.33275e-06
-1.33194e-06
-1.31097e-06
-1.3219e-06
-1.32681e-06
-1.32775e-06
-1.31063e-06
-1.31759e-06
-1.32132e-06
-1.32251e-06
-1.22268e-08
5.71823e-09
9.67109e-09
9.87676e-09
-4.65781e-08
2.54658e-08
3.6152e-08
3.42434e-08
-6.10041e-08
8.88859e-08
9.47804e-08
7.71065e-08
-1.18593e-07
2.08975e-07
1.87372e-07
1.31631e-07
-1.50254e-07
5.79465e-07
4.45137e-07
2.31881e-07
-1.54644e-07
1.55082e-06
1.01688e-06
4.49953e-07
-4.63263e-07
1.52676e-06
1.25431e-06
7.42595e-08
1.40165e-07
1.23828e-05
8.14101e-06
1.39976e-06
-4.85026e-07
2.55898e-07
7.17871e-07
-5.44275e-07
-1.62532e-06
-1.39209e-05
-9.61571e-06
-2.92205e-06
-1.26341e-06
-4.12575e-06
-4.07698e-06
-1.77873e-06
-1.2581e-06
-2.50502e-06
-2.28598e-06
-1.80648e-06
-1.32782e-06
-2.13084e-06
-2.20069e-06
-1.63006e-06
-1.25086e-06
-1.52579e-06
-1.53866e-06
-1.48204e-06
-1.32909e-06
-1.51515e-06
-1.5507e-06
-1.45866e-06
-1.28503e-06
-1.36433e-06
-1.38592e-06
-1.37792e-06
-1.31939e-06
-1.36135e-06
-1.37662e-06
-1.37159e-06
-1.30729e-06
-1.33275e-06
-1.34338e-06
-1.34322e-06
-1.3144e-06
-1.32681e-06
-1.33368e-06
-1.33616e-06
-1.31371e-06
-1.32132e-06
-1.32584e-06
-1.32772e-06
-1.27597e-08
5.5301e-09
9.87676e-09
1.35558e-08
-4.01239e-08
2.40188e-08
3.42434e-08
4.51889e-08
-7.06726e-08
6.9136e-08
7.71065e-08
9.21037e-08
-1.22355e-07
1.48407e-07
1.31631e-07
1.49319e-07
-1.86273e-07
3.30148e-07
2.31881e-07
2.40195e-07
-2.67018e-07
7.19884e-07
4.49953e-07
3.33344e-07
-5.14245e-07
4.88552e-07
7.42595e-08
1.56693e-07
-4.60197e-07
2.77457e-06
1.39976e-06
4.64852e-07
-8.26372e-07
-3.43724e-07
-5.44275e-07
-5.5187e-07
-1.08296e-06
-4.40786e-06
-2.92205e-06
-1.82034e-06
-9.19794e-07
-2.17078e-06
-1.77873e-06
-1.74999e-06
-1.1339e-06
-2.01025e-06
-1.80648e-06
-1.75959e-06
-1.1697e-06
-1.73841e-06
-1.63006e-06
-1.69514e-06
-1.20618e-06
-1.49547e-06
-1.48204e-06
-1.55051e-06
-1.27007e-06
-1.45259e-06
-1.45866e-06
-1.48989e-06
-1.27395e-06
-1.36252e-06
-1.37792e-06
-1.41358e-06
-1.30396e-06
-1.35612e-06
-1.37159e-06
-1.38773e-06
-1.30542e-06
-1.33194e-06
-1.34322e-06
-1.35465e-06
-1.31229e-06
-1.32775e-06
-1.33616e-06
-1.34342e-06
-1.31412e-06
-1.32251e-06
-1.32772e-06
-1.33196e-06
)
;

boundaryField
{
    inlet
    {
        type            zeroGradient;
    }
    outlet
    {
        type            totalPressure;
        rho             rho;
        psi             none;
        gamma           1;
        p0              uniform 0;
        value           nonuniform List<scalar> 
16
(
-1.93031e-14
-3.75324e-15
-1.79245e-15
-7.0111e-15
-3.75324e-15
0
0
0
-1.79245e-15
0
0
0
-7.0111e-15
0
0
0
)
;
    }
    walls
    {
        type            zeroGradient;
    }
}


// ************************************************************************* //
