/*--------------------------------*- C++ -*----------------------------------*\
| =========                 |                                                 |
| \\      /  F ield         | OpenFOAM: The Open Source CFD Toolbox           |
|  \\    /   O peration     | Version:  5.x                                   |
|   \\  /    A nd           | Web:      www.OpenFOAM.org                      |
|    \\/     M anipulation  |                                                 |
\*---------------------------------------------------------------------------*/
FoamFile
{
    version     2.0;
    format      ascii;
    class       volVectorField;
    location    "0.05";
    object      U;
}
// * * * * * * * * * * * * * * * * * * * * * * * * * * * * * * * * * * * * * //

dimensions      [0 1 -1 0 0 0 0];

internalField   nonuniform List<vector> 
320
(
(-3.04748e-08 1.91685e-07 -3.04748e-08)
(-3.71535e-08 5.63907e-08 -5.42617e-08)
(1.10811e-08 3.14217e-08 -4.97362e-08)
(1.66613e-08 1.08363e-07 -4.47064e-08)
(-1.02027e-07 2.34971e-07 -1.02027e-07)
(-1.23213e-07 2.14394e-08 -2.21321e-07)
(3.98565e-08 -1.44993e-09 -1.96181e-07)
(5.65237e-08 1.39897e-07 -1.64153e-07)
(-2.39197e-07 3.73458e-07 -2.39197e-07)
(-2.72145e-07 3.55227e-08 -5.74635e-07)
(1.27552e-07 2.18988e-08 -4.75831e-07)
(1.52199e-07 2.61377e-07 -3.74115e-07)
(-4.35556e-07 5.07621e-07 -4.35556e-07)
(-4.78502e-07 -1.99212e-07 -1.41372e-06)
(2.68623e-07 -2.20923e-07 -1.10004e-06)
(2.89501e-07 3.82153e-07 -7.52547e-07)
(-9.36067e-07 9.53895e-07 -9.36067e-07)
(-1.00449e-06 -2.36107e-07 -3.67526e-06)
(7.1246e-07 -6.59096e-08 -2.65706e-06)
(7.42624e-07 8.35695e-07 -1.63394e-06)
(-1.62442e-06 1.35325e-06 -1.62442e-06)
(-1.52449e-06 -2.86577e-07 -9.08612e-06)
(1.36773e-06 -6.97347e-07 -6.03125e-06)
(1.18667e-06 1.32896e-06 -2.87136e-06)
(-2.54978e-06 2.19263e-06 -2.54978e-06)
(-3.07566e-06 -2.43323e-06 -2.08293e-05)
(2.34798e-06 -1.02295e-06 -1.38392e-05)
(2.71861e-06 2.08569e-06 -5.19648e-06)
(-6.23363e-06 2.98092e-06 -6.23363e-06)
(-4.81607e-06 4.46845e-07 -7.81958e-05)
(5.97474e-06 -6.43312e-07 -4.35525e-05)
(4.30189e-06 3.92191e-06 -1.02651e-05)
(-4.32377e-06 4.23082e-06 -4.32377e-06)
(-6.39633e-06 -4.98582e-06 -5.34722e-05)
(5.13522e-06 2.76727e-06 -3.78409e-05)
(6.87043e-06 6.15151e-06 -7.38674e-06)
(5.83084e-06 4.84418e-06 5.83084e-06)
(3.97331e-06 -7.82889e-06 7.10974e-05)
(-4.85752e-06 2.71551e-06 3.78538e-05)
(-2.84625e-06 4.53481e-06 8.8423e-06)
(5.84777e-06 2.87855e-06 5.84777e-06)
(7.71511e-06 -2.79934e-06 6.71054e-05)
(-6.11928e-06 -1.23951e-07 4.68275e-05)
(-7.6065e-06 1.77504e-06 1.02615e-05)
(1.52653e-06 1.54253e-06 1.52653e-06)
(1.86298e-06 -2.81379e-06 1.40183e-05)
(-1.6609e-06 -3.98526e-06 9.50049e-06)
(-1.87039e-06 1.40854e-06 3.51394e-06)
(1.67125e-06 1.20204e-06 1.67125e-06)
(2.2354e-06 1.26311e-07 1.00383e-05)
(-1.97664e-06 2.94748e-08 7.37359e-06)
(-2.44326e-06 1.16094e-06 3.31474e-06)
(4.06105e-07 2.69188e-07 4.06105e-07)
(6.11271e-07 -1.03477e-06 2.84614e-06)
(-5.47643e-07 -1.45918e-06 2.09119e-06)
(-7.02392e-07 4.29305e-07 1.16584e-06)
(4.0562e-07 4.02382e-07 4.0562e-07)
(5.14404e-07 1.26304e-07 1.48992e-06)
(-5.184e-07 -2.19342e-09 1.18646e-06)
(-6.07476e-07 4.90354e-07 8.34294e-07)
(1.24847e-07 5.05882e-08 1.24847e-07)
(1.86722e-07 -2.69004e-07 5.77914e-07)
(-1.61942e-07 -3.51919e-07 4.7369e-07)
(-2.09391e-07 1.31321e-07 3.36026e-07)
(9.2814e-08 1.15629e-07 9.2814e-08)
(1.12796e-07 2.86539e-08 2.40962e-07)
(-1.17034e-07 -1.34644e-08 2.17979e-07)
(-1.32689e-07 1.4602e-07 1.95525e-07)
(3.86061e-08 2.21054e-08 3.86061e-08)
(5.38067e-08 -4.79817e-08 1.12003e-07)
(-4.01017e-08 -6.09617e-08 1.04677e-07)
(-5.20353e-08 4.59088e-08 8.95408e-08)
(2.33985e-08 2.66994e-08 2.33985e-08)
(2.92191e-08 -5.48102e-10 4.79437e-08)
(-2.19822e-08 -1.04575e-08 4.8801e-08)
(-2.65885e-08 3.16998e-08 4.75226e-08)
(1.10615e-08 6.30354e-09 1.10615e-08)
(1.51148e-08 -5.04137e-09 2.14155e-08)
(-6.31392e-09 -6.49172e-09 2.26515e-08)
(-9.81677e-09 9.38511e-09 2.28987e-08)
(-5.42617e-08 5.63907e-08 -3.71535e-08)
(-5.62678e-08 -2.27532e-07 -5.62678e-08)
(1.97576e-08 -2.2304e-07 -5.72458e-08)
(2.14407e-08 -1.04515e-07 -5.27648e-08)
(-2.21321e-07 2.14394e-08 -1.23213e-07)
(-2.17634e-07 -5.16101e-07 -2.17634e-07)
(9.47296e-08 -4.43757e-07 -2.16448e-07)
(8.75197e-08 -1.97062e-07 -1.81932e-07)
(-5.74635e-07 3.55227e-08 -2.72145e-07)
(-5.0795e-07 -1.18982e-06 -5.0795e-07)
(3.23089e-07 -9.12172e-07 -4.87953e-07)
(2.51903e-07 -3.35535e-07 -3.84067e-07)
(-1.41372e-06 -1.99212e-07 -4.78502e-07)
(-1.14659e-06 -3.3822e-06 -1.14659e-06)
(9.25969e-07 -2.46918e-06 -1.05699e-06)
(6.31851e-07 -8.9405e-07 -6.82793e-07)
(-3.67526e-06 -2.36107e-07 -1.00449e-06)
(-2.7253e-06 -8.06576e-06 -2.7253e-06)
(2.75342e-06 -5.1215e-06 -2.40722e-06)
(1.75457e-06 -1.29312e-06 -1.36833e-06)
(-9.08612e-06 -2.86577e-07 -1.52449e-06)
(-5.94743e-06 -1.79726e-05 -5.94743e-06)
(7.61514e-06 -1.22953e-05 -5.00423e-06)
(4.33095e-06 -2.29427e-06 -2.1014e-06)
(-2.08293e-05 -2.43323e-06 -3.07566e-06)
(-1.43896e-05 -7.31843e-05 -1.43896e-05)
(1.81137e-05 -3.95238e-05 -1.31963e-05)
(1.12895e-05 -5.31621e-06 -3.61962e-06)
(-7.81958e-05 4.46845e-07 -4.81607e-06)
(-4.21154e-05 -5.6107e-05 -4.21154e-05)
(7.46732e-05 -3.71753e-05 -3.2176e-05)
(3.74673e-05 1.33753e-06 -6.33499e-06)
(-5.34722e-05 -4.98582e-06 -6.39633e-06)
(-4.03306e-05 -0.000584492 -4.03306e-05)
(5.21732e-05 -0.000276724 -4.9144e-05)
(3.73003e-05 1.50837e-05 -5.56385e-06)
(7.10974e-05 -7.82889e-06 3.97331e-06)
(3.59461e-05 -0.00029025 3.59461e-05)
(-6.78143e-05 -0.000208121 2.51154e-05)
(-3.17274e-05 5.95294e-06 5.31359e-06)
(6.71054e-05 -2.79934e-06 7.71511e-06)
(4.91782e-05 -8.51807e-05 4.91782e-05)
(-6.40237e-05 -4.71065e-05 5.62011e-05)
(-4.40791e-05 -4.4882e-06 7.47332e-06)
(1.40183e-05 -2.81379e-06 1.86298e-06)
(9.93203e-06 -6.30766e-05 9.93203e-06)
(-1.23056e-05 -4.60872e-05 9.88402e-06)
(-7.83928e-06 -5.77954e-06 2.44848e-06)
(1.00383e-05 1.26311e-07 2.2354e-06)
(7.99059e-06 -1.13891e-05 7.99059e-06)
(-8.76387e-06 -7.66794e-06 8.43714e-06)
(-6.48728e-06 -1.15638e-06 2.62766e-06)
(2.84614e-06 -1.03477e-06 6.11271e-07)
(2.32762e-06 -9.92779e-06 2.32762e-06)
(-2.2445e-06 -7.95089e-06 2.30379e-06)
(-1.62057e-06 -2.10839e-06 9.4007e-07)
(1.48992e-06 1.26304e-07 5.14404e-07)
(1.29623e-06 -2.22294e-06 1.29623e-06)
(-1.16902e-06 -1.69495e-06 1.33215e-06)
(-9.56427e-07 -3.41027e-07 7.94504e-07)
(5.77914e-07 -2.69004e-07 1.86722e-07)
(5.41041e-07 -1.56656e-06 5.41041e-07)
(-4.0279e-07 -1.36384e-06 5.3997e-07)
(-3.44656e-07 -5.17294e-07 3.29706e-07)
(2.40962e-07 2.86539e-08 1.12796e-07)
(2.37572e-07 -4.56021e-07 2.37572e-07)
(-1.59416e-07 -4.00572e-07 2.52873e-07)
(-1.54096e-07 -1.03347e-07 2.21179e-07)
(1.12003e-07 -4.79817e-08 5.38067e-08)
(1.20467e-07 -2.4821e-07 1.20467e-07)
(-6.13324e-08 -2.36724e-07 1.25028e-07)
(-6.64667e-08 -1.03284e-07 1.05522e-07)
(4.79437e-08 -5.48103e-10 2.92191e-08)
(5.4598e-08 -9.36157e-08 5.4598e-08)
(-2.13004e-08 -9.48115e-08 6.08243e-08)
(-2.74911e-08 -3.47445e-08 6.18809e-08)
(2.14155e-08 -5.04137e-09 1.51148e-08)
(2.67955e-08 -3.06826e-08 2.67955e-08)
(-4.34371e-09 -3.17055e-08 3.01874e-08)
(-9.31532e-09 -1.4041e-08 3.19331e-08)
(-4.97362e-08 3.14217e-08 1.10811e-08)
(-5.72458e-08 -2.2304e-07 1.97576e-08)
(1.38969e-08 -2.47953e-07 1.38969e-08)
(2.0846e-08 -1.26994e-07 -1.81646e-09)
(-1.96181e-07 -1.44993e-09 3.98565e-08)
(-2.16448e-07 -4.43757e-07 9.47296e-08)
(7.33024e-08 -4.45372e-07 7.33024e-08)
(8.91511e-08 -1.94781e-07 1.00189e-08)
(-4.75831e-07 2.18988e-08 1.27552e-07)
(-4.87953e-07 -9.12172e-07 3.23089e-07)
(2.47747e-07 -8.35805e-07 2.47747e-07)
(2.53947e-07 -2.38014e-07 6.95275e-08)
(-1.10004e-06 -2.20923e-07 2.68623e-07)
(-1.05699e-06 -2.46918e-06 9.25969e-07)
(7.27606e-07 -2.18657e-06 7.27606e-07)
(6.54938e-07 -6.01466e-07 2.42878e-07)
(-2.65706e-06 -6.59096e-08 7.1246e-07)
(-2.40722e-06 -5.1215e-06 2.75342e-06)
(2.06549e-06 -4.0754e-06 2.06549e-06)
(1.76788e-06 -5.61142e-07 7.79665e-07)
(-6.03125e-06 -6.97347e-07 1.36773e-06)
(-5.00423e-06 -1.22953e-05 7.61514e-06)
(5.22701e-06 -1.17582e-05 5.22701e-06)
(4.05337e-06 -9.12033e-07 1.63214e-06)
(-1.38392e-05 -1.02295e-06 2.34798e-06)
(-1.31963e-05 -3.95238e-05 1.81137e-05)
(1.31869e-05 -2.87283e-05 1.31869e-05)
(1.21888e-05 -2.07184e-06 3.56826e-06)
(-4.35525e-05 -6.43312e-07 5.97474e-06)
(-3.2176e-05 -3.71753e-05 7.46732e-05)
(4.21591e-05 -4.50967e-05 4.21591e-05)
(2.98939e-05 1.80943e-06 8.33297e-06)
(-3.78409e-05 2.76727e-06 5.13522e-06)
(-4.9144e-05 -0.000276724 5.21732e-05)
(3.99634e-05 -0.000190855 3.99634e-05)
(4.96146e-05 1.0304e-05 6.58681e-06)
(3.78538e-05 2.71551e-06 -4.85752e-06)
(2.51154e-05 -0.000208121 -6.78143e-05)
(-3.5838e-05 -0.00027389 -3.5838e-05)
(-2.24568e-05 -4.63711e-06 -7.7113e-06)
(4.68275e-05 -1.23951e-07 -6.11928e-06)
(5.62011e-05 -4.71065e-05 -6.40237e-05)
(-4.79626e-05 -3.93591e-05 -4.79626e-05)
(-5.53637e-05 -2.41598e-06 -8.45378e-06)
(9.50049e-06 -3.98526e-06 -1.6609e-06)
(9.88402e-06 -4.60872e-05 -1.23056e-05)
(-9.1661e-06 -5.37133e-05 -9.1661e-06)
(-9.1725e-06 -3.52705e-06 -2.00833e-06)
(7.37359e-06 2.94748e-08 -1.97664e-06)
(8.43714e-06 -7.66794e-06 -8.76387e-06)
(-7.33555e-06 -7.7005e-06 -7.33555e-06)
(-8.17049e-06 -2.74601e-07 -2.07678e-06)
(2.09119e-06 -1.45918e-06 -5.47643e-07)
(2.30379e-06 -7.95089e-06 -2.2445e-06)
(-1.93109e-06 -8.77487e-06 -1.93109e-06)
(-2.03706e-06 -1.41324e-06 -4.43765e-07)
(1.18646e-06 -2.19342e-09 -5.184e-07)
(1.33215e-06 -1.69495e-06 -1.16902e-06)
(-1.01519e-06 -1.79982e-06 -1.01519e-06)
(-1.14051e-06 -9.99277e-08 -3.02942e-07)
(4.7369e-07 -3.51919e-07 -1.61942e-07)
(5.3997e-07 -1.36384e-06 -4.0279e-07)
(-3.69986e-07 -1.46735e-06 -3.69986e-07)
(-4.14172e-07 -4.41788e-07 -7.64467e-08)
(2.17979e-07 -1.34644e-08 -1.17034e-07)
(2.52873e-07 -4.00572e-07 -1.59416e-07)
(-1.31193e-07 -4.37688e-07 -1.31193e-07)
(-1.6376e-07 -7.41275e-08 -1.33732e-08)
(1.04677e-07 -6.09617e-08 -4.01017e-08)
(1.25028e-07 -2.36724e-07 -6.13324e-08)
(-5.35849e-08 -2.58855e-07 -5.35849e-08)
(-7.03325e-08 -1.1242e-07 -9.97911e-11)
(4.8801e-08 -1.04575e-08 -2.19822e-08)
(6.08243e-08 -9.48115e-08 -2.13004e-08)
(-1.37602e-08 -1.05929e-07 -1.37602e-08)
(-2.5202e-08 -3.97954e-08 1.03607e-08)
(2.26515e-08 -6.49172e-09 -6.31392e-09)
(3.01874e-08 -3.17055e-08 -4.34371e-09)
(-5.78351e-10 -3.58266e-08 -5.7835e-10)
(-7.61962e-09 -1.8585e-08 8.6638e-09)
(-4.47064e-08 1.08363e-07 1.66613e-08)
(-5.27648e-08 -1.04515e-07 2.14407e-08)
(-1.81646e-09 -1.26994e-07 2.0846e-08)
(5.38056e-09 -9.10228e-08 5.38056e-09)
(-1.64153e-07 1.39897e-07 5.65237e-08)
(-1.81932e-07 -1.97062e-07 8.75197e-08)
(1.00189e-08 -1.94781e-07 8.91511e-08)
(2.38843e-08 -1.19131e-07 2.38843e-08)
(-3.74115e-07 2.61377e-07 1.52199e-07)
(-3.84067e-07 -3.35535e-07 2.51903e-07)
(6.95275e-08 -2.38014e-07 2.53947e-07)
(7.26699e-08 -9.87668e-08 7.26699e-08)
(-7.52547e-07 3.82153e-07 2.89501e-07)
(-6.82793e-07 -8.9405e-07 6.31851e-07)
(2.42878e-07 -6.01466e-07 6.54938e-07)
(1.53955e-07 -1.76247e-07 1.53955e-07)
(-1.63394e-06 8.35695e-07 7.42624e-07)
(-1.36833e-06 -1.29312e-06 1.75457e-06)
(7.79665e-07 -5.61142e-07 1.76788e-06)
(4.80993e-07 8.29549e-08 4.80993e-07)
(-2.87136e-06 1.32896e-06 1.18667e-06)
(-2.1014e-06 -2.29427e-06 4.33095e-06)
(1.63214e-06 -9.12033e-07 4.05337e-06)
(7.92164e-07 4.90252e-07 7.92164e-07)
(-5.19648e-06 2.08569e-06 2.71861e-06)
(-3.61962e-06 -5.31621e-06 1.12895e-05)
(3.56826e-06 -2.07184e-06 1.21888e-05)
(1.84072e-06 1.30063e-06 1.84072e-06)
(-1.02651e-05 3.92191e-06 4.30189e-06)
(-6.33499e-06 1.33753e-06 3.74673e-05)
(8.33297e-06 1.80943e-06 2.98939e-05)
(4.19714e-06 4.62621e-06 4.19714e-06)
(-7.38674e-06 6.15151e-06 6.87043e-06)
(-5.56385e-06 1.50837e-05 3.73003e-05)
(6.58681e-06 1.0304e-05 4.96146e-05)
(4.43952e-06 9.50546e-06 4.43952e-06)
(8.8423e-06 4.53481e-06 -2.84625e-06)
(5.31359e-06 5.95294e-06 -3.17274e-05)
(-7.7113e-06 -4.63711e-06 -2.24568e-05)
(-4.071e-06 7.18038e-06 -4.071e-06)
(1.02615e-05 1.77504e-06 -7.6065e-06)
(7.47332e-06 -4.4882e-06 -4.40791e-05)
(-8.45378e-06 -2.41598e-06 -5.53637e-05)
(-5.29582e-06 2.10555e-06 -5.29582e-06)
(3.51394e-06 1.40854e-06 -1.87039e-06)
(2.44848e-06 -5.77954e-06 -7.83928e-06)
(-2.00833e-06 -3.52705e-06 -9.1725e-06)
(-8.28509e-07 6.55811e-07 -8.28509e-07)
(3.31474e-06 1.16094e-06 -2.44326e-06)
(2.62766e-06 -1.15638e-06 -6.48728e-06)
(-2.07678e-06 -2.74601e-07 -8.17049e-06)
(-1.297e-06 3.4189e-07 -1.297e-06)
(1.16584e-06 4.29305e-07 -7.02392e-07)
(9.4007e-07 -2.10839e-06 -1.62057e-06)
(-4.43765e-07 -1.41324e-06 -2.03706e-06)
(-1.7134e-07 -3.15919e-07 -1.7134e-07)
(8.34294e-07 4.90354e-07 -6.07476e-07)
(7.94504e-07 -3.41027e-07 -9.56427e-07)
(-3.02942e-07 -9.99277e-08 -1.14051e-06)
(-2.44871e-07 1.27393e-08 -2.44871e-07)
(3.36026e-07 1.31321e-07 -2.09391e-07)
(3.29706e-07 -5.17294e-07 -3.44656e-07)
(-7.64467e-08 -4.41788e-07 -4.14172e-07)
(-5.64242e-08 -2.21429e-07 -5.64242e-08)
(1.95525e-07 1.4602e-07 -1.32689e-07)
(2.21179e-07 -1.03347e-07 -1.54096e-07)
(-1.33732e-08 -7.41275e-08 -1.6376e-07)
(-3.52299e-08 -2.80592e-08 -3.52299e-08)
(8.95408e-08 4.59088e-08 -5.20353e-08)
(1.05522e-07 -1.03284e-07 -6.64667e-08)
(-9.97935e-11 -1.1242e-07 -7.03325e-08)
(-1.29709e-08 -7.80114e-08 -1.29709e-08)
(4.75226e-08 3.16998e-08 -2.65885e-08)
(6.18809e-08 -3.47445e-08 -2.74911e-08)
(1.03607e-08 -3.97954e-08 -2.5202e-08)
(-2.991e-09 -2.58085e-08 -2.991e-09)
(2.28987e-08 9.38511e-09 -9.81677e-09)
(3.19331e-08 -1.4041e-08 -9.31532e-09)
(8.6638e-09 -1.8585e-08 -7.61962e-09)
(1.51734e-10 -1.58822e-08 1.51735e-10)
)
;

boundaryField
{
    inlet
    {
        type            fixedValue;
        value           uniform (0 0 0);
    }
    outlet
    {
        type            zeroGradient;
    }
    walls
    {
        type            fixedValue;
        value           uniform (0 0 0);
    }
}


// ************************************************************************* //
