/*--------------------------------*- C++ -*----------------------------------*\
| =========                 |                                                 |
| \\      /  F ield         | OpenFOAM: The Open Source CFD Toolbox           |
|  \\    /   O peration     | Version:  5.x                                   |
|   \\  /    A nd           | Web:      www.OpenFOAM.org                      |
|    \\/     M anipulation  |                                                 |
\*---------------------------------------------------------------------------*/
FoamFile
{
    version     2.0;
    format      ascii;
    class       volVectorField;
    location    "0.05";
    object      Us;
}
// * * * * * * * * * * * * * * * * * * * * * * * * * * * * * * * * * * * * * //

dimensions      [0 1 -1 0 0 0 0];

internalField   nonuniform List<vector> 
320
(
(-6.27396e-22 -2.57688e-18 -6.27396e-22)
(-4.6237e-21 -1.89907e-17 -4.6237e-21)
(-4.61911e-21 -1.89719e-17 -4.61911e-21)
(-6.01991e-22 -2.47253e-18 -6.01991e-22)
(-3.62039e-20 -1.48699e-16 -3.62039e-20)
(-2.9657e-19 -1.21809e-15 -2.9657e-19)
(-2.96367e-19 -1.21726e-15 -2.96367e-19)
(-3.49917e-20 -1.4372e-16 -3.49917e-20)
(-2.06521e-18 -8.48236e-15 -2.06521e-18)
(-1.90136e-17 -7.80937e-14 -1.90136e-17)
(-1.90051e-17 -7.80589e-14 -1.90051e-17)
(-2.00996e-18 -8.25543e-15 -2.00996e-18)
(-1.13615e-16 -4.66647e-13 -1.13615e-16)
(-1.1944e-15 -4.90571e-12 -1.1944e-15)
(-1.19408e-15 -4.9044e-12 -1.19408e-15)
(-1.11312e-16 -4.57186e-13 -1.11312e-16)
(-5.95354e-15 -2.44527e-11 -5.95354e-15)
(-7.29636e-14 -2.99681e-10 -7.29636e-14)
(-7.29531e-14 -2.99637e-10 -7.29531e-14)
(-5.86942e-15 -2.41072e-11 -5.86942e-15)
(-2.91214e-13 -1.19609e-09 -2.91214e-13)
(-4.27998e-12 -1.7579e-08 -4.27998e-12)
(-4.2797e-12 -1.75778e-08 -4.2797e-12)
(-2.88749e-13 -1.18597e-09 -2.88749e-13)
(-1.28221e-11 -5.26638e-08 -1.28221e-11)
(-2.35429e-10 -9.66966e-07 -2.35429e-10)
(-2.35424e-10 -9.66945e-07 -2.35424e-10)
(-1.27765e-11 -5.24764e-08 -1.27765e-11)
(-4.70567e-10 -1.93274e-06 -4.70567e-10)
(-1.15145e-08 -4.72929e-05 -1.15145e-08)
(-1.15144e-08 -4.72927e-05 -1.15144e-08)
(-4.70533e-10 -1.9326e-06 -4.70533e-10)
(-1.15187e-08 -4.73104e-05 -1.15187e-08)
(-4.22524e-07 -0.00173541 -4.22524e-07)
(-4.22524e-07 -0.00173541 -4.22524e-07)
(-1.15187e-08 -4.73103e-05 -1.15187e-08)
(-4.70244e-10 -1.93141e-06 -4.70244e-10)
(-1.15102e-08 -4.72753e-05 -1.15102e-08)
(-1.15102e-08 -4.72754e-05 -1.15102e-08)
(-4.70288e-10 -1.93159e-06 -4.70288e-10)
(-1.06163e-11 -4.36038e-08 -1.06163e-11)
(-2.34148e-10 -9.61706e-07 -2.34148e-10)
(-2.33127e-10 -9.57512e-07 -2.33127e-10)
(-9.52331e-12 -3.91147e-08 -9.52331e-12)
(-1.43137e-13 -5.87899e-10 -1.43137e-13)
(-3.13528e-12 -1.28774e-08 -3.13528e-12)
(-3.16181e-12 -1.29864e-08 -3.16181e-12)
(-1.72212e-13 -7.07321e-10 -1.72212e-13)
(-1.92976e-15 -7.92604e-12 -1.92976e-15)
(-4.1981e-14 -1.72427e-10 -4.1981e-14)
(-4.28744e-14 -1.76096e-10 -4.28744e-14)
(-2.9193e-15 -1.19903e-11 -2.9193e-15)
(-2.60194e-17 -1.06869e-13 -2.60194e-17)
(-5.62142e-16 -2.30886e-12 -5.62142e-16)
(-5.81307e-16 -2.38758e-12 -5.81307e-16)
(-4.75068e-17 -1.95123e-13 -4.75068e-17)
(-3.50858e-19 -1.44107e-15 -3.50858e-19)
(-7.52761e-18 -3.09178e-14 -7.52761e-18)
(-7.88063e-18 -3.23678e-14 -7.88063e-18)
(-7.5161e-19 -3.08705e-15 -7.5161e-19)
(-4.73158e-21 -1.94338e-17 -4.73158e-21)
(-1.00806e-19 -4.14036e-16 -1.00806e-19)
(-1.06823e-19 -4.3875e-16 -1.06823e-19)
(-1.16484e-20 -4.78431e-17 -1.16484e-20)
(-6.38146e-23 -2.62103e-19 -6.38146e-23)
(-1.35e-21 -5.54478e-18 -1.35e-21)
(-1.44784e-21 -5.94666e-18 -1.44784e-21)
(-1.77704e-22 -7.29875e-19 -1.77704e-22)
(-8.60743e-25 -3.53529e-21 -8.60743e-25)
(-1.80799e-23 -7.42588e-20 -1.80799e-23)
(-1.96214e-23 -8.05901e-20 -1.96214e-23)
(-2.67747e-24 -1.09971e-20 -2.67747e-24)
(-1.1611e-26 -4.76894e-23 -1.1611e-26)
(-2.42147e-25 -9.9456e-22 -2.42147e-25)
(-2.65885e-25 -1.09206e-21 -2.65885e-25)
(-3.99379e-26 -1.64035e-22 -3.99379e-26)
(-1.60381e-28 -6.58725e-25 -1.60381e-28)
(-3.30146e-27 -1.35599e-23 -3.30146e-27)
(-3.66682e-27 -1.50606e-23 -3.66682e-27)
(-6.02022e-28 -2.47266e-24 -6.02022e-28)
(-4.6237e-21 -1.89907e-17 -4.6237e-21)
(-3.77739e-20 -1.55147e-16 -3.77739e-20)
(-3.77239e-20 -1.54942e-16 -3.77239e-20)
(-4.44091e-21 -1.824e-17 -4.44091e-21)
(-2.9657e-19 -1.21809e-15 -2.9657e-19)
(-2.72749e-18 -1.12025e-14 -2.72749e-18)
(-2.72511e-18 -1.11927e-14 -2.72511e-18)
(-2.87298e-19 -1.18e-15 -2.87298e-19)
(-1.90136e-17 -7.80937e-14 -1.90136e-17)
(-1.99699e-16 -8.20217e-13 -1.99699e-16)
(-1.99592e-16 -8.19776e-13 -1.99592e-16)
(-1.85662e-17 -7.62562e-14 -1.85662e-17)
(-1.1944e-15 -4.90571e-12 -1.1944e-15)
(-1.46266e-14 -6.00751e-11 -1.46266e-14)
(-1.46222e-14 -6.00572e-11 -1.46222e-14)
(-1.17491e-15 -4.82566e-12 -1.17491e-15)
(-7.29636e-14 -2.99681e-10 -7.29636e-14)
(-1.07168e-12 -4.40165e-09 -1.07168e-12)
(-1.07152e-12 -4.40103e-09 -1.07152e-12)
(-7.22497e-14 -2.96748e-10 -7.22497e-14)
(-4.27998e-12 -1.7579e-08 -4.27998e-12)
(-7.85489e-11 -3.2262e-07 -7.85489e-11)
(-7.85449e-11 -3.22604e-07 -7.85449e-11)
(-4.26189e-12 -1.75047e-08 -4.26189e-12)
(-2.35429e-10 -9.66966e-07 -2.35429e-10)
(-5.75937e-09 -2.36552e-05 -5.75937e-09)
(-5.75932e-09 -2.3655e-05 -5.75932e-09)
(-2.35356e-10 -9.66667e-07 -2.35356e-10)
(-1.15145e-08 -4.72929e-05 -1.15145e-08)
(-4.22445e-07 -0.00173509 -4.22445e-07)
(-4.22445e-07 -0.00173509 -4.22445e-07)
(-1.15145e-08 -4.72929e-05 -1.15145e-08)
(-4.22524e-07 -0.00173541 -4.22524e-07)
(-3.0996e-05 -0.127309 -3.0996e-05)
(-3.0996e-05 -0.127309 -3.0996e-05)
(-4.22524e-07 -0.00173541 -4.22524e-07)
(-1.15102e-08 -4.72753e-05 -1.15102e-08)
(-4.22367e-07 -0.00173477 -4.22367e-07)
(-4.22367e-07 -0.00173477 -4.22367e-07)
(-1.15102e-08 -4.72755e-05 -1.15102e-08)
(-2.34148e-10 -9.61706e-07 -2.34148e-10)
(-5.75899e-09 -2.36537e-05 -5.75899e-09)
(-5.75715e-09 -2.36461e-05 -5.75715e-09)
(-2.322e-10 -9.53705e-07 -2.322e-10)
(-3.13528e-12 -1.28774e-08 -3.13528e-12)
(-7.6458e-11 -3.14033e-07 -7.6458e-11)
(-7.74069e-11 -3.1793e-07 -7.74069e-11)
(-4.1629e-12 -1.70981e-08 -4.1629e-12)
(-4.1981e-14 -1.72427e-10 -4.1981e-14)
(-1.01508e-12 -4.16921e-09 -1.01508e-12)
(-1.0406e-12 -4.274e-09 -1.0406e-12)
(-6.99646e-14 -2.87363e-10 -6.99646e-14)
(-5.62142e-16 -2.30886e-12 -5.62142e-16)
(-1.34767e-14 -5.53523e-11 -1.34767e-14)
(-1.39868e-14 -5.74474e-11 -1.39868e-14)
(-1.12878e-15 -4.63621e-12 -1.12878e-15)
(-7.52761e-18 -3.09178e-14 -7.52761e-18)
(-1.78925e-16 -7.34891e-13 -1.78925e-16)
(-1.8797e-16 -7.72043e-13 -1.8797e-16)
(-1.77047e-17 -7.27177e-14 -1.77047e-17)
(-1.00806e-19 -4.14036e-16 -1.00806e-19)
(-2.37554e-18 -9.75694e-15 -2.37554e-18)
(-2.52579e-18 -1.03741e-14 -2.52579e-18)
(-2.72013e-19 -1.11723e-15 -2.72013e-19)
(-1.35e-21 -5.54478e-18 -1.35e-21)
(-3.15397e-20 -1.29542e-16 -3.15397e-20)
(-3.39347e-20 -1.39379e-16 -3.39347e-20)
(-4.1137e-21 -1.6896e-17 -4.1137e-21)
(-1.80799e-23 -7.42588e-20 -1.80799e-23)
(-4.18752e-22 -1.71992e-18 -4.18752e-22)
(-4.55859e-22 -1.87233e-18 -4.55859e-22)
(-6.14413e-23 -2.52355e-19 -6.14413e-23)
(-2.42147e-25 -9.9456e-22 -2.42147e-25)
(-5.55983e-24 -2.28357e-20 -5.55983e-24)
(-6.12294e-24 -2.51485e-20 -6.12294e-24)
(-9.08461e-25 -3.73128e-21 -9.08461e-25)
(-3.30146e-27 -1.35599e-23 -3.30146e-27)
(-7.48295e-26 -3.07344e-22 -7.48295e-26)
(-8.33536e-26 -3.42355e-22 -8.33536e-26)
(-1.35177e-26 -5.55206e-23 -1.35177e-26)
(-4.61911e-21 -1.89719e-17 -4.61911e-21)
(-3.77239e-20 -1.54942e-16 -3.77239e-20)
(-3.74623e-20 -1.53867e-16 -3.74623e-20)
(-4.20178e-21 -1.72578e-17 -4.20178e-21)
(-2.96367e-19 -1.21726e-15 -2.96367e-19)
(-2.72511e-18 -1.11927e-14 -2.72511e-18)
(-2.71151e-18 -1.11369e-14 -2.71151e-18)
(-2.74753e-19 -1.12848e-15 -2.74753e-19)
(-1.90051e-17 -7.80589e-14 -1.90051e-17)
(-1.99592e-16 -8.19776e-13 -1.99592e-16)
(-1.98921e-16 -8.17021e-13 -1.98921e-16)
(-1.79419e-17 -7.36921e-14 -1.79419e-17)
(-1.19408e-15 -4.9044e-12 -1.19408e-15)
(-1.46222e-14 -6.00572e-11 -1.46222e-14)
(-1.45924e-14 -5.99349e-11 -1.45924e-14)
(-1.147e-15 -4.71102e-12 -1.147e-15)
(-7.29531e-14 -2.99637e-10 -7.29531e-14)
(-1.07152e-12 -4.40103e-09 -1.07152e-12)
(-1.07042e-12 -4.3965e-09 -1.07042e-12)
(-7.12144e-14 -2.92496e-10 -7.12144e-14)
(-4.2797e-12 -1.75778e-08 -4.2797e-12)
(-7.85449e-11 -3.22604e-07 -7.85449e-11)
(-7.85178e-11 -3.22493e-07 -7.85178e-11)
(-4.23675e-12 -1.74014e-08 -4.23675e-12)
(-2.35424e-10 -9.66945e-07 -2.35424e-10)
(-5.75932e-09 -2.3655e-05 -5.75932e-09)
(-5.75932e-09 -2.3655e-05 -5.75932e-09)
(-2.35408e-10 -9.6688e-07 -2.35408e-10)
(-1.15144e-08 -4.72927e-05 -1.15144e-08)
(-4.22445e-07 -0.00173509 -4.22445e-07)
(-4.22445e-07 -0.00173509 -4.22445e-07)
(-1.15145e-08 -4.72929e-05 -1.15145e-08)
(-4.22524e-07 -0.00173541 -4.22524e-07)
(-3.0996e-05 -0.127309 -3.0996e-05)
(-3.0996e-05 -0.127309 -3.0996e-05)
(-4.22524e-07 -0.00173541 -4.22524e-07)
(-1.15102e-08 -4.72754e-05 -1.15102e-08)
(-4.22367e-07 -0.00173477 -4.22367e-07)
(-4.22367e-07 -0.00173477 -4.22367e-07)
(-1.15102e-08 -4.72754e-05 -1.15102e-08)
(-2.33127e-10 -9.57512e-07 -2.33127e-10)
(-5.75715e-09 -2.36461e-05 -5.75715e-09)
(-5.75905e-09 -2.36539e-05 -5.75905e-09)
(-2.35208e-10 -9.66062e-07 -2.35208e-10)
(-3.16181e-12 -1.29864e-08 -3.16181e-12)
(-7.74069e-11 -3.1793e-07 -7.74069e-11)
(-7.84299e-11 -3.22132e-07 -7.84299e-11)
(-4.27058e-12 -1.75404e-08 -4.27058e-12)
(-4.28744e-14 -1.76096e-10 -4.28744e-14)
(-1.0406e-12 -4.274e-09 -1.0406e-12)
(-1.06775e-12 -4.3855e-09 -1.06775e-12)
(-7.26761e-14 -2.985e-10 -7.26761e-14)
(-5.81307e-16 -2.38758e-12 -5.81307e-16)
(-1.39868e-14 -5.74474e-11 -1.39868e-14)
(-1.45316e-14 -5.9685e-11 -1.45316e-14)
(-1.18706e-15 -4.87557e-12 -1.18706e-15)
(-7.88063e-18 -3.23678e-14 -7.88063e-18)
(-1.8797e-16 -7.72043e-13 -1.8797e-16)
(-1.97707e-16 -8.12034e-13 -1.97707e-16)
(-1.88464e-17 -7.74071e-14 -1.88464e-17)
(-1.06823e-19 -4.3875e-16 -1.06823e-19)
(-2.52579e-18 -1.03741e-14 -2.52579e-18)
(-2.68904e-18 -1.10446e-14 -2.68904e-18)
(-2.93049e-19 -1.20363e-15 -2.93049e-19)
(-1.44784e-21 -5.94666e-18 -1.44784e-21)
(-3.39347e-20 -1.39379e-16 -3.39347e-20)
(-3.65631e-20 -1.50174e-16 -3.65631e-20)
(-4.48462e-21 -1.84195e-17 -4.48462e-21)
(-1.96214e-23 -8.05901e-20 -1.96214e-23)
(-4.55859e-22 -1.87233e-18 -4.55859e-22)
(-4.97006e-22 -2.04133e-18 -4.97006e-22)
(-6.77692e-23 -2.78345e-19 -6.77692e-23)
(-2.65885e-25 -1.09206e-21 -2.65885e-25)
(-6.12294e-24 -2.51485e-20 -6.12294e-24)
(-6.75396e-24 -2.77403e-20 -6.75396e-24)
(-1.01366e-24 -4.16337e-21 -1.01366e-24)
(-3.66682e-27 -1.50606e-23 -3.66682e-27)
(-8.33536e-26 -3.42355e-22 -8.33536e-26)
(-9.3008e-26 -3.82008e-22 -9.3008e-26)
(-1.52559e-26 -6.266e-23 -1.52559e-26)
(-6.01991e-22 -2.47253e-18 -6.01991e-22)
(-4.44091e-21 -1.824e-17 -4.44091e-21)
(-4.20178e-21 -1.72578e-17 -4.20178e-21)
(-3.17293e-22 -1.3032e-18 -3.17293e-22)
(-3.49917e-20 -1.4372e-16 -3.49917e-20)
(-2.87298e-19 -1.18e-15 -2.87298e-19)
(-2.74753e-19 -1.12848e-15 -2.74753e-19)
(-2.02271e-20 -8.3078e-17 -2.02271e-20)
(-2.00996e-18 -8.25543e-15 -2.00996e-18)
(-1.85662e-17 -7.62562e-14 -1.85662e-17)
(-1.79419e-17 -7.36921e-14 -1.79419e-17)
(-1.28299e-18 -5.26958e-15 -1.28299e-18)
(-1.11312e-16 -4.57186e-13 -1.11312e-16)
(-1.17491e-15 -4.82566e-12 -1.17491e-15)
(-1.147e-15 -4.71102e-12 -1.147e-15)
(-7.91126e-17 -3.24936e-13 -7.91126e-17)
(-5.86942e-15 -2.41072e-11 -5.86942e-15)
(-7.22497e-14 -2.96748e-10 -7.22497e-14)
(-7.12144e-14 -2.92496e-10 -7.12144e-14)
(-4.68236e-15 -1.92317e-11 -4.68236e-15)
(-2.88749e-13 -1.18597e-09 -2.88749e-13)
(-4.26189e-12 -1.75047e-08 -4.26189e-12)
(-4.23675e-12 -1.74014e-08 -4.23675e-12)
(-2.59713e-13 -1.06671e-09 -2.59713e-13)
(-1.27765e-11 -5.24764e-08 -1.27765e-11)
(-2.35356e-10 -9.66667e-07 -2.35356e-10)
(-2.35408e-10 -9.6688e-07 -2.35408e-10)
(-1.27919e-11 -5.25396e-08 -1.27919e-11)
(-4.70533e-10 -1.9326e-06 -4.70533e-10)
(-1.15145e-08 -4.72929e-05 -1.15145e-08)
(-1.15145e-08 -4.72929e-05 -1.15145e-08)
(-4.70592e-10 -1.93284e-06 -4.70592e-10)
(-1.15187e-08 -4.73103e-05 -1.15187e-08)
(-4.22524e-07 -0.00173541 -4.22524e-07)
(-4.22524e-07 -0.00173541 -4.22524e-07)
(-1.15187e-08 -4.73105e-05 -1.15187e-08)
(-4.70288e-10 -1.93159e-06 -4.70288e-10)
(-1.15102e-08 -4.72755e-05 -1.15102e-08)
(-1.15102e-08 -4.72754e-05 -1.15102e-08)
(-4.70276e-10 -1.93154e-06 -4.70276e-10)
(-9.52331e-12 -3.91147e-08 -9.52331e-12)
(-2.322e-10 -9.53705e-07 -2.322e-10)
(-2.35208e-10 -9.66062e-07 -2.35208e-10)
(-1.28082e-11 -5.26065e-08 -1.28082e-11)
(-1.72212e-13 -7.07321e-10 -1.72212e-13)
(-4.1629e-12 -1.70981e-08 -4.1629e-12)
(-4.27058e-12 -1.75404e-08 -4.27058e-12)
(-2.90741e-13 -1.19415e-09 -2.90741e-13)
(-2.9193e-15 -1.19903e-11 -2.9193e-15)
(-6.99646e-14 -2.87363e-10 -6.99646e-14)
(-7.26761e-14 -2.985e-10 -7.26761e-14)
(-5.93884e-15 -2.43923e-11 -5.93884e-15)
(-4.75068e-17 -1.95123e-13 -4.75068e-17)
(-1.12878e-15 -4.63621e-12 -1.12878e-15)
(-1.18706e-15 -4.87557e-12 -1.18706e-15)
(-1.13208e-16 -4.64975e-13 -1.13208e-16)
(-7.5161e-19 -3.08705e-15 -7.5161e-19)
(-1.77047e-17 -7.27177e-14 -1.77047e-17)
(-1.88464e-17 -7.74071e-14 -1.88464e-17)
(-2.05501e-18 -8.44046e-15 -2.05501e-18)
(-1.16484e-20 -4.78431e-17 -1.16484e-20)
(-2.72013e-19 -1.11723e-15 -2.72013e-19)
(-2.93049e-19 -1.20363e-15 -2.93049e-19)
(-3.59673e-20 -1.47727e-16 -3.59673e-20)
(-1.77704e-22 -7.29875e-19 -1.77704e-22)
(-4.1137e-21 -1.6896e-17 -4.1137e-21)
(-4.48462e-21 -1.84195e-17 -4.48462e-21)
(-6.11958e-22 -2.51347e-18 -6.11958e-22)
(-2.67747e-24 -1.09971e-20 -2.67747e-24)
(-6.14413e-23 -2.52355e-19 -6.14413e-23)
(-6.77692e-23 -2.78345e-19 -6.77692e-23)
(-1.01796e-23 -4.18103e-20 -1.01796e-23)
(-3.99379e-26 -1.64035e-22 -3.99379e-26)
(-9.08461e-25 -3.73128e-21 -9.08461e-25)
(-1.01366e-24 -4.16337e-21 -1.01366e-24)
(-1.66238e-25 -6.82781e-22 -1.66238e-25)
(-6.02022e-28 -2.47266e-24 -6.02022e-28)
(-1.35177e-26 -5.55206e-23 -1.35177e-26)
(-1.52559e-26 -6.266e-23 -1.52559e-26)
(-2.71587e-27 -1.11548e-23 -2.71587e-27)
)
;

boundaryField
{
    inlet
    {
        type            zeroGradient;
    }
    outlet
    {
        type            zeroGradient;
    }
    walls
    {
        type            zeroGradient;
    }
}


// ************************************************************************* //
