/*--------------------------------*- C++ -*----------------------------------*\
| =========                 |                                                 |
| \\      /  F ield         | OpenFOAM: The Open Source CFD Toolbox           |
|  \\    /   O peration     | Version:  5.x                                   |
|   \\  /    A nd           | Web:      www.OpenFOAM.org                      |
|    \\/     M anipulation  |                                                 |
\*---------------------------------------------------------------------------*/
FoamFile
{
    version     2.0;
    format      ascii;
    class       volScalarField;
    location    "0.13";
    object      p;
}
// * * * * * * * * * * * * * * * * * * * * * * * * * * * * * * * * * * * * * //

dimensions      [0 2 -2 0 0 0 0];

internalField   nonuniform List<scalar> 
160
(
-8.8193e-07
-1.04639e-06
-1.04945e-06
-8.75863e-07
-9.49864e-07
-1.03229e-06
-1.02926e-06
-9.73129e-07
-1.08946e-06
-1.13823e-06
-1.1528e-06
-1.08994e-06
-1.10506e-06
-1.13091e-06
-1.13441e-06
-1.12773e-06
-1.15842e-06
-1.17898e-06
-1.18717e-06
-1.17246e-06
-1.16731e-06
-1.18083e-06
-1.18452e-06
-1.18643e-06
-1.18857e-06
-1.19926e-06
-1.20217e-06
-1.2046e-06
-1.19405e-06
-1.20259e-06
-1.20465e-06
-1.20901e-06
-1.20175e-06
-1.2088e-06
-1.21066e-06
-1.21508e-06
-1.20497e-06
-1.21066e-06
-1.21214e-06
-1.21638e-06
-1.04639e-06
-1.80358e-06
-1.50853e-06
-1.56806e-06
-1.03229e-06
-1.56442e-06
-1.39434e-06
-1.47048e-06
-1.13823e-06
-1.44701e-06
-1.37459e-06
-1.41782e-06
-1.13091e-06
-1.3198e-06
-1.28338e-06
-1.33852e-06
-1.17898e-06
-1.29966e-06
-1.27479e-06
-1.31326e-06
-1.18083e-06
-1.25021e-06
-1.24262e-06
-1.27402e-06
-1.19926e-06
-1.24268e-06
-1.23931e-06
-1.26116e-06
-1.20259e-06
-1.229e-06
-1.22902e-06
-1.24502e-06
-1.2088e-06
-1.22657e-06
-1.22792e-06
-1.23969e-06
-1.21066e-06
-1.22204e-06
-1.22386e-06
-1.2322e-06
-1.04945e-06
-1.50853e-06
-1.44108e-06
-1.4621e-06
-1.02926e-06
-1.39434e-06
-1.30434e-06
-1.36972e-06
-1.1528e-06
-1.37459e-06
-1.34903e-06
-1.3573e-06
-1.13441e-06
-1.28338e-06
-1.26031e-06
-1.30939e-06
-1.18717e-06
-1.27479e-06
-1.26561e-06
-1.29139e-06
-1.18452e-06
-1.24262e-06
-1.23772e-06
-1.26685e-06
-1.20217e-06
-1.23931e-06
-1.23761e-06
-1.25728e-06
-1.20465e-06
-1.22902e-06
-1.22912e-06
-1.24552e-06
-1.21066e-06
-1.22792e-06
-1.22924e-06
-1.24145e-06
-1.21214e-06
-1.22386e-06
-1.22571e-06
-1.23473e-06
-8.75863e-07
-1.56806e-06
-1.4621e-06
-1.57464e-06
-9.73129e-07
-1.47048e-06
-1.36972e-06
-1.5316e-06
-1.08994e-06
-1.41782e-06
-1.3573e-06
-1.47203e-06
-1.12773e-06
-1.33852e-06
-1.30939e-06
-1.40431e-06
-1.17246e-06
-1.31326e-06
-1.29139e-06
-1.36639e-06
-1.18643e-06
-1.27402e-06
-1.26685e-06
-1.31968e-06
-1.2046e-06
-1.26116e-06
-1.25728e-06
-1.29574e-06
-1.20901e-06
-1.24502e-06
-1.24552e-06
-1.27107e-06
-1.21508e-06
-1.23969e-06
-1.24145e-06
-1.2606e-06
-1.21638e-06
-1.2322e-06
-1.23473e-06
-1.24719e-06
)
;

boundaryField
{
    inlet
    {
        type            zeroGradient;
    }
    outlet
    {
        type            totalPressure;
        rho             rho;
        psi             none;
        gamma           1;
        p0              nonuniform 0();
        value           nonuniform 0();
    }
    walls
    {
        type            zeroGradient;
    }
    procBoundary1to0
    {
        type            processor;
        value           nonuniform List<scalar> 
16
(
-5.89596e-07
-7.52395e-07
-7.02329e-07
-5.6065e-07
-7.52395e-07
-2.01155e-06
-1.45652e-06
-1.51423e-06
-7.02329e-07
-1.45652e-06
-1.22005e-06
-1.29317e-06
-5.6065e-07
-1.51423e-06
-1.29317e-06
-1.50844e-06
)
;
    }
}


// ************************************************************************* //
