/*--------------------------------*- C++ -*----------------------------------*\
| =========                 |                                                 |
| \\      /  F ield         | OpenFOAM: The Open Source CFD Toolbox           |
|  \\    /   O peration     | Version:  5.x                                   |
|   \\  /    A nd           | Web:      www.OpenFOAM.org                      |
|    \\/     M anipulation  |                                                 |
\*---------------------------------------------------------------------------*/
FoamFile
{
    version     2.0;
    format      ascii;
    class       surfaceScalarField;
    location    "0.13";
    object      phi;
}
// * * * * * * * * * * * * * * * * * * * * * * * * * * * * * * * * * * * * * //

dimensions      [0 3 -1 0 0 0 0];

internalField   nonuniform List<scalar> 
384
(
5.31414e-11
2.08497e-11
5.31414e-11
3.84546e-12
-3.43767e-11
3.58024e-10
-4.94067e-11
-2.14061e-11
2.97912e-10
1.93241e-11
1.2128e-10
2.1094e-11
1.6845e-11
2.1094e-11
4.29379e-12
-1.11079e-11
1.54887e-10
-1.49629e-11
-1.00084e-11
1.2319e-10
1.45871e-11
7.29981e-11
1.52223e-11
1.04681e-11
1.52223e-11
3.38015e-12
-2.64488e-13
8.86748e-11
-1.34689e-11
-1.63263e-12
7.50854e-11
1.0463e-11
5.02491e-11
6.45801e-12
7.57765e-12
6.45801e-12
2.6013e-12
1.64734e-12
3.9867e-11
-3.08611e-12
-2.08238e-13
3.49318e-11
7.37667e-12
2.94572e-11
5.0236e-12
4.95152e-12
5.0236e-12
2.10883e-12
2.5596e-12
2.2448e-11
-2.69626e-12
1.54828e-12
2.03122e-11
4.82055e-12
1.91712e-11
2.60361e-12
3.4437e-12
2.60361e-12
1.62449e-12
1.98274e-12
1.13848e-11
-7.76549e-14
1.23702e-12
1.10496e-11
3.03491e-12
1.15012e-11
2.02699e-12
2.27585e-12
2.02699e-12
1.3321e-12
1.54599e-12
6.464e-12
6.60196e-14
1.14472e-12
6.51691e-12
1.80905e-12
7.19443e-12
1.31048e-12
1.44649e-12
1.31048e-12
1.06466e-12
9.72989e-13
3.71359e-12
5.45108e-13
7.05818e-13
3.94624e-12
9.93879e-13
4.42319e-12
1.0376e-12
7.87727e-13
1.0376e-12
8.84005e-13
5.37774e-13
2.30984e-12
5.22792e-13
3.88517e-13
2.52203e-12
4.53518e-13
2.86382e-12
6.81469e-13
6.81469e-13
6.64674e-13
1.31877e-12
5.09689e-13
1.4769e-12
1.64537e-12
3.58024e-10
-3.43767e-11
3.84546e-12
-1.81455e-11
-5.64621e-10
-1.81455e-11
-2.62428e-10
-3.79208e-10
2.70403e-11
-7.81465e-11
2.13508e-11
1.54887e-10
-1.11079e-11
4.29379e-12
6.89722e-12
-2.6864e-10
6.89722e-12
-7.67379e-11
-1.91286e-10
1.89029e-11
-5.0654e-11
2.20916e-11
8.86748e-11
-2.64488e-13
3.38015e-12
1.05093e-11
-1.12309e-10
1.05093e-11
-4.10391e-11
-8.0502e-11
1.58502e-11
-3.06651e-11
1.89126e-11
3.9867e-11
1.64734e-12
2.6013e-12
1.01231e-11
-5.28215e-11
1.01231e-11
-7.79621e-12
-3.96424e-11
1.19915e-11
-1.82853e-11
1.5038e-11
2.2448e-11
2.5596e-12
2.10883e-12
7.10957e-12
-2.21445e-11
7.10957e-12
-2.89623e-12
-1.76528e-11
8.32841e-12
-1.02779e-11
1.09115e-11
1.13848e-11
1.98274e-12
1.62449e-12
5.35026e-12
-1.00755e-11
5.35026e-12
1.21289e-12
-8.61659e-12
6.15069e-12
-6.04554e-12
7.7173e-12
6.464e-12
1.54599e-12
1.3321e-12
3.56439e-12
-4.27625e-12
3.56439e-12
1.36505e-12
-4.02093e-12
4.12059e-12
-3.4571e-12
5.22999e-12
3.71359e-12
9.72989e-13
1.06466e-12
2.53127e-12
-1.9116e-12
2.53127e-12
1.52232e-12
-2.00915e-12
2.94342e-12
-1.99864e-12
3.54963e-12
2.30984e-12
5.37774e-13
8.84005e-13
1.7702e-12
-8.3233e-13
1.7702e-12
1.19546e-12
-9.75963e-13
2.06357e-12
-1.11579e-12
2.46576e-12
1.31877e-12
6.64674e-13
1.15211e-12
1.15211e-12
9.008e-13
1.33378e-12
1.51641e-12
2.97912e-10
-2.14061e-11
-4.94067e-11
2.70403e-11
-3.79208e-10
-2.62428e-10
-2.30754e-10
-3.51716e-10
-2.30754e-10
-5.33768e-11
-3.80613e-11
1.2319e-10
-1.00084e-11
-1.49629e-11
1.89029e-11
-1.91286e-10
-7.67379e-11
-6.37132e-11
-1.86484e-10
-6.37132e-11
-3.43519e-11
-3.06962e-12
7.50854e-11
-1.63263e-12
-1.34689e-11
1.58502e-11
-8.0502e-11
-4.10391e-11
-3.92709e-11
-7.62418e-11
-3.92709e-11
-2.07839e-11
2.61665e-12
3.49318e-11
-2.08238e-13
-3.08611e-12
1.19915e-11
-3.96424e-11
-7.79621e-12
-6.45972e-12
-3.93393e-11
-6.45972e-12
-1.33566e-11
8.37801e-12
2.03122e-11
1.54828e-12
-2.69626e-12
8.32841e-12
-1.76528e-11
-2.89623e-12
-2.5109e-12
-1.76607e-11
-2.5109e-12
-8.5473e-12
6.88441e-12
1.10496e-11
1.23702e-12
-7.76549e-14
6.15069e-12
-8.61659e-12
1.21289e-12
1.87253e-12
-9.10434e-12
1.87253e-12
-5.62433e-12
5.78284e-12
6.51691e-12
1.14472e-12
6.60196e-14
4.12059e-12
-4.02093e-12
1.36505e-12
1.82827e-12
-4.51968e-12
1.82827e-12
-3.65533e-12
4.11379e-12
3.94624e-12
7.05818e-13
5.45108e-13
2.94342e-12
-2.00915e-12
1.52232e-12
1.89367e-12
-2.42018e-12
1.89367e-12
-2.317e-12
2.91573e-12
2.52203e-12
3.88517e-13
5.22792e-13
2.06357e-12
-9.75963e-13
1.19546e-12
1.47332e-12
-1.23968e-12
1.47332e-12
-1.38067e-12
2.08435e-12
1.4769e-12
5.09689e-13
1.33378e-12
9.008e-13
1.06879e-12
1.06879e-12
1.30838e-12
1.2128e-10
1.93241e-11
2.13508e-11
-7.81465e-11
-3.80613e-11
-5.33768e-11
-1.45872e-12
7.29981e-11
1.45871e-11
2.20916e-11
-5.0654e-11
-3.06962e-12
-3.43519e-11
-1.14656e-11
5.02491e-11
1.0463e-11
1.89126e-11
-3.06651e-11
2.61665e-12
-2.07839e-11
-1.52279e-11
2.94572e-11
7.37667e-12
1.5038e-11
-1.82853e-11
8.37801e-12
-1.33566e-11
-1.33776e-11
1.91712e-11
4.82055e-12
1.09115e-11
-1.02779e-11
6.88441e-12
-8.5473e-12
-1.05549e-11
1.15012e-11
3.03491e-12
7.7173e-12
-6.04554e-12
5.78284e-12
-5.62433e-12
-7.65984e-12
7.19443e-12
1.80905e-12
5.22999e-12
-3.4571e-12
4.11379e-12
-3.65533e-12
-5.27141e-12
4.42319e-12
9.93879e-13
3.54963e-12
-1.99864e-12
2.91573e-12
-2.317e-12
-3.45397e-12
2.86382e-12
4.53518e-13
2.46576e-12
-1.11579e-12
2.08435e-12
-1.38067e-12
-2.04376e-12
1.64537e-12
1.51641e-12
1.30838e-12
)
;

boundaryField
{
    inlet
    {
        type            calculated;
        value           nonuniform List<scalar> 
16
(
3.25626e-13
1.63266e-13
9.2867e-14
1.44206e-13
1.63266e-13
-4.99018e-13
-5.81543e-13
-6.44279e-13
9.2867e-14
-5.81543e-13
-7.09689e-13
-7.88233e-13
1.44206e-13
-6.44279e-13
-7.88233e-13
-1.13035e-12
)
;
    }
    outlet
    {
        type            calculated;
        value           nonuniform 0();
    }
    walls
    {
        type            calculated;
        value           nonuniform List<scalar> 
160
(
-4.71378e-11
-1.90916e-11
-1.20339e-11
-5.0128e-12
-3.71053e-12
-1.8497e-12
-1.44307e-12
-8.958e-13
-7.08217e-13
-4.50419e-13
-3.73628e-10
-1.61356e-10
-8.7676e-11
-3.79222e-11
-2.04455e-11
-9.82878e-12
-5.33236e-12
-2.89477e-12
-1.72103e-12
-9.27477e-13
-2.68679e-10
-1.15331e-10
-6.66122e-11
-3.06688e-11
-1.72636e-11
-9.03617e-12
-5.15853e-12
-2.98779e-12
-1.84352e-12
-1.02626e-12
-1.16336e-10
-6.91093e-11
-4.61294e-11
-2.59044e-11
-1.62498e-11
-9.32295e-12
-5.63337e-12
-3.3154e-12
-2.06978e-12
-1.13732e-12
-4.44892e-11
-1.41147e-11
-1.34646e-11
-3.55255e-12
-3.06152e-12
-4.70292e-13
-2.69167e-13
2.52481e-13
2.69108e-13
3.1095e-13
-1.85198e-10
-5.33239e-11
-2.96915e-11
-5.75688e-12
-2.644e-12
7.64511e-13
7.41042e-13
9.3742e-13
7.10672e-13
5.58245e-13
-2.07693e-10
-5.75768e-11
-3.65429e-11
-7.22701e-12
-3.29311e-12
8.84013e-13
9.75467e-13
1.18923e-12
9.18412e-13
6.84387e-13
-2.75734e-11
1.93383e-12
4.4978e-12
7.45287e-12
5.47302e-12
4.33533e-12
2.91957e-12
2.00702e-12
1.37924e-12
8.51673e-13
-4.71378e-11
-1.90916e-11
-1.20339e-11
-5.0128e-12
-3.71053e-12
-1.8497e-12
-1.44307e-12
-8.958e-13
-7.08217e-13
-4.50419e-13
-3.73628e-10
-1.61356e-10
-8.7676e-11
-3.79222e-11
-2.04455e-11
-9.82878e-12
-5.33236e-12
-2.89477e-12
-1.72103e-12
-9.27477e-13
-2.68679e-10
-1.15331e-10
-6.66122e-11
-3.06688e-11
-1.72636e-11
-9.03617e-12
-5.15853e-12
-2.98779e-12
-1.84352e-12
-1.02626e-12
-1.16336e-10
-6.91093e-11
-4.61294e-11
-2.59044e-11
-1.62498e-11
-9.32295e-12
-5.63337e-12
-3.3154e-12
-2.06978e-12
-1.13732e-12
-4.44892e-11
-1.41147e-11
-1.34646e-11
-3.55255e-12
-3.06152e-12
-4.70292e-13
-2.69167e-13
2.52481e-13
2.69108e-13
3.1095e-13
-1.85198e-10
-5.33239e-11
-2.96915e-11
-5.75688e-12
-2.644e-12
7.64511e-13
7.41042e-13
9.3742e-13
7.10672e-13
5.58245e-13
-2.07693e-10
-5.75768e-11
-3.65429e-11
-7.22701e-12
-3.29311e-12
8.84013e-13
9.75467e-13
1.18923e-12
9.18412e-13
6.84387e-13
-2.75734e-11
1.93383e-12
4.4978e-12
7.45287e-12
5.47302e-12
4.33533e-12
2.91957e-12
2.00702e-12
1.37924e-12
8.51673e-13
)
;
    }
    procBoundary1to0
    {
        type            processor;
        value           nonuniform List<scalar> 
16
(
-3.2857e-11
9.92773e-11
4.54256e-11
-2.91856e-11
9.92773e-11
1.31696e-09
8.94362e-10
1.00846e-10
4.54256e-11
8.94362e-10
8.67304e-10
8.97281e-11
-2.91856e-11
1.00846e-10
8.97281e-11
-1.9517e-11
)
;
    }
}


// ************************************************************************* //
