/*--------------------------------*- C++ -*----------------------------------*\
| =========                 |                                                 |
| \\      /  F ield         | OpenFOAM: The Open Source CFD Toolbox           |
|  \\    /   O peration     | Version:  5.x                                   |
|   \\  /    A nd           | Web:      www.OpenFOAM.org                      |
|    \\/     M anipulation  |                                                 |
\*---------------------------------------------------------------------------*/
FoamFile
{
    version     2.0;
    format      ascii;
    class       volVectorField;
    location    "0.13";
    object      U;
}
// * * * * * * * * * * * * * * * * * * * * * * * * * * * * * * * * * * * * * //

dimensions      [0 1 -1 0 0 0 0];

internalField   nonuniform List<vector> 
160
(
(7.57452e-06 4.2469e-06 7.57452e-06)
(8.41912e-06 -7.35749e-06 5.99303e-05)
(-7.33801e-06 -3.03823e-06 4.30795e-05)
(-7.15254e-06 3.65034e-06 1.87504e-05)
(3.07094e-06 2.38656e-06 3.07094e-06)
(3.55801e-06 -4.28793e-06 2.59222e-05)
(-2.23168e-06 -3.92422e-06 1.85252e-05)
(-2.26943e-06 2.18429e-06 1.11557e-05)
(1.93505e-06 2.39855e-06 1.93505e-06)
(2.67814e-06 1.91042e-07 1.40892e-05)
(-1.70624e-06 2.17573e-07 1.07018e-05)
(-2.16674e-06 1.98287e-06 7.44545e-06)
(8.07153e-07 1.09618e-06 8.07153e-07)
(1.17665e-06 -2.54517e-07 6.10491e-06)
(-3.47238e-07 -6.19468e-07 4.93646e-06)
(-5.69728e-07 1.16686e-06 4.18633e-06)
(5.97745e-07 1.07905e-06 5.97745e-07)
(8.98532e-07 6.60513e-07 3.29515e-06)
(-2.66092e-07 5.12764e-07 2.77951e-06)
(-4.9275e-07 9.62698e-07 2.62777e-06)
(2.9862e-07 5.30875e-07 2.9862e-07)
(4.75267e-07 1.98958e-07 1.58633e-06)
(5.42611e-08 4.77222e-08 1.45728e-06)
(-7.48692e-08 4.97033e-07 1.50897e-06)
(2.33004e-07 4.68887e-07 2.33004e-07)
(3.61716e-07 3.59637e-07 8.61764e-07)
(6.62369e-08 2.91339e-07 8.32712e-07)
(-4.25867e-08 3.81092e-07 9.12509e-07)
(1.45014e-07 2.41941e-07 1.45014e-07)
(2.37218e-07 1.45945e-07 4.68386e-07)
(1.18721e-07 9.52101e-08 4.82866e-07)
(4.12576e-08 1.73004e-07 5.37574e-07)
(1.14709e-07 1.83329e-07 1.14709e-07)
(1.86085e-07 1.38545e-07 2.7888e-07)
(1.08743e-07 1.08799e-07 2.98377e-07)
(4.39291e-08 1.14587e-07 3.36025e-07)
(7.31896e-08 5.27357e-08 7.31896e-08)
(1.21321e-07 2.64894e-08 1.50642e-07)
(9.5453e-08 1.51507e-08 1.66517e-07)
(5.05873e-08 2.33291e-08 1.85091e-07)
(5.99303e-05 -7.35749e-06 8.41912e-06)
(4.491e-05 -0.000112315 4.491e-05)
(-4.93475e-05 -7.35257e-05 4.5064e-05)
(-2.96199e-05 -1.36368e-05 1.61038e-05)
(2.59222e-05 -4.28793e-06 3.55801e-06)
(1.93978e-05 -6.01983e-05 1.93978e-05)
(-1.65578e-05 -4.47941e-05 1.80469e-05)
(-8.51677e-06 -1.05207e-05 9.69571e-06)
(1.40892e-05 1.91042e-07 2.67814e-06)
(1.17863e-05 -2.18872e-05 1.17863e-05)
(-7.86076e-06 -1.51921e-05 1.14717e-05)
(-4.74209e-06 -5.30876e-06 6.90691e-06)
(6.10491e-06 -2.54517e-07 1.17665e-06)
(5.49552e-06 -1.23044e-05 5.49552e-06)
(-1.82845e-06 -9.65293e-06 5.34222e-06)
(-9.10194e-07 -3.92574e-06 4.21855e-06)
(3.29515e-06 6.60513e-07 8.98532e-07)
(3.19433e-06 -4.21628e-06 3.19433e-06)
(-6.27595e-07 -3.29056e-06 3.18539e-06)
(-4.15432e-07 -1.78137e-06 2.82892e-06)
(1.58633e-06 1.98958e-07 4.75267e-07)
(1.70609e-06 -2.45011e-06 1.70609e-06)
(1.88987e-07 -2.10812e-06 1.77529e-06)
(1.28532e-07 -1.28597e-06 1.76886e-06)
(8.61764e-07 3.59637e-07 3.61716e-07)
(1.00344e-06 -8.14741e-07 1.00344e-06)
(2.54099e-07 -7.45174e-07 1.07014e-06)
(1.22887e-07 -6.09598e-07 1.13601e-06)
(4.68386e-07 1.45945e-07 2.37218e-07)
(6.04307e-07 -4.67177e-07 6.04307e-07)
(2.79556e-07 -4.76323e-07 6.67569e-07)
(1.53152e-07 -4.20265e-07 7.23535e-07)
(2.7888e-07 1.38545e-07 1.86085e-07)
(3.87967e-07 -1.64011e-07 3.87967e-07)
(2.26644e-07 -1.96191e-07 4.35102e-07)
(1.16035e-07 -2.21197e-07 4.79883e-07)
(1.50642e-07 2.64894e-08 1.21321e-07)
(2.26358e-07 -8.07402e-08 2.26358e-07)
(1.66441e-07 -9.38499e-08 2.57565e-07)
(9.09652e-08 -1.04564e-07 2.79464e-07)
(4.30795e-05 -3.03823e-06 -7.33801e-06)
(4.5064e-05 -7.35257e-05 -4.93475e-05)
(-3.56077e-05 -6.37175e-05 -3.56077e-05)
(-3.32267e-05 -9.12408e-06 -8.18316e-06)
(1.85252e-05 -3.92422e-06 -2.23168e-06)
(1.80469e-05 -4.47941e-05 -1.65578e-05)
(-1.11723e-05 -4.46961e-05 -1.11723e-05)
(-9.19936e-06 -8.02054e-06 -1.62239e-06)
(1.07018e-05 2.17573e-07 -1.70624e-06)
(1.14717e-05 -1.51921e-05 -7.86076e-06)
(-5.90399e-06 -1.36816e-05 -5.90399e-06)
(-5.84523e-06 -3.54916e-06 -1.20116e-07)
(4.93646e-06 -6.19468e-07 -3.47238e-07)
(5.34222e-06 -9.65293e-06 -1.82845e-06)
(-1.09569e-06 -9.64489e-06 -1.09569e-06)
(-1.14661e-06 -2.97469e-06 1.10161e-06)
(2.77951e-06 5.12764e-07 -2.66092e-07)
(3.18539e-06 -3.29056e-06 -6.27595e-07)
(-2.68747e-07 -3.20441e-06 -2.68747e-07)
(-5.21798e-07 -1.43797e-06 1.02434e-06)
(1.45728e-06 4.77222e-08 5.42611e-08)
(1.77529e-06 -2.10812e-06 1.88987e-07)
(3.7449e-07 -2.19266e-06 3.7449e-07)
(1.47204e-07 -1.18821e-06 9.2718e-07)
(8.32712e-07 2.91339e-07 6.62369e-08)
(1.07014e-06 -7.45174e-07 2.54099e-07)
(3.65754e-07 -8.2817e-07 3.65754e-07)
(1.59965e-07 -6.37959e-07 6.87268e-07)
(4.82866e-07 9.52101e-08 1.18721e-07)
(6.67569e-07 -4.76323e-07 2.79556e-07)
(3.53721e-07 -5.5387e-07 3.53721e-07)
(1.9352e-07 -4.73964e-07 5.0323e-07)
(2.98377e-07 1.08799e-07 1.08743e-07)
(4.35102e-07 -1.96191e-07 2.26644e-07)
(2.7831e-07 -2.57512e-07 2.7831e-07)
(1.49361e-07 -2.80258e-07 3.68117e-07)
(1.66517e-07 1.51507e-08 9.5453e-08)
(2.57565e-07 -9.38499e-08 1.66441e-07)
(1.96122e-07 -1.14248e-07 1.96122e-07)
(1.11283e-07 -1.27445e-07 2.31464e-07)
(1.87504e-05 3.65034e-06 -7.15254e-06)
(1.61038e-05 -1.36368e-05 -2.96199e-05)
(-8.18316e-06 -9.12408e-06 -3.32267e-05)
(-4.38952e-06 8.58178e-07 -4.38952e-06)
(1.11557e-05 2.18429e-06 -2.26943e-06)
(9.69571e-06 -1.05207e-05 -8.51677e-06)
(-1.62239e-06 -8.02054e-06 -9.19936e-06)
(3.41379e-07 -1.36779e-06 3.41379e-07)
(7.44545e-06 1.98287e-06 -2.16674e-06)
(6.90691e-06 -5.30876e-06 -4.74209e-06)
(-1.20116e-07 -3.54916e-06 -5.84523e-06)
(7.42304e-07 -2.16815e-06 7.42304e-07)
(4.18633e-06 1.16686e-06 -5.69728e-07)
(4.21855e-06 -3.92574e-06 -9.10194e-07)
(1.10161e-06 -2.97469e-06 -1.14661e-06)
(1.2112e-06 -2.35735e-06 1.2112e-06)
(2.62777e-06 9.62698e-07 -4.9275e-07)
(2.82892e-06 -1.78137e-06 -4.15432e-07)
(1.02434e-06 -1.43797e-06 -5.21798e-07)
(8.90494e-07 -1.711e-06 8.90494e-07)
(1.50897e-06 4.97033e-07 -7.48692e-08)
(1.76886e-06 -1.28597e-06 1.28532e-07)
(9.2718e-07 -1.18821e-06 1.47204e-07)
(7.04085e-07 -1.41238e-06 7.04085e-07)
(9.12509e-07 3.81092e-07 -4.25867e-08)
(1.13601e-06 -6.09598e-07 1.22887e-07)
(6.87268e-07 -6.37959e-07 1.59965e-07)
(4.74725e-07 -9.11563e-07 4.74725e-07)
(5.37574e-07 1.73004e-07 4.12576e-08)
(7.23535e-07 -4.20265e-07 1.53152e-07)
(5.0323e-07 -4.73964e-07 1.9352e-07)
(3.26169e-07 -6.49739e-07 3.26169e-07)
(3.36025e-07 1.14587e-07 4.39291e-08)
(4.79883e-07 -2.21197e-07 1.16035e-07)
(3.68117e-07 -2.80258e-07 1.49361e-07)
(2.24461e-07 -4.08914e-07 2.24461e-07)
(1.85091e-07 2.33291e-08 5.05873e-08)
(2.79464e-07 -1.04564e-07 9.09652e-08)
(2.31464e-07 -1.27445e-07 1.11283e-07)
(1.38726e-07 -1.83499e-07 1.38726e-07)
)
;

boundaryField
{
    inlet
    {
        type            fixedValue;
        value           uniform (0 0 0);
    }
    outlet
    {
        type            zeroGradient;
    }
    walls
    {
        type            fixedValue;
        value           uniform (0 0 0);
    }
    procBoundary1to0
    {
        type            processor;
        value           nonuniform List<vector> 
16
(
(8.32483e-06 5.11855e-06 8.32483e-06)
(6.34986e-06 -2.72856e-05 8.33555e-05)
(-6.62601e-06 -1.33982e-05 5.16398e-05)
(-3.77023e-06 4.64362e-06 2.29578e-05)
(8.33555e-05 -2.72856e-05 6.34986e-06)
(4.91336e-05 -0.000286391 4.91336e-05)
(-6.82563e-05 -0.000200939 3.70464e-05)
(-2.8621e-05 -2.05331e-05 1.61514e-05)
(5.16398e-05 -1.33982e-05 -6.62601e-06)
(3.70464e-05 -0.000200939 -6.82563e-05)
(-4.03879e-05 -0.000200733 -4.03879e-05)
(-2.20205e-05 -2.16781e-05 -1.12442e-05)
(2.29578e-05 4.64362e-06 -3.77023e-06)
(1.61514e-05 -2.05331e-05 -2.8621e-05)
(-1.12442e-05 -2.16781e-05 -2.20205e-05)
(-3.39747e-06 4.62542e-06 -3.39747e-06)
)
;
    }
}


// ************************************************************************* //
