/*--------------------------------*- C++ -*----------------------------------*\
| =========                 |                                                 |
| \\      /  F ield         | OpenFOAM: The Open Source CFD Toolbox           |
|  \\    /   O peration     | Version:  5.x                                   |
|   \\  /    A nd           | Web:      www.OpenFOAM.org                      |
|    \\/     M anipulation  |                                                 |
\*---------------------------------------------------------------------------*/
FoamFile
{
    version     2.0;
    format      ascii;
    class       volVectorField;
    location    "0.13";
    object      Us;
}
// * * * * * * * * * * * * * * * * * * * * * * * * * * * * * * * * * * * * * //

dimensions      [0 1 -1 0 0 0 0];

internalField   uniform (0 0 0);

boundaryField
{
    inlet
    {
        type            zeroGradient;
    }
    outlet
    {
        type            zeroGradient;
    }
    walls
    {
        type            zeroGradient;
    }
    procBoundary1to0
    {
        type            processor;
        value           nonuniform List<vector> 
16
(
(-2.57648e-19 -5.51045e-16 -2.57648e-19)
(-9.45964e-18 -2.02319e-14 -9.45964e-18)
(-1.00789e-17 -2.15564e-14 -1.00789e-17)
(-9.61878e-19 -2.05722e-15 -9.61878e-19)
(-9.45964e-18 -2.02319e-14 -9.45964e-18)
(-3.38556e-16 -7.24088e-13 -3.38556e-16)
(-3.60343e-16 -7.70685e-13 -3.60343e-16)
(-3.39519e-17 -7.26149e-14 -3.39519e-17)
(-1.00789e-17 -2.15564e-14 -1.00789e-17)
(-3.60343e-16 -7.70685e-13 -3.60343e-16)
(-3.83924e-16 -8.21121e-13 -3.83924e-16)
(-3.66127e-17 -7.83055e-14 -3.66127e-17)
(-9.61878e-19 -2.05722e-15 -9.61878e-19)
(-3.39519e-17 -7.26149e-14 -3.39519e-17)
(-3.66127e-17 -7.83055e-14 -3.66127e-17)
(-3.99463e-18 -8.54353e-15 -3.99463e-18)
)
;
    }
}


// ************************************************************************* //
