/*--------------------------------*- C++ -*----------------------------------*\
| =========                 |                                                 |
| \\      /  F ield         | OpenFOAM: The Open Source CFD Toolbox           |
|  \\    /   O peration     | Version:  5.x                                   |
|   \\  /    A nd           | Web:      www.OpenFOAM.org                      |
|    \\/     M anipulation  |                                                 |
\*---------------------------------------------------------------------------*/
FoamFile
{
    version     2.0;
    format      ascii;
    class       surfaceScalarField;
    location    "0.066";
    object      phi;
}
// * * * * * * * * * * * * * * * * * * * * * * * * * * * * * * * * * * * * * //

dimensions      [0 3 -1 0 0 0 0];

internalField   nonuniform List<scalar> 
4318
(
-2.04387e-07
4.05859e-08
-1.74869e-08
-1.69415e-07
3.83638e-08
-8.7785e-08
-1.36514e-07
3.68671e-08
-8.65917e-08
-7.6683e-08
3.52815e-08
-1.14608e-07
3.38253e-08
-1.09242e-07
-2.05537e-07
9.70622e-08
-2.30968e-08
-1.70802e-07
9.66126e-08
-9.29947e-08
-1.37905e-07
9.57334e-08
-9.176e-08
-7.80539e-08
9.50998e-08
-1.19631e-07
9.40236e-08
-1.14244e-07
-2.05746e-07
1.31539e-07
-8.43382e-10
-1.71264e-07
1.31965e-07
-6.98553e-08
-1.38538e-07
1.31445e-07
-6.84556e-08
-7.8956e-08
1.31393e-07
-9.58822e-08
1.30629e-07
-9.04487e-08
-2.06095e-07
1.67913e-07
-2.53783e-09
-1.71743e-07
1.68958e-07
-7.13658e-08
-1.39114e-07
1.68681e-07
-6.98835e-08
-7.95981e-08
1.69075e-07
-9.72127e-08
1.68548e-07
-9.17328e-08
-2.05011e-07
5.76422e-08
-1.70993e-07
-1.01557e-08
-1.38787e-07
-8.53496e-09
-7.98367e-08
-3.53714e-08
-2.99242e-08
-4.40078e-08
1.79669e-09
-3.76829e-08
-5.40898e-08
4.49285e-09
-1.0471e-07
-5.57867e-08
5.19254e-09
-1.11023e-07
-4.18279e-08
6.31144e-09
-1.53935e-07
6.38665e-09
-1.58093e-07
-4.33278e-08
2.28177e-08
-3.54749e-08
-5.3484e-08
2.42532e-08
-1.02626e-07
-5.54834e-08
2.44456e-08
-1.09031e-07
-4.17953e-08
2.50876e-08
-1.5207e-07
2.49336e-08
-1.56362e-07
-4.2171e-08
2.8107e-08
2.36253e-09
-5.25542e-08
2.90692e-08
-6.43172e-08
-5.49188e-08
2.90542e-08
-7.07287e-08
-4.16563e-08
2.94861e-08
-1.13558e-07
2.92554e-08
-1.17952e-07
-4.21046e-08
2.69571e-08
7.15371e-09
-5.25598e-08
2.76106e-08
-5.94805e-08
-5.5023e-08
2.75301e-08
-6.59235e-08
-4.1873e-08
2.78673e-08
-1.08767e-07
2.76641e-08
-1.13229e-07
-4.15238e-08
6.85192e-08
-5.21194e-08
2.81396e-09
-5.47657e-08
-3.57468e-09
-4.19049e-08
-4.59197e-08
-5.04603e-08
-1.91154e-07
4.5143e-08
-6.84461e-08
-1.67393e-07
4.34667e-08
-1.87073e-07
-1.40018e-07
4.23387e-08
-1.97405e-07
-8.18342e-08
4.0674e-08
-2.72125e-07
3.92674e-08
-2.77606e-07
-1.92167e-07
1.02336e-07
-6.6038e-08
-1.68636e-07
1.02014e-07
-1.84736e-07
-1.41375e-07
1.01231e-07
-1.95209e-07
-8.32153e-08
1.00488e-07
-2.70035e-07
9.9357e-08
-2.75711e-07
-1.92231e-07
1.32263e-07
-7.01136e-10
-1.69039e-07
1.32759e-07
-1.18288e-07
-1.42088e-07
1.32238e-07
-1.2872e-07
-8.43513e-08
1.32107e-07
-2.02937e-07
1.3126e-07
-2.08735e-07
-1.92598e-07
1.59519e-07
6.978e-09
-1.69556e-07
1.60626e-07
-1.10422e-07
-1.42718e-07
1.60329e-07
-1.20884e-07
-8.508e-08
1.60713e-07
-1.9504e-07
1.60125e-07
-2.00929e-07
-1.91456e-07
1.14536e-07
-1.68793e-07
-9.4369e-10
-1.42435e-07
-1.123e-08
-8.54974e-08
-8.42821e-08
-9.02459e-08
-1.71804e-07
3.29845e-08
-1.04238e-07
-1.55761e-07
3.50804e-08
-2.62337e-07
-1.32256e-07
3.51367e-08
-2.79918e-07
-8.05409e-08
3.60763e-08
-3.82848e-07
3.56733e-08
-3.93982e-07
-1.71552e-07
8.86841e-08
-9.82022e-08
-1.55669e-07
9.08014e-08
-2.5638e-07
-1.32419e-07
9.07576e-08
-2.74115e-07
-8.0927e-08
9.1795e-08
-3.77251e-07
9.13271e-08
-3.887e-07
-1.69655e-07
1.17547e-07
-6.23303e-09
-1.54173e-07
1.19798e-07
-1.62809e-07
-1.31471e-07
1.19746e-07
-1.80452e-07
-8.07701e-08
1.20905e-07
-2.82781e-07
1.20489e-07
-2.94438e-07
-1.69539e-07
1.40791e-07
7.16467e-09
-1.54183e-07
1.43087e-07
-1.49109e-07
-1.31632e-07
1.43071e-07
-1.66799e-07
-8.11115e-08
1.44347e-07
-2.69041e-07
1.44023e-07
-2.80856e-07
-1.67307e-07
1.52884e-07
-1.52356e-07
-5.31744e-10
-1.30423e-07
-1.79181e-08
-8.08262e-08
-1.18524e-07
-1.30414e-07
-2.84087e-07
7.38563e-08
-1.57221e-07
-2.51044e-07
7.31037e-08
-3.88119e-07
-2.09437e-07
7.20745e-08
-4.14582e-07
-1.20911e-07
7.06618e-08
-5.65794e-07
6.9059e-08
-5.81865e-07
-2.84967e-07
1.61735e-07
-1.47989e-07
-2.52219e-07
1.62825e-07
-3.789e-07
-2.10867e-07
1.62133e-07
-4.0557e-07
-1.22492e-07
1.6202e-07
-5.57004e-07
1.60683e-07
-5.73527e-07
-2.83741e-07
2.06596e-07
-1.29532e-08
-2.51594e-07
2.0887e-07
-2.41052e-07
-2.10966e-07
2.08461e-07
-2.67459e-07
-1.23636e-07
2.09231e-07
-4.17366e-07
2.08219e-07
-4.3412e-07
-2.83928e-07
2.44665e-07
7.49286e-09
-2.51999e-07
2.47745e-07
-2.19963e-07
-2.11593e-07
2.47589e-07
-2.46381e-07
-1.24505e-07
2.49065e-07
-3.9601e-07
2.48363e-07
-4.12952e-07
-2.80832e-07
2.19409e-07
-2.49582e-07
-3.1844e-09
-2.10189e-07
-2.89619e-08
-1.24638e-07
-1.75718e-07
-1.9264e-07
-3.67363e-07
9.31761e-08
-2.28777e-07
-3.24697e-07
9.51938e-08
-5.53624e-07
-2.69216e-07
9.47465e-08
-5.93156e-07
-1.54461e-07
9.53413e-08
-8.05041e-07
9.41762e-08
-8.29431e-07
-3.67498e-07
2.08951e-07
-2.14394e-07
-3.25142e-07
2.12802e-07
-5.38923e-07
-2.70013e-07
2.12639e-07
-5.78646e-07
-1.55589e-07
2.14509e-07
-7.90629e-07
2.13525e-07
-8.15565e-07
-3.6388e-07
2.69124e-07
-2.41769e-08
-3.22279e-07
2.74174e-07
-3.44085e-07
-2.68219e-07
2.74238e-07
-3.83177e-07
-1.55483e-07
2.76922e-07
-5.92569e-07
2.76196e-07
-6.17636e-07
-3.63527e-07
3.19326e-07
6.42566e-09
-3.2217e-07
3.25005e-07
-3.12209e-07
-2.68413e-07
3.25262e-07
-3.51219e-07
-1.56096e-07
3.28511e-07
-5.59972e-07
3.28044e-07
-5.85237e-07
-3.57892e-07
3.0513e-07
-3.17395e-07
-5.74545e-09
-2.6512e-07
-4.34986e-08
-1.55113e-07
-2.47613e-07
-2.72605e-07
-5.20067e-07
1.46823e-07
-3.29057e-07
-4.5984e-07
1.47881e-07
-7.88374e-07
-3.80167e-07
1.46814e-07
-8.48068e-07
-2.14833e-07
1.46038e-07
-1.14859e-06
1.43864e-07
-1.18485e-06
-5.20796e-07
3.09184e-07
-3.06534e-07
-4.61043e-07
3.14189e-07
-7.65048e-07
-3.81891e-07
3.13802e-07
-8.24846e-07
-2.1698e-07
3.15746e-07
-1.12529e-06
3.14021e-07
-1.16214e-06
-5.15996e-07
3.91909e-07
-3.71851e-08
-4.57407e-07
3.99431e-07
-4.8798e-07
-3.79969e-07
3.99565e-07
-5.46441e-07
-2.17673e-07
4.03282e-07
-8.42462e-07
4.02092e-07
-8.7927e-07
-5.15476e-07
4.59081e-07
9.27705e-09
-4.57258e-07
4.67998e-07
-4.39055e-07
-3.80324e-07
4.68511e-07
-4.97158e-07
-2.18687e-07
4.73432e-07
-7.91819e-07
4.72716e-07
-8.28727e-07
-5.0656e-07
4.29383e-07
-4.49691e-07
-6.19267e-09
-3.75216e-07
-6.18561e-08
-2.17409e-07
-3.4877e-07
-3.8492e-07
-7.34352e-07
2.10043e-07
-4.71096e-07
-6.47818e-07
2.14293e-07
-1.12318e-06
-5.32814e-07
2.13703e-07
-1.2126e-06
-2.97633e-07
2.1512e-07
-1.63785e-06
2.1305e-07
-1.69238e-06
-7.34206e-07
4.40261e-07
-4.36901e-07
-6.48273e-07
4.50094e-07
-1.08685e-06
-5.33961e-07
4.50631e-07
-1.17615e-06
-2.9966e-07
4.55896e-07
-1.60041e-06
4.54586e-07
-1.65545e-06
-7.25157e-07
5.58399e-07
-5.68525e-08
-6.40667e-07
5.71689e-07
-6.94127e-07
-5.28782e-07
5.72928e-07
-7.80685e-07
-2.98575e-07
5.80457e-07
-1.19729e-06
5.79775e-07
-1.25144e-06
-7.23363e-07
6.54057e-07
1.2242e-08
-6.39372e-07
6.6888e-07
-6.20295e-07
-5.28239e-07
6.70577e-07
-7.06e-07
-2.99251e-07
6.79418e-07
-1.11983e-06
6.7929e-07
-1.17388e-06
-7.0858e-07
6.05987e-07
-6.26283e-07
-6.13079e-09
-5.18788e-07
-8.7158e-08
-2.95656e-07
-4.8835e-07
-5.40436e-07
-1.01534e-06
3.0505e-07
-6.66256e-07
-9.01006e-07
3.11135e-07
-1.58493e-06
-7.39616e-07
3.10556e-07
-1.72376e-06
-4.11326e-07
3.11974e-07
-2.32331e-06
3.08915e-07
-2.40686e-06
-1.0151e-06
6.21445e-07
-6.11946e-07
-9.01568e-07
6.37215e-07
-1.52651e-06
-7.41387e-07
6.38559e-07
-1.66438e-06
-4.14356e-07
6.46584e-07
-2.26209e-06
6.44719e-07
-2.34584e-06
-1.0007e-06
7.8229e-07
-7.85556e-08
-8.89329e-07
8.04268e-07
-9.72606e-07
-7.33428e-07
8.06913e-07
-1.10499e-06
-4.13005e-07
8.19197e-07
-1.69038e-06
8.18526e-07
-1.77244e-06
-9.9741e-07
9.06329e-07
2.74888e-08
-8.86647e-07
9.30809e-07
-8.57651e-07
-7.32062e-07
9.34052e-07
-9.87775e-07
-4.13597e-07
9.48473e-07
-1.56762e-06
9.48587e-07
-1.64874e-06
-9.7295e-07
8.57102e-07
-8.64712e-07
4.84156e-09
-7.16368e-07
-1.1644e-07
-4.07586e-07
-6.75849e-07
-7.53077e-07
-1.4628e-06
4.4443e-07
-9.43918e-07
-1.29656e-06
4.57851e-07
-2.25283e-06
-1.06158e-06
4.58554e-07
-2.46475e-06
-5.85391e-07
4.65126e-07
-3.31862e-06
4.62613e-07
-3.44818e-06
-1.45965e-06
8.98672e-07
-8.61215e-07
-1.29461e-06
9.27067e-07
-2.16079e-06
-1.0612e-06
9.31448e-07
-2.37072e-06
-5.8782e-07
9.48309e-07
-3.21867e-06
9.48401e-07
-3.34757e-06
-1.43459e-06
1.13066e-06
-1.10346e-07
-1.27218e-06
1.16796e-06
-1.37595e-06
-1.04451e-06
1.17446e-06
-1.57572e-06
-5.8161e-07
1.19689e-06
-2.40189e-06
1.19845e-06
-2.52517e-06
-1.42684e-06
1.30895e-06
4.88249e-08
-1.26556e-06
1.34901e-06
-1.20002e-06
-1.04009e-06
1.35658e-06
-1.39541e-06
-5.80975e-07
1.38149e-06
-2.21137e-06
1.38415e-06
-2.33269e-06
-1.38685e-06
1.21756e-06
-1.22852e-06
2.16773e-08
-1.01216e-06
-1.57087e-07
-5.68273e-07
-9.39243e-07
-1.0518e-06
-2.0293e-06
6.3763e-07
-1.32322e-06
-1.81909e-06
6.58691e-07
-3.17085e-06
-1.48692e-06
6.62602e-07
-3.51381e-06
-8.20779e-07
6.7203e-07
-4.72128e-06
6.69048e-07
-4.92759e-06
-2.02397e-06
1.26369e-06
-1.18939e-06
-1.81467e-06
1.30915e-06
-3.02058e-06
-1.48563e-06
1.31941e-06
-3.35659e-06
-8.23686e-07
1.34604e-06
-4.55461e-06
1.3471e-06
-4.75852e-06
-1.98384e-06
1.58139e-06
-1.38037e-07
-1.77735e-06
1.64293e-06
-1.91625e-06
-1.45915e-06
1.65664e-06
-2.23115e-06
-8.1455e-07
1.69398e-06
-3.39445e-06
1.69818e-06
-3.58946e-06
-1.96967e-06
1.80862e-06
1.09936e-07
-1.76358e-06
1.8735e-06
-1.63669e-06
-1.44882e-06
1.88757e-06
-1.94113e-06
-8.10657e-07
1.92758e-06
-3.08314e-06
1.93264e-06
-3.27112e-06
-1.90482e-06
1.7406e-06
-1.70221e-06
7.68558e-08
-1.40369e-06
-1.96139e-07
-7.90044e-07
-1.28556e-06
-1.45765e-06
-2.9378e-06
9.21255e-07
-1.85723e-06
-2.62937e-06
9.65247e-07
-4.50228e-06
-2.14608e-06
9.71936e-07
-5.03352e-06
-1.18172e-06
9.97982e-07
-6.76023e-06
9.99239e-07
-7.09575e-06
-2.92135e-06
1.81599e-06
-1.65196e-06
-2.61574e-06
1.89959e-06
-4.26053e-06
-2.13638e-06
1.91767e-06
-4.78168e-06
-1.18021e-06
1.96963e-06
-6.48239e-06
1.9786e-06
-6.80796e-06
-2.85116e-06
2.2746e-06
-1.79702e-07
-2.55001e-06
2.3807e-06
-2.69851e-06
-2.08482e-06
2.40616e-06
-3.18484e-06
-1.15485e-06
2.47183e-06
-4.82662e-06
2.48437e-06
-5.12698e-06
-2.82219e-06
2.59974e-06
1.9788e-07
-2.52434e-06
2.70916e-06
-2.263e-06
-2.06673e-06
2.73777e-06
-2.73036e-06
-1.14831e-06
2.80773e-06
-4.33746e-06
2.82279e-06
-4.62777e-06
-2.71293e-06
2.48345e-06
-2.41874e-06
1.58045e-07
-1.98418e-06
-2.51522e-07
-1.10585e-06
-1.76944e-06
-2.025e-06
-4.12077e-06
1.33838e-06
-2.58307e-06
-3.76392e-06
1.40269e-06
-6.32767e-06
-3.07729e-06
1.43038e-06
-7.22562e-06
-1.70089e-06
1.46843e-06
-9.69793e-06
1.47233e-06
-1.02501e-05
-4.09315e-06
2.58531e-06
-2.24386e-06
-3.73475e-06
2.71198e-06
-5.92821e-06
-3.05641e-06
2.76052e-06
-6.79013e-06
-1.69661e-06
2.84764e-06
-9.22134e-06
2.86795e-06
-9.75988e-06
-3.98396e-06
3.2174e-06
-1.8405e-07
-3.62364e-06
3.38667e-06
-3.7335e-06
-2.96979e-06
3.44417e-06
-4.52233e-06
-1.65942e-06
3.55541e-06
-6.84474e-06
3.58444e-06
-7.34363e-06
-3.92851e-06
3.61931e-06
4.13124e-07
-3.56594e-06
3.78761e-06
-3.0265e-06
-2.92069e-06
3.84289e-06
-3.77432e-06
-1.63141e-06
3.95141e-06
-6.02273e-06
3.97875e-06
-6.48475e-06
-3.76024e-06
3.59856e-06
-3.39718e-06
3.64753e-07
-2.79504e-06
-2.73367e-07
-1.56836e-06
-2.38858e-06
-2.79173e-06
-5.98363e-06
1.90947e-06
-3.58554e-06
-5.43659e-06
2.04876e-06
-8.99935e-06
-4.38162e-06
2.06533e-06
-1.04337e-05
-2.42236e-06
2.13595e-06
-1.39026e-05
2.1482e-06
-1.47973e-05
-5.91863e-06
3.6808e-06
-3.05985e-06
-5.38465e-06
3.92234e-06
-8.33574e-06
-4.35026e-06
3.97682e-06
-9.73599e-06
-2.40936e-06
4.09988e-06
-1.31261e-05
4.12862e-06
-1.398e-05
-5.72891e-06
4.59929e-06
-1.88111e-07
-5.20462e-06
4.90181e-06
-5.23723e-06
-4.22767e-06
4.98974e-06
-6.51218e-06
-2.34066e-06
5.16872e-06
-9.80057e-06
5.21637e-06
-1.05784e-05
-5.62766e-06
5.16228e-06
7.48119e-07
-5.11666e-06
5.46092e-06
-4.09659e-06
-4.17411e-06
5.5617e-06
-5.28881e-06
-2.32561e-06
5.75083e-06
-8.45332e-06
5.81131e-06
-9.19845e-06
-5.32925e-06
5.19395e-06
-4.81498e-06
6.892e-07
-3.93516e-06
-2.98054e-07
-2.19041e-06
-3.23736e-06
-3.84926e-06
-8.60971e-06
2.86225e-06
-4.85371e-06
-8.11893e-06
3.06382e-06
-1.26396e-05
-6.7507e-06
3.21175e-06
-1.51155e-05
-3.82733e-06
3.40398e-06
-2.0363e-05
3.48538e-06
-2.20769e-05
-8.4875e-06
5.38631e-06
-3.97946e-06
-7.98771e-06
5.76293e-06
-1.15346e-05
-6.60201e-06
5.96725e-06
-1.38772e-05
-3.73762e-06
6.29818e-06
-1.88846e-05
6.44258e-06
-2.04593e-05
-8.17846e-06
6.664e-06
3.51146e-08
-7.6578e-06
7.15289e-06
-7.14783e-06
-6.28161e-06
7.38954e-06
-9.31064e-06
-3.55237e-06
7.72097e-06
-1.39526e-05
7.85459e-06
-1.5293e-05
-7.95702e-06
7.29577e-06
1.55599e-06
-7.42042e-06
7.74919e-06
-5.22946e-06
-6.07681e-06
7.97043e-06
-7.21328e-06
-3.40825e-06
8.27672e-06
-1.16776e-05
8.3998e-06
-1.28856e-05
-7.50361e-06
7.73507e-06
-6.93377e-06
1.48486e-06
-5.70461e-06
-1.00426e-07
-3.21239e-06
-4.19861e-06
-5.1827e-06
-1.29097e-05
4.25981e-06
-6.40626e-06
-1.29778e-05
4.95325e-06
-1.76176e-05
-1.1206e-05
5.1468e-06
-2.21519e-05
-6.56307e-06
5.77486e-06
-3.09485e-05
6.09189e-06
-3.46835e-05
-1.25935e-05
7.88426e-06
-4.94137e-06
-1.23987e-05
8.90331e-06
-1.56795e-05
-1.06633e-05
9.36114e-06
-1.9827e-05
-6.22797e-06
1.02597e-05
-2.78047e-05
1.07775e-05
-3.10923e-05
-1.20384e-05
9.71348e-06
6.90219e-07
-1.15031e-05
1.07245e-05
-9.50426e-06
-9.71308e-06
1.12067e-05
-1.29462e-05
-5.56097e-06
1.20827e-05
-1.99276e-05
1.26212e-05
-2.23985e-05
-1.15811e-05
1.04756e-05
3.10636e-06
-1.10406e-05
1.13332e-05
-6.37865e-06
-9.24831e-06
1.17953e-05
-9.59413e-06
-5.3355e-06
1.23483e-05
-1.58561e-05
1.26374e-05
-1.79177e-05
-1.07236e-05
1.17134e-05
-1.00318e-05
3.01345e-06
-8.24972e-06
5.13728e-07
-4.64658e-06
-5.22987e-06
-6.81862e-06
-2.02589e-05
7.18019e-06
-7.54205e-06
-2.23167e-05
7.91778e-06
-2.35822e-05
-2.12544e-05
9.13614e-06
-3.24918e-05
-1.25791e-05
1.109e-05
-5.09307e-05
1.19254e-05
-5.91111e-05
-1.90359e-05
1.24536e-05
-5.06682e-06
-2.08162e-05
1.41128e-05
-2.00941e-05
-1.94715e-05
1.56206e-05
-2.76561e-05
-1.17406e-05
1.89116e-05
-4.33572e-05
2.06801e-05
-5.11971e-05
-1.76758e-05
1.46086e-05
2.89582e-06
-1.83421e-05
1.65193e-05
-1.12444e-05
-1.61589e-05
1.79436e-05
-1.74524e-05
-9.79184e-06
2.0387e-05
-2.77701e-05
2.19364e-05
-3.30096e-05
-1.67415e-05
1.49449e-05
6.7518e-06
-1.68853e-05
1.6436e-05
-6.15148e-06
-1.45742e-05
1.73848e-05
-1.13464e-05
-8.45369e-06
1.87204e-05
-2.031e-05
1.99568e-05
-2.39729e-05
-1.52532e-05
1.82188e-05
-1.50156e-05
6.64265e-06
-1.29334e-05
2.69104e-06
-7.71942e-06
-5.40579e-06
-8.04881e-06
-3.09315e-05
1.04744e-05
-7.58089e-06
-3.3272e-05
1.2623e-05
-3.39644e-05
-2.63175e-05
1.42122e-05
-5.3797e-05
-1.55633e-05
1.45903e-05
-7.64774e-05
1.51055e-05
-8.97117e-05
-2.82578e-05
1.78876e-05
-3.95326e-06
-3.16718e-05
2.09015e-05
-2.49587e-05
-2.59896e-05
2.44087e-05
-4.35347e-05
-1.51169e-05
2.54575e-05
-6.50972e-05
2.58553e-05
-7.66847e-05
-2.56197e-05
2.05186e-05
6.90268e-06
-2.74073e-05
2.39983e-05
-1.25536e-05
-2.50387e-05
2.69785e-05
-2.23909e-05
-1.48059e-05
3.12188e-05
-4.37642e-05
3.27644e-05
-5.42501e-05
-2.37432e-05
2.08619e-05
1.21371e-05
-2.4443e-05
2.33673e-05
-4.82072e-06
-2.14814e-05
2.52939e-05
-1.26234e-05
-1.33019e-05
2.79315e-05
-2.52022e-05
3.06479e-05
-3.46387e-05
-2.12428e-05
2.7023e-05
-2.10128e-05
1.20015e-05
-1.8459e-05
6.67938e-06
-1.1097e-05
-4.32051e-06
-8.12396e-06
-4.24736e-05
1.37116e-05
-7.72408e-06
-4.21804e-05
1.63889e-05
-5.07418e-05
-3.44252e-05
1.78396e-05
-7.95292e-05
-2.10981e-05
1.90847e-05
-0.000109113
2.04616e-05
-0.000131183
-3.99153e-05
2.37191e-05
-1.7656e-06
-4.00209e-05
2.93826e-05
-3.78469e-05
-3.25235e-05
3.06951e-05
-6.38877e-05
-1.9714e-05
3.19153e-05
-9.07372e-05
3.38147e-05
-0.000109302
-3.59663e-05
2.77352e-05
1.26497e-05
-3.83679e-05
3.30148e-05
-1.37842e-05
-3.1262e-05
3.79177e-05
-3.67193e-05
-1.84424e-05
3.94482e-05
-6.41168e-05
4.16316e-05
-7.99542e-05
-3.19884e-05
2.66787e-05
2.06488e-05
-3.3521e-05
3.15645e-05
-1.83797e-06
-2.9904e-05
3.55591e-05
-1.38818e-05
-1.69393e-05
3.95227e-05
-3.82414e-05
4.20036e-05
-5.13554e-05
-2.71103e-05
3.63406e-05
-2.82885e-05
2.04843e-05
-2.43588e-05
1.23771e-05
-1.43621e-05
-2.23402e-06
-8.38072e-06
-5.80436e-05
1.8339e-05
-9.62992e-06
-6.04988e-05
2.22109e-05
-7.0589e-05
-5.0929e-05
2.56053e-05
-0.000114836
-3.26733e-05
2.86237e-05
-0.000156229
3.19625e-05
-0.000195702
-5.39667e-05
3.09416e-05
3.94253e-07
-5.58994e-05
3.72945e-05
-5.09977e-05
-4.64406e-05
4.18587e-05
-8.95998e-05
-2.93087e-05
4.57251e-05
-0.000124971
5.01668e-05
-0.000156345
-4.94548e-05
3.71563e-05
1.85898e-05
-5.1646e-05
4.47318e-05
-1.90303e-05
-4.25845e-05
5.0999e-05
-5.4921e-05
-2.63309e-05
5.52488e-05
-8.98942e-05
5.97713e-05
-0.000115245
-4.30764e-05
3.83636e-05
2.86618e-05
-4.53583e-05
4.25486e-05
2.62705e-06
-3.79955e-05
4.89255e-05
-1.91711e-05
-2.2938e-05
5.33821e-05
-5.14322e-05
5.73469e-05
-7.11734e-05
-3.89e-05
5.058e-05
-3.78391e-05
2.8484e-05
-3.17629e-05
1.83083e-05
-1.91726e-05
-2.44197e-07
-1.05055e-05
-8.16805e-05
2.76965e-05
-1.3645e-05
-9.11952e-05
3.28724e-05
-9.40481e-05
-8.04852e-05
3.99822e-05
-0.00016569
-5.37878e-05
4.5473e-05
-0.000228704
5.28332e-05
-0.000302194
-7.49984e-05
4.44686e-05
4.53114e-06
-8.20612e-05
5.28506e-05
-6.39131e-05
-7.10375e-05
6.28596e-05
-0.000123501
-4.64654e-05
7.01054e-05
-0.000174175
7.96025e-05
-0.000228901
-6.91922e-05
5.43842e-05
2.65853e-05
-7.43577e-05
6.36649e-05
-2.46791e-05
-6.37587e-05
7.36031e-05
-7.62636e-05
-4.09547e-05
8.12495e-05
-0.000123842
9.03788e-05
-0.00016614
-6.04541e-05
5.4256e-05
4.32491e-05
-6.44258e-05
5.98282e-05
1.04354e-05
-5.37757e-05
6.8575e-05
-2.47931e-05
-3.38817e-05
7.42943e-05
-6.43709e-05
8.08534e-05
-9.46166e-05
-5.48681e-05
7.42296e-05
-5.51648e-05
4.30238e-05
-4.54551e-05
2.62917e-05
-2.88528e-05
3.80026e-06
-1.49713e-05
-0.000123661
4.04284e-05
-1.54347e-05
-0.000147493
5.15648e-05
-0.000121848
-0.000139959
6.62662e-05
-0.000239592
-0.000103013
7.97461e-05
-0.000345672
0.000102073
-0.00050705
-0.000109093
6.57093e-05
1.16917e-05
-0.000127183
7.8874e-05
-7.31322e-05
-0.000115698
9.92233e-05
-0.000167942
-8.06736e-05
0.000114722
-0.000244176
0.000138905
-0.000345897
-0.000100368
7.7562e-05
4.26404e-05
-0.000112669
9.16946e-05
-2.51985e-05
-0.00010026
0.000111755
-0.000101204
-6.73049e-05
0.000126283
-0.000168358
0.000146472
-0.000240095
-8.59159e-05
7.49332e-05
6.86171e-05
-9.25546e-05
8.51393e-05
2.36295e-05
-7.98716e-05
9.95168e-05
-2.52381e-05
-5.25454e-05
0.000108237
-7.36507e-05
0.000122675
-0.000122414
-7.57353e-05
0.000109455
-7.84866e-05
6.83365e-05
-6.67824e-05
4.22959e-05
-4.15734e-05
1.08592e-05
-1.68658e-05
-0.000189604
5.982e-05
-6.30003e-06
-0.000241912
8.02488e-05
-0.000149888
-0.000240841
0.000113779
-0.000354656
-0.000187403
0.000141432
-0.00054101
0.000186386
-0.000880713
-0.000161248
9.72749e-05
2.93472e-05
-0.000198991
0.000119208
-7.43488e-05
-0.000190898
0.000159394
-0.00022165
-0.000142899
0.000189504
-0.000340246
0.000239784
-0.000540891
-0.000145631
0.000112058
7.42243e-05
-0.000172331
0.000135016
-1.4306e-05
-0.0001607
0.0001713
-0.00012474
-0.000115177
0.000197864
-0.000222241
0.000241047
-0.000355171
-0.000119816
0.000102543
0.00011404
-0.000136085
0.000118997
5.59171e-05
-0.000120575
0.000144857
-1.43044e-05
-8.17099e-05
0.000160261
-7.49133e-05
0.000188805
-0.000150421
-0.000103325
0.000163373
-0.000113062
0.000113774
-9.85401e-05
7.39226e-05
-6.12239e-05
2.83416e-05
-7.9385e-06
-0.000306992
9.58275e-05
2.58408e-05
-0.000429286
0.000133815
-0.00016136
-0.000482103
0.000209522
-0.000511293
-0.000430882
0.000281822
-0.000874332
0.000430121
-0.00174104
-0.000244901
0.000140472
8.21433e-05
-0.000323745
0.000181549
-4.32393e-05
-0.000334951
0.000267468
-0.00026839
-0.000282627
0.000333728
-0.000444477
0.000480468
-0.000874052
-0.000216971
0.000155207
0.000138167
-0.000271606
0.000197495
2.43839e-05
-0.000268954
0.000270325
-0.000130249
-0.000210884
0.000322588
-0.00026917
0.000427768
-0.000511827
-0.000164894
0.000137319
0.000187438
-0.000198564
0.000163823
0.00012326
-0.000182829
0.000215745
2.45398e-05
-0.000134951
0.000243602
-4.38049e-05
0.000305245
-0.000161744
-0.000138461
0.000240362
-0.00015648
0.0001872
-0.000142019
0.000138022
-9.72917e-05
8.10142e-05
2.44083e-05
-0.000461286
0.000136122
0.000101941
-0.000679661
0.000201063
-0.000144138
-0.000825339
0.000338456
-0.000704408
-0.000752604
0.000486252
-0.00143418
0.000749639
-0.00324389
-0.000353166
0.000193287
0.00017887
-0.000492225
0.000267454
2.94279e-05
-0.000551209
0.000414963
-0.000285912
-0.000487639
0.000549314
-0.000571111
0.000824699
-0.00143305
-0.00029971
0.000206178
0.000243492
-0.000397988
0.000272681
0.000117434
-0.000416701
0.000396767
-9.33404e-05
-0.000340224
0.000490821
-0.000287153
0.000678888
-0.000704026
-0.000218007
0.000177089
0.000295717
-0.000274065
0.00021678
0.000235219
-0.000269247
0.000298739
0.00011775
-0.000203105
0.000351972
2.89019e-05
0.000460614
-0.000144036
-0.000178208
0.000348496
-0.000207329
0.000295224
-0.000194484
0.000243199
-0.000137027
0.000177276
0.000101174
-0.000760445
0.000194485
0.000301784
-0.00125076
0.000338924
7.62171e-06
-0.00191711
0.000639235
-0.000676559
-0.00213619
0.00103579
-0.00225093
0.00213857
-0.00182182
-0.00231917
-0.00155311
-0.00182146
-0.000511766
0.000256869
0.000369546
-0.000780733
0.000383514
0.000253805
-0.00099889
0.000699953
-0.000128473
-0.00103505
0.000997948
-0.000497116
0.00191476
-0.00225202
-0.00042196
0.000265339
0.000418567
-0.000606407
0.000366173
0.000319223
-0.000701732
0.000604804
9.71337e-05
-0.000640659
0.000779622
-0.0001299
0.00124832
-0.00067563
-0.000276492
0.000219352
0.000452568
-0.000367426
0.000275001
0.000417325
-0.000384537
0.000420101
0.000319564
-0.000338971
0.000509649
0.00025331
0.000756753
8.49049e-06
-0.000221013
0.000488483
-0.000267145
0.000452232
-0.000259082
0.000418689
-0.000196782
0.000368257
0.000301863
-0.00101119
0.000233103
0.000610726
-0.00192299
0.000417529
0.000501781
-0.00363112
0.00094695
8.41319e-05
-0.00081546
0.00195041
-0.000464481
-0.00121419
-0.000374071
-0.000810879
-0.000867086
-0.00187634
-0.00141179
-0.000624721
0.000595235
-0.00261226
-0.000641859
0.000302232
0.000627559
-0.00107554
0.000478437
0.000626582
-0.00165097
0.000979599
0.000414303
-0.00195216
0.00164854
0.000105942
0.00362879
-0.00080602
-0.00121374
-0.000374018
-0.000459786
-0.000865211
-0.00081321
-0.00141032
-0.00187453
-0.000506038
0.000298512
0.000645786
-0.0007582
0.000432754
0.000617069
-0.000981759
0.00075637
0.000543921
-0.000949771
0.00107452
0.00041213
0.00192194
8.59028e-05
-0.000317074
0.000243677
0.000637479
-0.000434637
0.000315416
0.000652226
-0.000481362
0.000504916
0.000617743
-0.00042049
0.000640176
0.000626778
0.00101091
0.000503728
-0.00024512
0.000640336
-0.000300201
0.000637074
-0.000304105
0.000645955
-0.00023439
0.000625933
0.000611216
-0.00136913
0.000279543
0.00111661
-0.00275078
0.000557025
0.00132694
-0.00160911
0.00139071
0.0021664
-0.00140224
-0.00177548
-0.00143692
-0.00268585
0.00059948
1.14136e-05
0.000995487
0.000837886
-0.0011349
0.000351688
-0.0010515
-0.000777306
0.00033379
0.0010043
-0.00133614
0.000568547
0.00117389
-0.00245952
0.00131946
0.00160893
-0.00109535
0.00245853
0.000770793
0.000966681
0.000548694
0.000771872
-0.000772338
-0.00109302
-0.000658739
-0.00140919
-0.000772676
-0.00141408
-0.000654742
-0.000658979
-0.00101778
0.00197246
-0.000113455
-0.000669535
-0.000668211
-0.000745875
-0.00059011
0.00031698
0.000942082
-0.000932479
0.000474578
0.00105341
-0.00132041
0.000930537
0.00132077
-0.00139343
0.00133463
0.00160905
0.00274762
0.00216991
-0.00140214
-0.00161159
-0.00143273
-0.00177203
-0.000335701
0.000251158
0.000851709
-0.000475906
0.000334023
0.000932986
-0.000568862
0.000587866
0.00105337
-0.000555366
0.000774625
0.00117329
0.00136289
0.00132496
-0.000253103
0.000802677
-0.000319171
0.000851821
-0.000336278
0.000942849
-0.00028204
0.00100344
0.00112051
-0.000974963
0.00019913
0.00145217
-0.00182304
0.000403338
0.00177206
-0.00157704
0.000921223
0.00324022
-0.00117553
-0.000622517
-0.000444097
0.000555012
0.001518
-0.000849392
-0.000588602
-0.000827084
-0.000786018
-0.00059907
0.000855322
0.00316934
-0.000143407
0.000294126
-0.0041757
-0.000575178
0.000265532
0.0012608
-0.000900181
0.000406836
0.0014954
-0.000677197
0.000961525
0.00229645
-0.000498313
-0.000219232
-0.000233264
-0.000659497
-0.000796447
0.000593343
0.000956196
-0.000724193
0.000363853
-0.000370792
-0.000385862
0.000522771
0.000594223
-0.000452929
0.00024956
0.00114337
-0.000701454
0.0003565
0.00135227
-0.00096067
0.000699896
0.00184161
-0.000925386
0.000899229
0.00229715
-0.000496719
-0.000675998
-0.000233444
-0.000216458
0.00182329
0.00324807
-0.00117357
-0.00157757
-0.000441393
-0.000623679
-0.000260007
0.000209739
0.00100145
-0.000357858
0.000258414
0.00112892
-0.000409011
0.000452031
0.00135239
-0.000403684
0.000572618
0.00149457
0.000975573
0.00177192
-0.000211018
0.000902106
-0.000251381
0.00100212
-0.000267503
0.00114449
-0.000202733
0.001263
0.00145552
-0.000256962
3.12714e-05
0.00135976
-0.000376094
0.000202489
0.00168939
-0.000190485
3.34884e-05
0.00232415
8.38348e-05
0.00034845
0.000265884
0.000659885
-2.20965e-05
0.000418148
-0.00124808
-0.000405301
0.00402846
0.000196865
-0.000269427
-0.00355131
-0.000175208
7.69438e-05
0.00123455
-0.000130342
0.000179791
0.00147323
0.000203902
7.16835e-05
0.00192402
0.000416056
-0.000204602
0.00183886
2.91235e-06
0.000422937
-3.94714e-05
0.000663988
2.77617e-06
0.000659279
-3.98574e-05
-0.000778714
-0.00122953
-0.00073166
-0.000779067
0.000245331
0.000475831
-0.00057567
0.000210589
0.00051209
0.000321041
0.000530157
-0.00130331
-0.000178764
9.72996e-05
0.00114613
-0.000147055
0.000146461
0.00135389
-6.95504e-05
0.000145837
0.00168996
-3.20691e-05
0.000131082
0.00192399
0.000378499
0.00232582
8.49427e-05
-0.000197993
0.000274625
0.000355078
-0.000130635
0.000108812
0.0010251
-0.000148441
0.00012908
0.00116411
-0.000181824
0.000177084
0.00135452
-0.000203476
0.000173059
0.00147425
0.000251842
0.00169184
-0.000110267
0.000921978
-9.86694e-05
0.00102577
-7.88406e-05
0.00114772
-3.48219e-05
0.00123749
0.00136216
1.605e-05
-5.59249e-05
0.00120873
-4.65271e-05
7.0397e-05
0.00168251
0.000455617
-0.000270432
0.00182072
0.000400222
-0.000199338
7.19418e-05
0.000384764
0.000647247
-1.53499e-05
-0.000561716
0.000231997
-0.000938426
0.0111887
-0.000599097
-0.002634
-0.00228913
-0.00217118
-0.00278716
3.08119e-06
-2.1941e-05
0.00113981
3.43227e-05
4.49701e-05
0.00146741
0.000206773
-0.000205896
0.00168703
0.00023017
-0.000199639
0.000498911
0.000385589
0.000435014
0.000497787
-7.51912e-06
0.000222134
0.00022891
-0.000243743
-4.78893e-06
-0.000235264
0.000238067
0.00104123
0.000751864
0.000239771
-0.000672217
-0.00113048
-2.01811e-05
4.79132e-06
0.00105175
8.96695e-05
1.43671e-05
0.00127464
0.00020817
-9.15541e-05
0.00145711
0.000275448
-3.1092e-05
0.00168816
5.17391e-05
0.00181359
0.000411862
0.0004552
6.98153e-05
-0.000195362
-2.69421e-05
4.68226e-05
0.000974484
-1.53899e-05
2.63779e-05
0.00114055
-4.8311e-05
2.08923e-05
0.001275
-7.26097e-05
-1.93934e-06
0.00146939
-1.33426e-05
0.0016859
-4.66444e-05
0.000864252
-5.01954e-06
0.000975616
2.23643e-05
0.00105268
5.68743e-05
0.00114337
0.00120909
7.2385e-05
-5.93543e-05
0.00118488
5.87515e-05
-2.62586e-05
0.00172294
-0.000404347
-9.33157e-05
0.00234965
-0.000186939
4.74248e-05
0.000169679
0.000181621
0.000367425
0.000376772
-0.000360237
-0.000342062
-0.000298171
-0.000329665
0.00237669
0.000859612
-0.000615977
0.000313386
-0.00293253
0.000111398
-6.35107e-05
0.00108922
0.000169416
-8.33474e-05
0.00146649
-0.000227883
-9.90631e-05
0.0019588
-3.37713e-05
-9.91437e-06
0.000174965
-9.23962e-05
-0.000356958
5.67657e-05
0.000663616
-0.000281042
0.000172561
0.000130865
-0.000271187
0.000240571
8.2313e-06
8.0187e-05
-6.66205e-05
0.000979002
0.000129057
-0.000101436
0.00124386
9.39326e-05
-0.000131388
0.00152456
8.51925e-05
-0.00017053
0.00196565
-3.55385e-05
-0.000228323
0.000175387
-9.74252e-06
-6.61278e-05
0.00235252
-0.000188359
-0.000393781
0.000160907
4.6281e-05
6.73638e-05
-2.49229e-05
0.000893706
0.000101428
-6.80079e-05
0.00107306
8.38503e-05
-8.20456e-05
0.00124323
2.72129e-05
-0.000112364
0.00146786
-7.68369e-05
0.00172414
2.33986e-05
0.000785817
6.52225e-05
0.000895466
6.14111e-05
0.000981103
5.61467e-05
0.00109515
0.00119136
0.000772056
-0.000156952
0.000959429
0.00160206
-0.000293282
0.00118716
0.000403661
-0.000673255
0.00178074
0.000518633
0.00100433
0.000919494
-0.00010042
0.000850716
-0.000909883
4.73038e-05
6.4117e-05
0.000211692
0.000242026
0.00415116
-0.000224843
8.01048e-05
-0.000223869
-0.00378354
0.000572759
-0.000168316
0.000882879
0.00108652
-0.000387242
0.00104669
0.00171759
-0.000748139
0.0014026
0.000480669
-0.0017139
0.00169778
0.000309314
0.000491041
0.000501396
0.00101433
0.000316188
0.00102063
0.000502181
-0.000646168
-0.0010837
-0.000526173
-0.000646004
0.00016454
-0.00073399
0.00104062
0.000327823
0.000311881
0.000537844
-0.000379274
7.85286e-05
1.59065e-05
0.000166499
3.29849e-05
-0.000374798
-0.000341925
-0.000365974
0.000341899
-0.000159282
0.000798187
0.000579163
-0.000341757
0.000961111
0.000756299
-0.000575745
0.00117503
0.000686708
-0.00108595
0.0014073
-0.00160161
0.00178988
0.000520103
0.000405344
0.000915685
0.00100201
0.000229031
-8.92783e-05
0.000742526
0.000342388
-0.00022763
0.000845572
0.000388194
-0.000338561
0.000960243
0.000293531
-0.000570372
0.00104695
-0.000770121
0.001184
9.15011e-05
0.000650117
0.000162453
0.000743554
0.000172822
0.000799071
0.000161975
0.000886263
0.000962908
0.00107058
-0.000231156
0.000587128
0.00206221
-0.000367134
0.000565421
0.00431808
-0.00104467
0.000570513
0.00277388
-0.00275699
-0.00221541
0.00232105
0.00236801
0.00179964
-0.000317821
0.000727868
-9.52405e-05
-0.000281416
0.00234838
0.00250051
-0.00226597
-0.00788067
0.00316773
0.00210792
0.00279036
0.000728759
-0.000270478