/*--------------------------------*- C++ -*----------------------------------*\
| =========                 |                                                 |
| \\      /  F ield         | OpenFOAM: The Open Source CFD Toolbox           |
|  \\    /   O peration     | Version:  5.x                                   |
|   \\  /    A nd           | Web:      www.OpenFOAM.org                      |
|    \\/     M anipulation  |                                                 |
\*---------------------------------------------------------------------------*/
FoamFile
{
    version     2.0;
    format      ascii;
    class       volScalarField;
    location    "0.084";
    object      interFace;
}
// * * * * * * * * * * * * * * * * * * * * * * * * * * * * * * * * * * * * * //

dimensions      [0 0 0 0 0 0 0];

internalField   nonuniform List<scalar> 
1560
(
0
0
0
0
0
0
0
0
0
0
0
0
0
0
0
0
0
0
0
0
0
0
0
0
0
0
0
0
0
0
0
0
0
0
0
0
0
0
0
0
0
0
0
0
0
0
0
0
0
0
0
0
0
0
0
0
0
0
0
0
0
0
0
0
0
0
0
0
0
0
0
0
0
0
0
0
0
0
0
0
0
0
0
0
0
0
0
0
0
0
0
0
0
0
0
0
0
0
0
0
0
0
0
0
0
0
0
0
0
0
0
0
0
0
0
0
0
0
0
0
0
0
0
0
0
0
0
0
0
0
0
0
0
0
0
0
0
0
0
0
0
0
0
0
0
0
0
0
0
0
0
0
0
0
0
0
0
0
0
0
0
0
0
0
0
0
0
0
0
0
0
0
0
0
0
0
0
0
0
0
0
0
0
0
0
0
0
0
0
0
0
0
0
0
0
0
0
0
0
0
0
0
0
0
0
0
0
0
0
0
0
0
0
0
0
0
0
0
0
0
0
0
0
0
0
0
0
0
0
0
0
0
0
0
0
0
0
0
0
0
0
0
0
0
0
0
0
0
0
0
0
0
0
0
0
0
0
0
0
0
0
0
0
0
0
0
0
0
0
0
0
0
0
0
0
0
0
0
0
0
0
0
0
0
0
0
0
0
0
0
0
0
0
0
0
0
0
0
0
0
0
0
0
0
0
0
0
0
0
0
0
0
0
0
0
0
0
0
0
0
0
0
0
0
0
0
0
0
0
0
0
0
0
0
0
0
0
0
0
0
0
0
0
0
0
0
0
0
0
0
0
0
0
0
0
0
0
0
0
0
0
0
0
0
0
0
0
0
0
0
0
0
0
0
0
0
0
0
0
0
0
0
0
0
0
0
0
0
0
0
0
0
0
0
0
0
0
0
0
0
0
0
0
0
0
0
0
0
0
0
0
0
0
0
0
0
0
0
0
0
0
0
0
0
0
0
0
0
0
0
0
0
0
0
0
0
0
0
0
0
0
0
0
0
0
0
0
0
0
0
0
0
0
0
0
0
0
0
0
0
0
0
0
0
0
0
0
0
0
0
0
0
0
0
0
0
0
0
0
0
0
0
0
0
0
0
0
0
0
0
0
0
0
0
0
0
0
0
0
0
0
0
0
0
0
0
0
0
0
0
0
0
0
0
0
0
0
0
0
0
0
0
0
0
0
0
0
0
0
0
0
0
0
0
0
0
0
0
0
0
0
0
0
0
0
0
0
0
0
0
0
0
0
0
0
0
0
0
0
0
0
0
0
0
0
0
0
0
0
0
0
0
0
0
0
0
0
0
0
0
0
0
0
0
0
0
0
0
0
0
0
0
0
0
0
0
0
0
0
0
0
0
0
0
0
0
0
0
0
0
0
0
0
0
0
0
0
0
0
0
0
0
0
0
0
0.859892
0
0
0
0
0
0
0
0
0
0
0
0
0
0
0
0
0
0
0
0
0
0
0
0
0.154753
0.603247
0
0
0
0.603247
0
0
0
0
0
0
0
0
0
0
0
0
0
0
0
0
0
0
0
0.059687
0.508182
0
0
0
0.508182
0
0
0
0
0
0
0
0
0
0
0
0
0
0
0
0
0
0
0
0.843619
0
0
0
0
0
0
0
0
0
0
0
0
0
0
0
0
0
0
0
0
0
0
0
0
0.3606
0.849414
0
0
0
0.849426
0
0
0
0
0
0
0
0
0
0
0
0
0
0
0
0
0
0
0
0.0113127
0.459702
0
0
0
0.459714
0
0
0
0
0
0
0
0
0
0
0
0
0
0
0
0
0
0
0
0.379154
0
0
0
0
0
0
0
0
0
0
0
0
0
0
0
0
0
0
0
0
0
0
0
0
0
0
0
0
0
0
0
0
0
0
0
0
0
0
0
0
0
0
0
0
0
0
0
0
0
0
0
0
0
0
0
0
0
0
0
0
0
0
0
0
0
0
0
0
0
0
0
0
0
0
0
0
0
0
0
0
0
0
0
0
0
0
0
0
0
0
0
0
0
0
0
0
0
0
0
0
0
0
0
0
0
0
0
0
0
0
0
0
0
0
0
0
0
0
0
0
0
0
0
0
0
0
0
0
0
0
0
0
0
0
0
0
0
0
0
0
0
0
0
0
0
0
0
0
0
0
0
0
0
0
0
0
0
0
0
0
0
0
0
0
0
0
0
0
0
0
0
0
0
0
0
0
0
0
0
0
0
0
0
0
0
0
0
0
0
0
0
0
0
0
0
0
0
0
0
0
0
0
0
0
0
0
0
0
0
0
0
0
0
0
0
0
0
0
0
0
0
0
0
0
0.280374
0.280383
0.549444
0.219963
0.489024
0.489033
0.758095
0.648215
0.648224
0.917286
0
0
0
0
0.629661
0.62967
0.898731
0.0314037
0.300465
0.300474
0.569535
0
0
0
0.71013
0.889504
0.88951
0
0
0
0
0
0
0
0
0
0
0
0
0
0
0
0.328827
0.328827
0.597967
0.459004
0.728144
0.728144
0.997284
0.672902
0.424021
0.424024
0.583166
0.46889
0.628032
0.628035
0.762589
0.513708
0.693085
0.852227
0.558577
0.897097
0.71772
0.762592
0.513714
0.693091
0.852236
0.55858
0.897103
0.717725
0.503896
0.503896
0.548789
0.370863
0.281077
0.32597
0.32597
0
0.849477
0
0.936261
0
0
0
0.849477
0
0
0.936262
0
0
0
0.59361
0.773037
0.638503
0.460577
0.550218
0.59511
0.415684
0.59361
0.773037
0.638503
0.460577
0.550218
0.595111
0.415684
0.852279
0.782775
0.782778
0
0.648267
0.986787
0.98679
0.86275
0.86275
0.728216
0.55029
0.819358
0.684824
0.684824
0.195328
0.105592
0.26483
0.264833
0.309699
0.150459
0.150462
0
0.728772
0
0.668352
0
0.908249
0
0.728775
0
0
0.668364
0.908255
0
0
0.285016
0.374654
0.354517
0.533894
0.419523
0.399386
0.240146
0.285019
0.374663
0.354523
0.5339
0.419529
0.399389
0.240152
0.423893
0.423893
0.693033
0.0162226
0.285363
0.285363
0.554503
0.237758
0.10458
0.10458
0.147972
0.149473
0.192865
0.192865
0.327471
0.194293
0.37372
0.417112
0.239186
0.462005
0.282578
0.327471
0.194293
0.37372
0.417112
0.239186
0.462005
0.282578
0.374706
0.643724
0.623584
0.623587
0.509213
0.509216
0.489076
0.417185
0.463433
0.463434
0.686252
0.3289
0.551718
0.551719
0.125778
0.0561793
0.0561822
0.0360423
0.101049
0.0809088
0.0809118
0.215465
0.145866
0.325244
0.305104
0.190736
0.349973
0.170596
0.215468
0.145872
0.32525
0.305112
0.190739
0.349979
0.170602
0.553982
0.892501
0.713222
0.598851
0.937371
0.823
0.778131
0.553994
0.713231
0.892516
0.59886
0.937383
0.823012
0.778145
0.0611154
0.0611155
0.106008
0.107364
0.0175787
0.0624716
0.0624716
0
0.854902
0
0.464717
0
0.733857
0
0.854902
0
0
0.464717
0.733858
0
0
0.553074
0.596467
0.641359
0.865534
0.732357
0.777249
0.820642
0.553075
0.596467
0.64136
0.865535
0.732357
0.77725
0.820642
0.150829
0.330256
0.195722
0.197078
0.286719
0.331612
0.152185
0.150829
0.330256
0.195722
0.197078
0.286719
0.331612
0.152185
0.305156
0.414934
0.414937
0.574174
0.280426
0.439663
0.439666
0.419969
0.419969
0.285435
0.286791
0.555859
0.421325
0.421325
0.0762703
0.0762732
0.12114
0.186051
0.0963152
0.141182
0.141185
0
0
0
0.479793
0
0.748863
0
0
0
0
0.479805
0.748866
0
0
0.683851
0.504572
0.484432
0.72872
0.529301
0.75345
0.70858
0.504581
0.683866
0.484444
0.728732
0.52931
0.753462
0.708595
0.165957
0.345335
0.210827
0.275738
0.365377
0.410246
0.230869
0.165963
0.34534
0.21083
0.275741
0.365385
0.410252
0.230875
0
0
0
0.29057
0.55971
0.559711
0.828851
0.153541
0.199645
0.199645
0.0637554
0.244538
0.108648
0.108648
0.435025
0.435028
0.300517
0.365429
0.634447
0.499936
0.499939
0.243254
0.289359
0.468786
0.332895
0.334252
0.377788
0.198362
0.243255
0.289359
0.468786
0.332896
0.334252
0.377789
0.198362
0.50961
0.688892
0.733785
0.466073
0.510966
0.735141
0.690248
0.50961
0.688893
0.733785
0.466074
0.510966
0.735141
0.690249
0
0
0
0
0
0
0
0.332968
0.558499
0.558499
0.602036
0.423965
0.467502
0.467502
0.594262
0.952921
0.753502
0.818411
0.618991
0.84314
0.977651
0.594268
0.952927
0.753505
0.818419
0.618997
0.843149
0.977657
0.295783
0.405466
0.405469
0.206047
0.450336
0.250914
0.250917
0.38547
0.495154
0.674531
0.475109
0.540023
0.519978
0.340601
0.385473
0.49516
0.674537
0.475118
0.540026
0.519984
0.340607
0.703942
0.524663
0.748811
0.544705
0.589574
0.813723
0.768853
0.524672
0.703957
0.748823
0.544717
0.589583
0.813735
0.768868
0.335463
0.335463
0.380356
0.560994
0.471209
0.516101
0.516101
0
0
0
0.94711
0
0
0
0
0
0
0.947111
0
0
0
0.64814
0.51225
0.557143
0.781318
0.827422
0.872315
0.736425
0.64814
0.51225
0.557143
0.781318
0.827422
0.872315
0.736425
0.475161
0.764221
0.764224
0.744179
0.629713
0.609668
0.609671
0.425176
0.604603
0.470069
0.650708
0.740349
0.785242
0.605815
0.425177
0.604603
0.470069
0.650708
0.740349
0.785242
0.605815
0
0
0
0
0
0
0
0.599324
0.958032
0.823498
0.735214
0.60068
0.824855
0.959389
0.599324
0.958033
0.823499
0.735214
0.60068
0.824855
0.959389
0.694317
0.694317
0.559783
0.740421
0
0.874955
0.874955
0
0
0
0
0
0
0
0.614353
0.973012
0.838502
0.813775
0.679264
0.903413
0
0.614359
0.973018
0.83851
0.813778
0.67927
0.903422
0
)
;

boundaryField
{
    inlet
    {
        type            calculated;
        value           uniform 0;
    }
    wall
    {
        type            calculated;
        value           uniform 0;
    }
    outlet
    {
        type            calculated;
        value           uniform 0;
    }
    procBoundary3to1
    {
        type            processor;
        value           uniform 0;
    }
    procBoundary3to2
    {
        type            processor;
        value           uniform 0;
    }
}


// ************************************************************************* //
