/*--------------------------------*- C++ -*----------------------------------*\
| =========                 |                                                 |
| \\      /  F ield         | OpenFOAM: The Open Source CFD Toolbox           |
|  \\    /   O peration     | Version:  5.x                                   |
|   \\  /    A nd           | Web:      www.OpenFOAM.org                      |
|    \\/     M anipulation  |                                                 |
\*---------------------------------------------------------------------------*/
FoamFile
{
    version     2.0;
    format      ascii;
    class       surfaceScalarField;
    location    "0.084";
    object      phi;
}
// * * * * * * * * * * * * * * * * * * * * * * * * * * * * * * * * * * * * * //

dimensions      [0 3 -1 0 0 0 0];

internalField   nonuniform List<scalar> 
4324
(
-5.47591e-08
-5.52696e-08
-2.51069e-07
7.41182e-08
-6.33213e-08
-2.54988e-07
1.78107e-07
-7.79302e-08
-2.29879e-07
2.62003e-07
-8.34374e-08
-2.09949e-07
-9.81876e-08
-8.92087e-08
-6.28312e-08
7.34484e-08
-2.54827e-07
6.62166e-08
6.55362e-08
-2.57898e-07
1.70947e-07
5.06121e-08
-2.33258e-07
2.55336e-07
4.50619e-08
-2.12872e-07
2.93892e-08
-9.38514e-08
-7.7424e-08
1.7725e-07
-2.29698e-07
5.12873e-08
1.70053e-07
-2.33214e-07
1.57008e-07
1.56133e-07
-2.11226e-07
2.42488e-07
1.50888e-07
-1.9129e-07
1.35825e-07
-7.66595e-08
-8.296e-08
2.60907e-07
-2.0969e-07
4.57353e-08
2.54208e-07
-2.12834e-07
1.51774e-07
2.41374e-07
-1.91262e-07
2.37501e-07
2.36379e-07
-1.71201e-07
2.22395e-07
-5.8262e-08
-9.77099e-08
-8.91859e-08
3.0059e-08
-9.40605e-08
1.36705e-07
-7.68769e-08
2.23513e-07
-5.85087e-08
4.83949e-08
-9.94095e-08
-9.87971e-08
-3.04081e-07
-7.59193e-08
-1.04714e-07
-3.04655e-07
-8.09828e-08
-1.12053e-07
-2.50812e-07
-7.32305e-08
-1.16237e-07
-2.43609e-07
-1.22011e-07
-1.44784e-07
-1.0531e-07
-7.52497e-08
-3.04529e-07
-8.1415e-08
-8.07656e-08
-3.05725e-07
-8.53868e-08
-8.7803e-08
-2.53515e-07
-7.61325e-08
-9.16796e-08
-2.46662e-07
-9.67832e-08
-1.49324e-07
-1.12674e-07
-8.03025e-08
-2.50617e-07
-8.84847e-08
-8.46979e-08
-2.5345e-07
-9.14525e-08
-9.07502e-08
-2.05288e-07
-8.09024e-08
-9.38369e-08
-1.99659e-07
-9.80151e-08
-1.06596e-07
-1.16838e-07
-7.25622e-08
-2.43329e-07
-9.23744e-08
-7.54602e-08
-2.46513e-07
-9.45647e-08
-8.02313e-08
-1.99568e-07
-8.30747e-08
-8.23824e-08
-1.94122e-07
-8.57169e-08
-1.02213e-07
-1.2262e-07
-1.4443e-07
-9.74856e-08
-1.49106e-07
-9.87693e-08
-1.06422e-07
-8.64337e-08
-1.02136e-07
-1.47146e-08
-5.35599e-08
-5.3835e-08
-5.51414e-07
6.99427e-08
-6.27995e-08
-5.52107e-07
1.47794e-07
-7.91086e-08
-4.52244e-07
2.14795e-07
-8.50838e-08
-4.34133e-07
-1.00549e-07
-2.48318e-07
-6.25242e-08
6.95813e-08
-5.51893e-07
6.12799e-08
6.09131e-08
-5.53221e-07
1.40188e-07
4.45033e-08
-4.56013e-07
2.08328e-07
3.85687e-08
-4.38432e-07
2.28178e-08
-2.55501e-07
-7.88362e-08
1.4732e-07
-4.51934e-07
4.48665e-08
1.39704e-07
-4.55921e-07
1.24932e-07
1.24459e-07
-3.65287e-07
1.94587e-07
1.19083e-07
-3.49806e-07
1.03739e-07
-1.74348e-07
-8.48138e-08
2.14149e-07
-4.33672e-07
3.89379e-08
2.07668e-07
-4.38207e-07
1.19561e-07
1.93947e-07
-3.49655e-07
1.89914e-07
1.89264e-07
-3.34633e-07
1.75337e-07
-1.61693e-07
-1.0029e-07
-2.47864e-07
2.31774e-08
-2.55301e-07
1.04208e-07
-1.74184e-07
1.75984e-07
-1.617e-07
2.31238e-09
-6.08815e-08
-6.02261e-08
-7.53637e-07
3.97538e-08
-6.7996e-08
-7.53762e-07
9.84259e-08
-8.22478e-08
-6.10851e-07
1.5307e-07
-8.77102e-08
-5.88402e-07
-1.01467e-07
-3.4128e-07
-6.86377e-08
4.03894e-08
-7.53525e-07
3.19931e-08
3.26155e-08
-7.54439e-07
9.14871e-08
1.79364e-08
-6.15668e-07
1.47178e-07
1.2502e-08
-5.94312e-07
-2.0585e-09
-3.51275e-07
-8.29044e-08
9.89421e-08
-6.10419e-07
1.73041e-08
9.19951e-08
-6.15486e-07
7.7718e-08
7.82403e-08
-4.8598e-07
1.35061e-07
7.32824e-08
-4.67905e-07
5.92049e-08
-2.35191e-07
-8.83586e-08
1.53419e-07
-5.87773e-07
1.18845e-08
1.47501e-07
-5.93931e-07
7.27647e-08
1.35436e-07
-4.67707e-07
1.30835e-07
1.31187e-07
-4.50582e-07
1.18549e-07
-2.21413e-07
-1.02146e-07
-3.40477e-07
-2.7917e-09
-3.50708e-07
5.86629e-08
-2.34852e-07
1.18193e-07
-2.21258e-07
-4.17149e-09
-2.56962e-08
-2.5528e-08
-1.11942e-06
1.54004e-07
-3.73412e-08
-1.11674e-06
2.57645e-07
-6.11436e-08
-8.96233e-07
3.45636e-07
-6.94898e-08
-8.57683e-07
-9.27723e-08
-4.87385e-07
-3.7509e-08
1.54128e-07
-1.11645e-06
1.41941e-07
1.42051e-07
-1.11325e-06
2.47088e-07
1.17115e-07
-8.99047e-07
3.36509e-07
1.08666e-07
-8.61861e-07
8.35209e-08
-4.97629e-07
-6.1319e-08
2.57622e-07
-8.9564e-07
1.16999e-07
2.47051e-07
-8.98777e-07
2.23246e-07
2.23222e-07
-6.98308e-07
3.14798e-07
2.15386e-07
-6.66149e-07
1.90444e-07
-3.1796e-07
-6.96623e-08
3.45399e-07
-8.56816e-07
1.08559e-07
3.36261e-07
-8.61335e-07
2.15419e-07
3.14564e-07
-6.65881e-07
3.07875e-07
3.07631e-07
-6.35255e-07
2.84575e-07
-2.92648e-07
-9.2954e-08
-4.863e-07
8.34119e-08
-4.96881e-07
1.90468e-07
-3.17485e-07
2.84815e-07
-2.92444e-07
3.07883e-08
6.70002e-09
7.81157e-09
-1.58358e-06
2.31615e-07
-7.508e-09
-1.57177e-06
3.6022e-07
-3.27604e-08
-1.25365e-06
4.67914e-07
-4.2135e-08
-1.19323e-06
-6.87699e-08
-6.61587e-07
-8.49331e-09
2.32602e-07
-1.57134e-06
2.17565e-07
2.18483e-07
-1.56527e-06
3.47936e-07
1.90479e-07
-1.25263e-06
4.56838e-07
1.8082e-07
-1.19369e-06
1.51581e-07
-6.71191e-07
-3.36852e-08
3.60968e-07
-1.25285e-06
1.8954e-07
3.48653e-07
-1.25214e-06
3.20564e-07
3.21293e-07
-9.60115e-07
4.3222e-07
3.12013e-07
-9.08965e-07
2.82495e-07
-4.08368e-07
-4.30633e-08
4.68373e-07
-1.19208e-06
1.799e-07
4.57285e-07
-1.1929e-06
3.11293e-07
4.3267e-07
-9.08618e-07
4.23887e-07
4.24328e-07
-8.60129e-07
3.97091e-07
-3.6806e-07
-6.97312e-08
-6.60012e-07
1.50644e-07
-6.69989e-07
2.81764e-07
-4.07613e-07
3.96646e-07
-3.67657e-07
9.6969e-08
6.83536e-08
6.91819e-08
-2.27021e-06
3.93654e-07
5.0861e-08
-2.24122e-06
5.74579e-07
6.15493e-09
-1.7704e-06
7.20846e-07
-1.24618e-08
-1.6697e-06
-5.15352e-08
-9.02122e-07
5.0037e-08
3.94442e-07
-2.24071e-06
3.76067e-07
3.76917e-07
-2.21731e-06
5.595e-07
3.29528e-07
-1.75939e-06
7.04635e-07
3.13272e-07
-1.66452e-06
2.64853e-07
-9.08579e-07
5.0871e-09
5.75211e-07
-1.76921e-06
3.28656e-07
5.60054e-07
-1.75881e-06
5.13125e-07
5.13731e-07
-1.32875e-06
6.62691e-07
4.98626e-07
-1.24384e-06
4.48325e-07
-5.23349e-07
-1.33234e-08
7.21137e-07
-1.66813e-06
3.12451e-07
7.04902e-07
-1.66348e-06
4.98042e-07
6.62974e-07
-1.24341e-06
6.4943e-07
6.49701e-07
-1.16255e-06
6.02085e-07
-4.55671e-07
-5.23417e-08
-9.00014e-07
2.64022e-07
-9.06862e-07
4.47723e-07
-5.22308e-07
6.01807e-07
-4.55079e-07
2.07799e-07
1.67103e-07
1.68811e-07
-3.24557e-06
6.26434e-07
1.44969e-07
-3.18645e-06
8.80406e-07
9.64466e-08
-2.50377e-06
1.07334e-06
8.12639e-08
-2.34033e-06
2.74484e-08
-1.22809e-06
1.43309e-07
6.28157e-07
-3.18587e-06
6.0137e-07
6.03064e-07
-3.13342e-06
8.56222e-07
5.4917e-07
-2.46692e-06
1.05285e-06
5.30345e-07
-2.31017e-06
4.71204e-07
-1.21896e-06
9.47827e-08
8.8181e-07
-2.50221e-06
5.47445e-07
8.57627e-07
-2.46599e-06
8.02876e-07
8.04294e-07
-1.83925e-06
1.0033e-06
7.85223e-07
-1.6991e-06
7.23902e-07
-6.5549e-07
7.96441e-08
1.07428e-06
-2.33825e-06
5.28648e-07
1.05392e-06
-2.30873e-06
7.83827e-07
1.00431e-06
-1.69856e-06
9.85416e-07
9.86396e-07
-1.56526e-06
9.29105e-07
-5.43086e-07
2.54713e-08
-1.22499e-06
4.69413e-07
-1.21659e-06
7.22467e-07
-6.54013e-07
9.28116e-07
-5.42162e-07
4.17586e-07
3.09671e-07
3.11575e-07
-4.636e-06
9.55587e-07
2.77022e-07
-4.52355e-06
1.30412e-06
1.98599e-07
-3.5259e-06
1.55731e-06
1.72391e-07
-3.2601e-06
9.32061e-08
-1.66121e-06
2.75175e-07
9.57552e-07
-4.52287e-06
9.18408e-07
9.20333e-07
-4.4199e-06
1.26774e-06
8.27865e-07
-3.44545e-06
1.52267e-06
7.97189e-07
-3.18985e-06
6.9376e-07
-1.61882e-06
1.96724e-07
1.30574e-06
-3.52384e-06
8.25908e-07
1.26934e-06
-3.44411e-06
1.17429e-06
1.17591e-06
-2.53562e-06
1.43426e-06
1.1444e-06
-2.30622e-06
1.03385e-06
-8.16331e-07
1.70584e-07
1.55844e-06
-3.25739e-06
7.95267e-07
1.52386e-06
-3.18787e-06
1.1428e-06
1.43543e-06
-2.30554e-06
1.40474e-06
1.40589e-06
-2.08863e-06
1.29875e-06
-6.33826e-07
9.13209e-08
-1.65707e-06
6.91795e-07
-1.61548e-06
1.03223e-06
-8.14294e-07
1.29759e-06
-6.32475e-07
7.17744e-07
5.55151e-07
5.58304e-07
-6.67163e-06
1.48454e-06
5.1503e-07
-6.46286e-06
1.98765e-06
4.21314e-07
-5.01755e-06
2.3285e-06
3.87025e-07
-4.57698e-06
2.87936e-07
-2.26544e-06
5.11992e-07
1.4879e-06
-6.46212e-06
1.43699e-06
1.44025e-06
-6.27004e-06
1.94064e-06
1.33354e-06
-4.86125e-06
2.28477e-06
1.29121e-06
-4.43808e-06
1.16911e-06
-2.17161e-06
4.1818e-07
1.99058e-06
-5.01479e-06
1.3302e-06
1.94349e-06
-4.85928e-06
1.83049e-06
1.8334e-06
-3.5357e-06
2.18355e-06
1.78858e-06
-3.15658e-06
1.65548e-06
-1.00019e-06
3.83978e-07
2.33088e-06
-4.57345e-06
1.28794e-06
2.28708e-06
-4.43536e-06
1.78575e-06
2.18586e-06
-3.15574e-06
2.14106e-06
2.14333e-06
-2.79862e-06
2.01908e-06
-7.01869e-07
2.84853e-07
-2.25977e-06
1.16577e-06
-2.16673e-06
1.65258e-06
-9.97281e-07
2.01679e-06
-6.99817e-07
1.25086e-06
9.13065e-07
9.16584e-07
-9.60636e-06
2.22772e-06
8.5313e-07
-9.23031e-06
2.92183e-06
6.91678e-07
-7.10969e-06
3.35333e-06
6.3513e-07
-6.38106e-06
4.57281e-07
-3.04474e-06
8.49733e-07
2.23156e-06
-9.22951e-06
2.15361e-06
2.1574e-06
-8.8781e-06
2.84547e-06
1.95287e-06
-6.81422e-06
3.28211e-06
1.88041e-06
-6.11992e-06
1.64052e-06
-2.85808e-06
6.88211e-07
2.92519e-06
-7.10607e-06
1.94903e-06
2.84881e-06
-6.81143e-06
2.63251e-06
2.63589e-06
-4.90211e-06
3.07754e-06
2.557e-06
-4.27811e-06
2.29375e-06
-1.20665e-06
6.31767e-07
3.35612e-06
-6.37652e-06
1.87664e-06
3.28491e-06
-6.11624e-06
2.55366e-06
3.08032e-06
-4.27711e-06
3.00298e-06
3.00576e-06
-3.69663e-06
2.74986e-06
-7.26174e-07
4.53941e-07
-3.03725e-06
1.63672e-06
-2.85129e-06
2.29038e-06
-1.20269e-06
2.74708e-06
-7.23225e-07
1.9971e-06
1.49987e-06
1.50564e-06
-1.39489e-05
3.39472e-06
1.41623e-06
-1.32623e-05
4.41222e-06
1.2325e-06
-1.02016e-05
4.98199e-06
1.15223e-06
-8.97893e-06
9.44177e-07
-4.15505e-06
1.41075e-06
3.40127e-06
-1.32616e-05
3.28827e-06
3.29463e-06
-1.26339e-05
4.30487e-06
3.0772e-06
-9.67542e-06
4.88235e-06
2.96696e-06
-8.51205e-06
2.69787e-06
-3.81597e-06
1.22678e-06
4.41823e-06
-1.01968e-05
3.07066e-06
4.31073e-06
-9.67133e-06
4.06743e-06
4.0734e-06
-6.89499e-06
4.6647e-06
3.95105e-06
-5.85938e-06
3.64516e-06
-1.41866e-06
1.14672e-06
4.98734e-06
-8.97301e-06
2.96061e-06
4.88765e-06
-8.50696e-06
3.94524e-06
4.66993e-06
-5.85818e-06
4.548e-06
4.55313e-06
-4.90138e-06
4.27212e-06
-6.40627e-07
9.38486e-07
-4.1446e-06
2.69129e-06
-3.80605e-06
3.63918e-06
-1.41299e-06
4.26693e-06
-6.36163e-07
3.27763e-06
2.42192e-06
2.42776e-06
-2.04019e-05
5.17138e-06
2.29979e-06
-1.91889e-05
6.60092e-06
1.94329e-06
-1.46412e-05
7.25295e-06
1.7998e-06
-1.25464e-05
1.38564e-06
-5.54332e-06
2.29419e-06
5.1782e-06
-1.91883e-05
5.00362e-06
5.0104e-06
-1.80539e-05
6.40671e-06
4.52012e-06
-1.36553e-05
7.07454e-06
4.32195e-06
-1.17019e-05
3.73454e-06
-4.92446e-06
1.93759e-06
6.60713e-06
-1.4635e-05
4.51323e-06
6.41297e-06
-1.36494e-05
5.88722e-06
5.89354e-06
-9.64232e-06
6.58152e-06
5.66599e-06
-7.89765e-06
5.00762e-06
-1.57488e-06
1.79436e-06
7.25857e-06
-1.2539e-05
4.31522e-06
7.08037e-06
-1.16951e-05
5.65973e-06
6.58726e-06
-7.89633e-06
6.3694e-06
6.37518e-06
-6.32017e-06
5.74515e-06
-3.13e-07
1.38027e-06
-5.52981e-06
3.72777e-06
-4.9109e-06
5.00131e-06
-1.56735e-06
5.73938e-06
-3.06736e-07
5.10328e-06
3.91631e-06
3.92662e-06
-3.01751e-05
7.88286e-06
3.68517e-06
-2.78854e-05
9.96967e-06
3.28536e-06
-2.12557e-05
1.07628e-05
3.04782e-06
-1.76831e-05
2.56728e-06
-7.48218e-06
3.67568e-06
7.8956e-06
-2.78857e-05
7.56434e-06
7.57671e-06
-2.5834e-05
9.66426e-06
7.09613e-06
-1.95659e-05
1.0482e-05
6.74044e-06
-1.62123e-05
6.08909e-06
-6.42675e-06
3.27519e-06
9.982e-06
-2.12475e-05
7.08333e-06
9.67637e-06
-1.95572e-05
9.10405e-06
9.1163e-06
-1.36831e-05
9.97592e-06
8.71781e-06
-1.07468e-05
7.95211e-06
-1.58745e-06
3.03817e-06
1.07746e-05
-1.76736e-05
6.72805e-06
1.0494e-05
-1.62026e-05
8.70591e-06
9.98751e-06
-1.07453e-05
9.60704e-06
9.61848e-06
-8.12192e-06
8.93898e-06
4.5602e-07
2.55717e-06
-7.46304e-06
6.07602e-06
-6.40613e-06
7.93974e-06
-1.57638e-06
8.92744e-06
4.657e-07
8.20024e-06
7.15678e-06
7.16502e-06
-4.67639e-05
1.30156e-05
6.60338e-06
-4.16155e-05
1.57901e-05
5.4855e-06
-3.11171e-05
1.61353e-05
4.88259e-06
-2.45816e-05
3.82076e-06
-9.65944e-06
6.59621e-06
1.30265e-05
-4.1618e-05
1.23533e-05
1.23643e-05
-3.73518e-05
1.50937e-05
1.08787e-05
-2.76995e-05
1.55627e-05
1.01227e-05
-2.19213e-05
8.56763e-06
-7.76889e-06
5.47787e-06
1.58008e-05
-3.11079e-05
1.08674e-05
1.51047e-05
-2.7687e-05
1.36393e-05
1.36504e-05
-1.92267e-05
1.43052e-05
1.28157e-05
-1.41056e-05
1.10567e-05
-1.03769e-06
4.87513e-06
1.61456e-05
-2.45703e-05
1.01116e-05
1.55739e-05
-2.19082e-05
1.28048e-05
1.4316e-05
-1.41041e-05
1.35918e-05
1.36028e-05
-9.69597e-06
1.20117e-05
2.29372e-06
3.81354e-06
-9.63566e-06
8.55645e-06
-7.74115e-06
1.10457e-05
-1.02345e-06
1.20007e-05
2.3068e-06
1.28958e-05
1.39631e-05
1.39849e-05
-7.81262e-05
2.31734e-05
1.2145e-05
-6.46119e-05
2.56781e-05
1.00618e-05
-4.54478e-05
2.45824e-05
8.69946e-06
-3.40165e-05
6.97181e-06
-1.22007e-05
1.21273e-05
2.32019e-05
-6.46181e-05
2.0687e-05
2.07127e-05
-5.44792e-05
2.37743e-05
1.84906e-05
-3.92155e-05
2.35009e-05
1.62925e-05
-2.92408e-05
1.41036e-05
-8.85124e-06
1.00432e-05
2.57024e-05
-4.54316e-05
1.84643e-05
2.37982e-05
-3.91936e-05
2.19237e-05
2.19482e-05
-2.61437e-05
2.20213e-05
2.00448e-05
-1.79554e-05
1.76895e-05
7.16498e-07
8.6829e-06
2.46082e-05
-3.40033e-05
1.6268e-05
2.35279e-05
-2.9223e-05
2.00203e-05
2.20468e-05
-1.79549e-05
2.05897e-05
2.06153e-05
-1.08358e-05
1.87191e-05
6.02009e-06
6.95434e-06
-1.21668e-05
1.4077e-05
-8.80733e-06
1.76636e-05
7.37917e-07
1.86932e-05
6.04122e-06
2.08617e-05
2.29478e-05
2.29612e-05
-0.000127735
4.05922e-05
2.17127e-05
-0.000105985
4.67059e-05
1.83747e-05
-7.25744e-05
3.90719e-05
1.47962e-05
-4.36521e-05
1.10598e-05
-1.33118e-05
2.16992e-05
4.06135e-05
-0.000105994
3.80466e-05
3.80705e-05
-8.71844e-05
4.15625e-05
3.05428e-05
-5.48993e-05
3.61509e-05
2.64685e-05
-3.55015e-05
2.0926e-05
-7.69827e-06
1.8363e-05
4.67212e-05
-7.25508e-05
3.05181e-05
4.15762e-05
-5.48543e-05
3.44181e-05
3.44368e-05
-3.39377e-05
3.22834e-05
3.05888e-05
-1.9941e-05
2.50838e-05
5.77334e-06
1.47872e-05
3.90874e-05
-4.3637e-05
2.64497e-05
3.61691e-05
-3.54783e-05
3.05705e-05
3.23019e-05
-1.99407e-05
2.94025e-05
2.94221e-05
-8.50105e-06
2.51067e-05
1.38034e-05
1.10511e-05
-1.32727e-05
2.09077e-05
-7.64313e-06
2.50652e-05
5.79873e-06
2.50872e-05
1.38298e-05
3.30465e-05
3.11186e-05
3.11548e-05
-0.000193714
5.26859e-05
2.87722e-05
-0.000158327
6.47439e-05
2.59622e-05
-0.000113106
6.08919e-05
2.33885e-05
-6.58881e-05
1.83153e-05
-1.17292e-05
2.87435e-05
5.274e-05
-0.000158347
4.94761e-05
4.95324e-05
-0.000128677
6.17494e-05
4.68727e-05
-8.80833e-05
5.38491e-05
3.99482e-05
-4.41607e-05
3.22253e-05
-3.689e-06
2.59251e-05
6.47985e-05
-0.000113074
4.68122e-05
6.18096e-05
-8.80186e-05
5.29509e-05
5.30018e-05
-4.62055e-05
4.77796e-05
4.54409e-05
-2.02624e-05
3.72331e-05
1.46825e-05
2.33601e-05
6.09417e-05
-6.58632e-05
3.98944e-05
5.39072e-05
-4.41102e-05
4.53944e-05
4.78336e-05
-2.02724e-05
4.26966e-05
4.27528e-05
-3.11514e-06
3.66156e-05
2.57923e-05
1.82777e-05
-1.16743e-05
3.21656e-05
-3.60472e-06
3.71769e-05
1.47162e-05
3.65585e-05
2.58339e-05
4.89922e-05
5.00125e-05
5.0024e-05
-0.000297942
7.54909e-05
4.31729e-05
-0.000229223
8.89428e-05
3.71008e-05
-0.000166831
8.15247e-05
3.20662e-05
-9.36939e-05
2.3328e-05
-1.13868e-05
4.31615e-05
7.55045e-05
-0.000229241
6.70253e-05
6.7043e-05
-0.000176411
8.05887e-05
5.9856e-05
-0.000124402
7.46954e-05
5.5718e-05
-6.19192e-05
4.09336e-05
3.31234e-06
3.70893e-05
8.89596e-05
-0.000166796
5.98381e-05
8.06076e-05
-0.000124332
7.3935e-05
7.39548e-05
-7.44012e-05
6.63968e-05
6.16953e-05
-1.87015e-05
4.75527e-05
2.81651e-05
3.20585e-05
8.15484e-05
-9.36709e-05
5.56999e-05
7.4728e-05
-6.18718e-05
6.16753e-05
6.64214e-05
-1.87144e-05
5.58526e-05
5.58785e-05
8.52441e-06
4.62941e-05
4.13699e-05
2.33224e-05
-1.13237e-05
4.09128e-05
3.41389e-06
4.75265e-05
2.82035e-05
4.6268e-05
4.14105e-05
6.89e-05
7.34461e-05
7.35148e-05
-0.000449744
0.000112576
6.43101e-05
-0.000335314
0.000128291
5.40473e-05
-0.00023997
0.00011433
4.37944e-05
-0.000127082
3.20555e-05
-1.17137e-05
6.42723e-05
0.000112676
-0.00033535
9.86316e-05
9.87335e-05
-0.000245194
0.000114287
8.64945e-05
-0.000172505
0.000103048
7.24599e-05
-7.93449e-05
5.55807e-05
1.08719e-05
5.39805e-05
0.000128392
-0.000239921
8.63842e-05
0.000114389
-0.000172391
0.000101453
0.000101555
-0.00010453
9.10735e-05
8.46267e-05
-2.0489e-05
6.91805e-05
3.93324e-05
4.37477e-05
0.00011445
-0.000127064
7.23604e-05
0.000103196
-7.92914e-05
8.45361e-05
9.11944e-05
-2.05293e-05
7.79894e-05
7.81065e-05
2.15913e-05
6.88941e-05
6.08909e-05
3.19837e-05
-1.161e-05
5.54582e-05
1.1042e-05
6.9066e-05
3.9384e-05
6.8775e-05
6.09563e-05
9.91079e-05
0.000153554
0.000153569
-0.000763078
0.00020708
0.000119482
-0.000511482
0.000214273
9.72705e-05
-0.000349379
0.000169556
6.95311e-05
-0.000156916
5.12502e-05
-9.3161e-06
0.000119458
0.000207093
-0.0005115
0.000165632
0.000165656
-0.000337541
0.000178709
0.000140193
-0.000228504
0.000146117
0.000105404
-8.26265e-05
8.64172e-05
2.4914e-05
9.7261e-05
0.000214284
-0.000349316
0.000140174
0.00017873
-0.000228379
0.00015465
0.000154675
-0.000133488
0.000132997
0.000123642
-1.70752e-05
0.000102966
6.4961e-05
6.95259e-05
0.000169579
-0.000156894
0.000105389
0.000146151
-8.2575e-05
0.000123617
0.000133028
-1.71102e-05
0.00011163
0.00011167
4.55499e-05
9.60207e-05
0.000101811
5.12425e-05
-9.18339e-06
8.64138e-05
2.50666e-05
0.000102947
6.50192e-05
9.59843e-05
0.000101889
0.000152043
0.000255077
0.000255215
-0.00127996
0.000334718
0.000198072
-0.000792819
0.000335031
0.000151934
-0.000506267
0.000260025
0.000108865
-0.000195697
7.42165e-05
7.90492e-06
0.000198068
0.000334918
-0.000792887
0.000263123
0.000263324
-0.000467848
0.000273547
0.000216102
-0.000303096
0.000217847
0.000159944
-7.80058e-05
0.000122394
5.41089e-05
0.000151787
0.00033523
-0.00050616
0.000215865
0.000273742
-0.000302875
0.000232577
0.000232806
-0.000166904
0.000191521
0.000177196
6.72857e-06
0.000142458
0.000107846
0.00010881
0.000260267
-0.000195699
0.000159766
0.00021817
-7.79587e-05
0.000177022
0.000191774
6.66509e-06
0.000155159
0.000155392
8.92171e-05
0.000131497
0.000160347
7.4086e-05
8.07935e-06
0.000122143
5.43873e-05
0.000142211
0.000107931
0.000131253
0.000160449
0.000223131
0.000671254
0.000671277
-0.00263262
0.000728217
0.000414332
-0.00126943
0.000618451
0.000303332
-0.000707712
0.000420148
0.000178946
-0.000183637
0.000134258
5.71749e-05
0.00041428
0.000728218
-0.00126943
0.000488079
0.000488104
-0.000615419
0.000453839
0.000380981
-0.000346505
0.000329563
0.000246127
-2.09109e-05
0.00019213
0.00014001
0.000303341
0.000618421
-0.000707552
0.000380972
0.000453837
-0.000346239
0.000374814
0.000374826
-0.000154591
0.000289903
0.000269258
6.85083e-05
0.000208751
0.000208539
0.000178961
0.000420117
-0.000183604
0.000246131
0.000329597
-2.08878e-05
0.000269252
0.000289926
6.84437e-05
0.000213793
0.000213826
0.000200107
0.000175484
0.000274403
0.0001343
5.73333e-05
0.000192138
0.000140299
0.000208739
0.000208627
0.000175456
0.000274505
0.000335923
0.00112966
0.00112997
-0.00489801
0.00119108
0.000731442
-0.00206382
0.000971875
0.000476446
-0.000970608
0.000633331
0.000277455
-0.000128704
0.000176716
0.000173333
0.000731787
0.00119153
-0.00206389
0.00077511
0.000775529
-0.000702829
0.000675649
0.000571755
-0.000342352
0.000467419
0.000352599
0.000112174
0.000251658
0.000277362
0.000476039
0.00097223
-0.000970237
0.00057118
0.00067594
-0.000341791
0.000538412
0.00053892
-8.89878e-05
0.000393671
0.000357277
0.000208572
0.000267401
0.000352954
0.000277465
0.000633808
-0.000128798
0.000352269
0.000468051
0.000112196
0.00035699
0.000394174
0.000208468
0.000280035
0.000280459
0.00035388
0.000226657
0.000419943
0.000176406
0.000173524
0.000251192
0.000277698
0.000266908
0.000353092
0.000226192
0.000420029
0.000477814
0.00333757
0.00333796
-0.00385828
-0.00277363
-0.00277269
-0.00219043
0.00291572
0.00156374
-0.00100736
-0.000656222
-0.000869076
-0.000691819
0.00178958
0.00089313
-0.000752282
0.00100767
0.000441529
0.000200829
0.000258737
0.000460906
0.00156314
0.00291569
-0.0010071
-0.00086923
-0.000655441
-0.000691672
0.00146785
0.00146788
-0.000511686
0.00109755
0.000984271
-6.31852e-05
0.000673013
0.000508228
0.000470009
0.000340691
0.000552294
0.00089302
0.00178934
-0.00075143
0.000984211
0.00109744
-6.25364e-05
0.000818209
0.000818194
0.00024309
0.000544634
0.000480465
0.00050991
0.000345642
0.000605708
0.000441576
0.00100754
0.00020076
0.000508249
0.000672916
0.000470045
0.000480524
0.000544571
0.000509817
0.000345846
0.000345796
0.000623227
0.000273189
0.000644338
0.000258792
0.000461157
0.000340731
0.000552565
0.000345702
0.000605791
0.000273242
0.000644407
0.000674983
0.00203336
0.00203389
-0.00178483
-0.00218939
-0.00198071
-0.00198082
-0.00226945
0.00189973
0.000650248
-0.00128617
0.00280245
0.00148553
0.000921694
-0.00139409
-0.00142206
-0.00165217
-0.00149895
0.00143643
0.000602911
0.000961152
0.000320853
0.000974645
-0.00226986
0.000651026
0.00189957
-0.00128612
0.00227194
0.00227225
0.000335738
-0.000743133
-0.000729295
-0.00102076
-0.000697621
-0.000743546
-0.000729912
-0.00102151
-0.000698327
0.000346815
0.000346839
0.000298833
0.001364
0.00138425
0.000946034
0.000832633
0.000624013
0.000980272
0.000393618
0.000942615
0.00148383
0.00280299
0.000922296
-0.00139353
-0.00142192
-0.00165219
-0.00149924
0.00138262
0.001364
0.000946923
0.00101793
0.00101915
0.000972893
0.000664406
0.000547564
0.000939879
0.000383541
0.000930769
0.000603089
0.00143721
0.000960981
0.000623351
0.000833564
0.000980223
0.0005471
0.000665349
0.000939868
0.000396323
0.000397008
0.00092456
0.000309102
0.000889226
0.000320108
0.000974638
0.000392542
0.000942649
0.000382526
0.000930781
0.000308273
0.000889083
0.000877239
0.00455427
0.000139457
0.000139655
-0.00482901
-0.0017617
0.00024665
0.000316576
-0.00016084
0.00135991
0.00308929
0.00155323
0.00323236
-0.00213475
-0.00174638
-0.00170349
-0.00140409
0.00154197
0.00062339
0.00187015
0.000320001
0.00157773
-0.00176235
0.000246835
0.00031669
-0.000161269
0.00136028
-0.00137309
-0.00138711
0.00112486
0.00112512
0.000845957
0.00158032
0.00158619
0.00246533
-0.000857818
-0.000791035
-0.00074265
-0.000741068
0.000905865
0.000640809
0.00163731
0.000398668
0.00141503
0.0015528
0.00308838
0.00323132
-0.00213328
-0.00174562
-0.0017031
-0.00140325
0.00158561
0.00157967
0.00246532
-0.00085738
-0.000790624
-0.000742163
-0.000740703
0.00111847
0.00111845
0.00190777
0.000675664
0.000548694
0.0014748
0.00037353
0.00129087
0.000623596
0.00154129
0.00187024
0.000640841
0.000905153
0.00163749
0.000548933
0.00067536
0.00147487
0.000373228
0.000372908
0.00127605
0.00028525
0.00115662
0.000320299
0.00157738
0.000398926
0.00141475
0.000373822
0.00129079
0.00028555
0.00115644
0.00107578
0.00506411
2.16877e-05
2.18466e-05
-0.00510889
-0.00022805
0.00117588
8.39539e-06
-0.00147916
0.000514059
0.00167321
0.000915772
0.00374365
-0.00137122
-0.00101211
-0.000438045
-0.000256403
0.000972354
0.000442953
0.00213312
0.000194631
0.00182842
-0.000228014
0.00117555
1.00578e-05
-0.00147955
0.000514549
0.000932656
0.000933226
0.00315188
-0.000162578
-0.000527883
0.000149825
-0.000215512
-0.000163329
-0.000527323
0.000147976
-0.000215773
-0.00110414
-0.000788405
-0.000788587
-0.00082203
0.000779799
0.000831965
0.00270199
0.00055569
0.000431458
0.00187291
0.00025636
0.00159645
0.000911331
0.00167343
0.00374207
-0.0013733
-0.00101341
-0.000438772
-0.000256051
0.000829877
0.000779886
0.00270011
0.000638606
0.00064059
0.00229042
0.000477565
0.000373585
0.00169371
0.000260962
0.00147385
0.000442437
0.000973303
0.00213354
0.000430586
0.000556423
0.0018728
0.000373074
0.000478819
0.00169415
0.000288349
0.000289046
0.00144532
0.000235779
0.00128872
0.000192782
0.00182767
0.000254699
0.0015947
0.000259631
0.00147341
0.000234806
0.00128806
0.00117962
-0.000376521
-0.000377068
-0.021095
0.00545986
0.00546517
0.00546517
0.00545866
-0.000648721
-0.000780323
-0.00213443
0.00106753
0.00152401
0.000572194
0.00115879
0.00235841
-0.000324872
-8.24857e-05
-0.00023634
-0.000729504
-0.0012917
-0.000499339
0.000428495
-0.000100311
0.00275235
0.000183782
0.000206204
0.00215438
-2.0541e-05
0.00170097
-0.000777155
-0.000648448
-0.00213405
0.00106815
0.00152409
0.000571908
0.00115942
0.00235545
-8.33445e-05
-0.000325696
-0.000236626
-0.00129021
-0.000729018
-0.000498303
-0.000197114
-0.000199281
0.000452326
0.000506724
0.000506784
0.000524963
6.4333e-05
-1.87839e-05
0.00235902
0.000121869
0.000149012
0.00187257
4.63901e-05
0.00153727
-9.79054e-05
0.000427291
0.00275127
-1.73545e-05
6.32473e-05
0.00235704
8.81623e-05
8.73992e-05
0.00207872
0.000139129
0.000108623
0.00168313
7.51034e-05
0.00145068
0.000206278
0.000183095
0.00215446
0.000149234
0.000120741
0.00187235
0.000109054
0.000138406
0.00168333
9.50024e-05
9.43605e-05
0.00147363
9.61635e-05
0.00129734
-1.93823e-05
0.00170038
4.73316e-05
0.00153607
7.60431e-05
0.00145032
9.68657e-05
0.00129699
0.00118543
0.0053174
2.99572e-05
3.00862e-05
-0.00537542
-0.000190047
0.000324195
0.000333882
-0.000118346
-0.000532668
-0.000398786
-0.000571532
-0.000530821
-0.00023084
-0.000227943
0.000446864
-2.12176e-05
0.00289804
-0.000215068
4.27623e-05
-0.00024385
-0.000166145
0.000208853
0.000155608
0.00224085
-7.15105e-05
0.00161354
-0.000190232
0.000332633
0.000324149
-0.000118544
-0.000532613
-0.000398688
-0.000571475
-0.000530849
-0.00023084
-0.000227882
-0.000196267
-0.000198382
0.000166217
0.000166963
0.000513795
8.02608e-05
-3.29611e-05
0.002385
-4.62476e-05
-4.20117e-05
-4.60126e-06
-1.63647e-06
9.16635e-05
0.000102666
0.00191411
-3.98304e-05
0.00146626
-2.14181e-05
0.000446434
0.00289812
-0.00021522
4.21038e-05
-0.000244129
-0.000166355
-3.34901e-05
8.05907e-05
0.00238465
-4.66149e-05
-4.24343e-05
-5.01601e-06
-2.06767e-06
4.53085e-06
4.99657e-06
0.00200274
9.0469e-05
4.62055e-05
0.00165365
-1.93614e-06
0.00134971
0.000154834
0.000209273
0.00224004
0.000102136
9.20814e-05
0.00191356
4.59187e-05
9.09035e-05
0.00165364
6.31166e-05
6.34316e-05
0.00143921
6.47562e-05
0.00122876
-7.17529e-05
0.00161303
-4.0465e-05
0.00146551
-2.44654e-06
0.00134931
6.43708e-05
0.00122836
0.001104
0.00534445
1.22441e-05
1.21534e-05
-0.00536749
-0.000330032
0.000483957
0.000440597
4.9017e-05
-0.000654351
-0.00114214
-0.000557934
0.00249071
0.000167177
0.000314816
0.000777433
0.000819227
-0.000587226
-0.000205861
0.0018824
-0.000146088
0.00139354
-0.000329956
0.000483697
4.92423e-05
0.000440535
-0.00065405
-6.84055e-05
-6.85447e-05
-0.000153133
-0.000153539
0.00106057
1.15374e-05
7.81985e-05
8.66479e-05
1.14154e-05
7.80476e-05
8.65272e-05
-0.000969319
-0.00081517
-0.000576667
0.00212772
0.000137239
0.000248817
0.000373839
0.000331287
-0.000434437
-0.000307827
0.00163534
-0.000142458
0.00129319
-0.00055668
-0.00114228
0.00249057
0.000167148
0.000314759
0.000777453
0.000819323
-0.000575808
-0.000816004
0.00212756
0.00013748
0.000249076
0.000374117
0.000331546
-0.000438724
-0.000439483
0.00172847
-0.000268896
-0.000273661
0.00144966
-0.000132539
0.00117766
-0.000205305
-0.00058782
0.00188203
-0.000307285
-0.000435524
0.00163506
-0.000273181
-0.000269586
0.00144963
-0.000187245
-0.000187829
0.00126744
-6.88804e-05
0.00109196
-0.000145192
0.00139312
-0.000141634
0.00129288
-0.000131729
0.0011775
-6.8016e-05
0.00109183
0.00096795
0.00539374
-9.21118e-05
-9.21561e-05
-0.00520277
0.000724779
-0.00162504
-0.000774427
-0.00166
0.000729185
0.000760943
0.000746365
0.000638102
3.83531e-05
0.000371154
4.61947e-06
-0.00177605
-0.00100348
0.0013263
0.000821637
0.00091092
0.00118366
0.00101846
-0.000884728
-0.000268182
0.00127043
-0.000259371
0.000986443
0.000724808
-0.000774267
-0.00162505
-0.00165979
0.000729212
0.000760962
0.000746391
0.000637981
0.000371049
3.82924e-05
4.51264e-06
-0.00205275
-0.00205294
0.00128756
0.000856296
0.000429661
0.000984582
0.000476872
0.000856153
0.000429481
0.000984486
0.000476787
-0.000769139
-0.000612583
-0.000612555
-0.000681908
-0.00126447
-0.00102614
0.0013621
-0.0006368
-0.000408209
0.00114769
-0.000262942
0.000978127
-0.00100326
-0.00177606
0.00132632
0.000821625
0.000910883
0.00118355
0.00101839
-0.00102607
-0.0012648
0.00136222
-0.000742001
-0.000742119
0.00116039
-0.000392216
-0.000386615
0.00107828
-0.000228107
0.000895132
-0.000268129
-0.00088486
0.00127025
-0.000408246
-0.0006371
0.00114748
-0.000386527
-0.000392365
0.00107816
-0.000244786
-0.000244964
0.000984047
-0.000110385
0.000871172
-0.000259134
0.000986285
-0.000262859
0.000978143
-0.000227958
0.000895037
-0.000110236
0.000871175
0.000770311
-0.00669268
-0.00669317
-0.0264472
0.0131579
0.0100109
0.0100109
0.00661947
-0.0042699
-0.00273622
-0.00283334
0.00152544
0.000407098
0.000722828
0.000493066
-0.00222152
-0.00103461
0.000298219
-0.00121905
-0.000417262
0.000680159
-0.000243381
0.000630383
-0.00273555
-0.00427022
-0.00283316
0.00152533
0.000722799
0.000407009
0.000492957
-0.0022807
-0.00228129
0.000377777
-0.00147285
-0.00113714
0.00065677
-0.000870589
-0.000562212
0.000690385
-0.000291057
0.000682349
-0.00103413
-0.00222187
0.000298281
-0.00113667
-0.00147337
0.000656846
-0.000878632
-0.00087915
0.000644366
-0.000561955
-0.000509968
0.00070936
-0.000268793
0.000642392
-0.00041684
-0.00121955
0.000680127
-0.000561771
-0.000871299
0.00069034
-0.000509496
-0.000562561
0.000709297
-0.000369482
-0.000370097
0.000704162
-0.000182379
0.000666059
-0.000242834
0.000630364
-0.000290455
0.000682487
-0.000268195
0.000642374
-0.000181779
0.000666124
0.000602037
-0.0049826
-0.00498282
-0.0164141
-0.00316469
-0.00215642
-0.00250363
-0.0018176
-0.000912128
-0.000145223
-0.00103232
-0.000342555
0.000231796
-0.000254773
0.000366271
-0.00215613
-0.00316489
-0.00250357
-0.00186702
-0.00186731
-0.000200437
-0.00127287
-0.00100257
0.000153062
-0.000773916
-0.00048455
0.000333424
-0.000296859
0.0004321
-0.000911896
-0.00181783
-0.000145154
-0.00100236
-0.00127323