/*--------------------------------*- C++ -*----------------------------------*\
| =========                 |                                                 |
| \\      /  F ield         | OpenFOAM: The Open Source CFD Toolbox           |
|  \\    /   O peration     | Version:  5.x                                   |
|   \\  /    A nd           | Web:      www.OpenFOAM.org                      |
|    \\/     M anipulation  |                                                 |
\*---------------------------------------------------------------------------*/
FoamFile
{
    version     2.0;
    format      ascii;
    class       surfaceScalarField;
    location    "0.027";
    object      phi;
}
// * * * * * * * * * * * * * * * * * * * * * * * * * * * * * * * * * * * * * //

dimensions      [0 3 -1 0 0 0 0];

internalField   nonuniform List<scalar> 
4324
(
-1.95724e-08
-1.95999e-08
-2.6599e-09
-1.37972e-08
-2.14204e-08
-1.71852e-09
-1.25656e-08
-2.17991e-08
2.1188e-09
-5.86208e-09
-2.2544e-08
-3.52801e-09
-2.29661e-08
-3.10189e-09
-2.13958e-08
-1.38263e-08
-1.72393e-09
-1.63806e-08
-1.64096e-08
-1.00221e-08
-1.39766e-08
-1.69878e-08
-7.21101e-09
-6.53397e-09
-1.7709e-08
-1.22729e-08
-1.80159e-08
-1.16742e-08
-2.17732e-08
-1.25991e-08
2.11501e-09
-1.69589e-08
-1.40095e-08
-7.21014e-09
-1.42839e-08
-1.43167e-08
-5.34191e-09
-6.79455e-09
-1.46817e-08
-1.05121e-08
-1.48518e-08
-9.98031e-09
-2.25185e-08
-5.89591e-09
-3.53548e-09
-1.768e-08
-6.56803e-09
-1.22753e-08
-1.46491e-08
-6.82834e-09
-1.05148e-08
-7.00127e-09
-7.03491e-09
-1.52897e-08
-7.17384e-09
-1.46598e-08
-2.29399e-08
-3.1102e-09
-1.79864e-08
-1.16776e-08
-1.48192e-08
-9.98339e-09
-7.14103e-09
-1.46601e-08
-1.40458e-08
-2.59897e-08
-2.60071e-08
8.04873e-09
-2.31074e-08
-1.82481e-08
-6.807e-10
-1.62396e-08
-1.67886e-08
-1.44422e-09
-9.64217e-09
-1.47496e-08
-7.20814e-09
-1.42655e-08
-7.73925e-09
-1.82307e-08
-2.31321e-08
-6.85108e-10
-1.79638e-08
-1.79882e-08
-1.05438e-08
-1.38162e-08
-1.66593e-08
-1.14826e-08
-8.20704e-09
-1.50069e-08
-1.76191e-08
-1.44982e-08
-1.81563e-08
-1.67708e-08
-1.62683e-08
-1.4502e-09
-1.66348e-08
-1.38449e-08
-1.14843e-08
-1.29944e-08
-1.30232e-08
-1.26131e-08
-7.69075e-09
-1.19987e-08
-1.88182e-08
-1.16087e-08
-1.93991e-08
-1.4732e-08
-9.67444e-09
-7.21818e-09
-1.49826e-08
-8.23914e-09
-1.76248e-08
-1.19699e-08
-7.72275e-09
-1.88222e-08
-6.99886e-09
-7.03068e-09
-2.52224e-08
-6.72378e-09
-2.58272e-08
-1.4248e-08
-7.75196e-09
-1.44739e-08
-1.81649e-08
-1.15798e-08
-1.94058e-08
-6.69171e-09
-2.583e-08
-2.64542e-08
-2.36588e-08
-2.36842e-08
1.41313e-08
-2.02769e-08
-2.51605e-08
-8.18925e-10
-1.64978e-08
-2.54999e-08
-2.006e-09
-8.22286e-09
-2.60549e-08
-1.21797e-08
-2.62736e-08
-1.30179e-08
-2.51352e-08
-2.03075e-08
-8.25596e-10
-2.13964e-08
-2.1427e-08
-1.80124e-08
-1.72234e-08
-2.17021e-08
-1.94497e-08
-8.64525e-09
-2.21466e-08
-3.01016e-08
-2.23266e-08
-3.09619e-08
-2.54744e-08
-1.65326e-08
-2.01507e-09
-2.16716e-08
-1.72581e-08
-1.94523e-08
-1.74316e-08
-1.74664e-08
-2.10851e-08
-8.78968e-09
-1.77701e-08
-3.18329e-08
-1.79043e-08
-3.27408e-08
-2.60294e-08
-8.26018e-09
-1.21949e-08
-2.21159e-08
-8.68231e-09
-3.01102e-08
-1.77351e-08
-8.82677e-09
-3.18389e-08
-8.96444e-09
-9.00163e-09
-4.27576e-08
-9.09861e-09
-4.36803e-08
-2.62474e-08
-1.30372e-08
-2.22962e-08
-3.09747e-08
-1.78695e-08
-3.27509e-08
-9.06161e-09
-4.36843e-08
-4.46255e-08
-3.41187e-08
-3.41444e-08
2.33421e-08
-2.99575e-08
-3.22237e-08
-6.42346e-10
-2.37639e-08
-3.18364e-08
-3.98028e-09
-1.313e-08
-3.09923e-08
-1.87376e-08
-3.07434e-08
-2.04471e-08
-3.2198e-08
-2.99895e-08
-6.50264e-10
-2.84758e-08
-2.85078e-08
-2.54479e-08
-2.27833e-08
-2.81311e-08
-2.88452e-08
-1.23904e-08
-2.73963e-08
-4.40881e-08
-2.71408e-08
-4.5829e-08
-3.18107e-08
-2.38006e-08
-3.99218e-09
-2.80991e-08
-2.282e-08
-2.88492e-08
-2.24932e-08
-2.25298e-08
-3.229e-08
-1.21685e-08
-2.19611e-08
-4.75904e-08
-2.17383e-08
-4.93505e-08
-3.09667e-08
-1.31697e-08
-1.87574e-08
-2.73643e-08
-1.24301e-08
-4.40999e-08
-2.19244e-08
-1.2208e-08
-4.75982e-08
-1.17001e-08
-1.17396e-08
-6.32012e-08
-1.15565e-08
-6.49934e-08
-3.07176e-08
-2.04729e-08
-2.71088e-08
-4.58471e-08
-2.17016e-08
-4.93644e-08
-1.15173e-08
-6.49996e-08
-6.6801e-08
-4.36731e-08
-4.37051e-08
3.40799e-08
-3.76166e-08
-4.45487e-08
-1.20139e-09
-3.00678e-08
-4.47219e-08
-6.00985e-09
-1.53103e-08
-4.51844e-08
-2.79132e-08
-4.52949e-08
-3.04178e-08
-4.45167e-08
-3.76552e-08
-1.21183e-09
-3.8322e-08
-3.83607e-08
-3.7829e-08
-3.06016e-08
-3.85018e-08
-4.27841e-08
-1.56041e-08
-3.88944e-08
-6.53738e-08
-3.8987e-08
-6.79459e-08
-4.46899e-08
-3.01122e-08
-6.02524e-09
-3.84631e-08
-3.06461e-08
-4.27891e-08
-3.07112e-08
-3.07557e-08
-4.77865e-08
-1.56776e-08
-3.10572e-08
-7.04597e-08
-3.11292e-08
-7.30508e-08
-4.51525e-08
-1.53576e-08
-2.79394e-08
-3.88558e-08
-1.56514e-08
-6.53896e-08
-3.10129e-08
-1.57249e-08
-7.04703e-08
-1.58398e-08
-1.58869e-08
-9.35429e-08
-1.59427e-08
-9.61761e-08
-4.5263e-08
-3.04513e-08
-3.89481e-08
-6.7969e-08
-3.10839e-08
-7.30687e-08
-1.58952e-08
-9.61837e-08
-9.88259e-08
-6.19863e-08
-6.20231e-08
4.94087e-08
-5.36803e-08
-6.2364e-08
-1.84856e-09
-4.29682e-08
-6.23348e-08
-9.09101e-09
-2.25679e-08
-6.25353e-08
-4.06923e-08
-6.24655e-08
-4.44408e-08
-6.23271e-08
-5.37247e-08
-1.86148e-09
-5.39654e-08
-5.401e-08
-5.45434e-08
-4.31567e-08
-5.39645e-08
-6.19617e-08
-2.2522e-08
-5.40972e-08
-9.4445e-08
-5.40103e-08
-9.82918e-08
-6.2298e-08
-4.30187e-08
-9.11062e-09
-5.39201e-08
-4.32071e-08
-6.19684e-08
-4.31066e-08
-4.31566e-08
-6.94065e-08
-2.24526e-08
-4.32056e-08
-1.02004e-07
-4.31055e-08
-1.05858e-07
-6.24984e-08
-2.26221e-08
-4.07251e-08
-5.40526e-08
-2.2576e-08
-9.44649e-08
-4.31551e-08
-2.25061e-08
-1.02017e-07
-2.23593e-08
-2.24136e-08
-1.35129e-07
-2.23199e-08
-1.39032e-07
-6.24283e-08
-4.4484e-08
-5.39657e-08
-9.8322e-08
-4.30569e-08
-1.05882e-07
-2.22662e-08
-1.39042e-07
-1.42949e-07
-8.65678e-08
-8.6612e-08
7.05557e-08
-7.46362e-08
-8.79655e-08
-3.07466e-09
-5.95656e-08
-8.81545e-08
-1.34265e-08
-3.04905e-08
-8.90071e-08
-5.89473e-08
-8.9114e-08
-6.43564e-08
-8.79213e-08
-7.46891e-08
-3.09097e-09
-7.58157e-08
-7.58687e-08
-7.87436e-08
-6.04911e-08
-7.60349e-08
-8.94038e-08
-3.09688e-08
-7.67801e-08
-1.36192e-07
-7.68701e-08
-1.41764e-07
-8.81103e-08
-5.96255e-08
-1.34512e-08
-7.59819e-08
-6.05511e-08
-8.94123e-08
-6.06227e-08
-6.06826e-08
-1.00116e-07
-3.10496e-08
-6.12858e-08
-1.47069e-07
-6.13597e-08
-1.5266e-07
-8.89629e-08
-3.05544e-08
-5.89883e-08
-7.67271e-08
-3.10327e-08
-1.36217e-07
-6.12259e-08
-3.11135e-08
-1.47085e-07
-3.13626e-08
-3.14265e-08
-1.94849e-07
-3.14772e-08
-2.0053e-07
-8.90696e-08
-6.44105e-08
-7.68171e-08
-1.41802e-07
-6.12999e-08
-1.5269e-07
-3.14133e-08
-2.00543e-07
-2.06227e-07
-1.22112e-07
-1.22166e-07
9.98406e-08
-1.05336e-07
-1.24843e-07
-4.98409e-09
-8.41813e-08
-1.25167e-07
-1.96962e-08
-4.34155e-08
-1.26791e-07
-8.46584e-08
-1.26934e-07
-9.23948e-08
-1.24789e-07
-1.054e-07
-5.00421e-09
-1.07626e-07
-1.07691e-07
-1.13054e-07
-8.59039e-08
-1.07973e-07
-1.28317e-07
-4.42452e-08
-1.09341e-07
-1.95297e-07
-1.09445e-07
-2.03349e-07
-1.25114e-07
-8.42548e-08
-1.97259e-08
-1.07909e-07
-8.59776e-08
-1.28327e-07
-8.61236e-08
-8.61979e-08
-1.43673e-07
-4.43384e-08
-8.71767e-08
-2.11016e-07
-8.72324e-08
-2.19112e-07
-1.26737e-07
-4.34941e-08
-8.47089e-08
-1.09277e-07
-4.43234e-08
-1.95327e-07
-8.71024e-08
-4.44187e-08
-2.11037e-07
-4.47846e-08
-4.48635e-08
-2.79478e-07
-4.48787e-08
-2.8773e-07
-1.2688e-07
-9.24597e-08
-1.09383e-07
-2.03394e-07
-8.71563e-08
-2.19147e-07
-4.47988e-08
-2.87745e-07
-2.96025e-07
-1.74479e-07
-1.74542e-07
1.41405e-07
-1.50394e-07
-1.77731e-07
-7.94467e-09
-1.19987e-07
-1.78262e-07
-2.88725e-08
-6.15304e-08
-1.80395e-07
-1.2161e-07
-1.80688e-07
-1.32744e-07
-1.77668e-07
-1.50468e-07
-7.96931e-09
-1.53239e-07
-1.53314e-07
-1.61893e-07
-1.22253e-07
-1.53815e-07
-1.83746e-07
-6.27095e-08
-1.55812e-07
-2.79418e-07
-1.5611e-07
-2.91036e-07
-1.78199e-07
-1.20071e-07
-2.89092e-08
-1.5374e-07
-1.22336e-07
-1.83758e-07
-1.22688e-07
-1.22772e-07
-2.05763e-07
-6.295e-08
-1.24534e-07
-3.02029e-07
-1.24803e-07
-3.13764e-07
-1.80331e-07
-6.16192e-08
-1.21671e-07
-1.55737e-07
-6.27984e-08
-2.79455e-07
-1.24451e-07
-6.30387e-08
-3.02053e-07
-6.38749e-08
-6.3964e-08
-4.00624e-07
-6.41088e-08
-4.1271e-07
-1.80624e-07
-1.32824e-07
-1.56034e-07
-2.91092e-07
-1.2472e-07
-3.13806e-07
-6.40201e-08
-4.1273e-07
-4.24845e-07
-2.43446e-07
-2.43522e-07
1.96202e-07
-2.09021e-07
-2.50818e-07
-1.43995e-08
-1.66327e-07
-2.51751e-07
-4.36684e-08
-8.52468e-08
-2.56164e-07
-1.74404e-07
-2.56667e-07
-1.90018e-07
-2.50741e-07
-2.09111e-07
-1.44289e-08
-2.1535e-07
-2.15441e-07
-2.32652e-07
-1.71115e-07
-2.16154e-07
-2.63571e-07
-8.77759e-08
-2.19716e-07
-3.99199e-07
-2.19992e-07
-4.15788e-07
-2.51675e-07
-1.66428e-07
-4.37129e-08
-2.16063e-07
-1.71216e-07
-2.63586e-07
-1.71588e-07
-1.71689e-07
-2.94697e-07
-8.79999e-08
-1.73958e-07
-4.3137e-07
-1.74066e-07
-4.48017e-07
-2.56087e-07
-8.53554e-08
-1.74476e-07
-2.19624e-07
-8.78848e-08
-3.99242e-07
-1.73856e-07
-8.81089e-08
-4.31397e-07
-8.90253e-08
-8.91351e-08
-5.70276e-07
-8.91136e-08
-5.87096e-07
-2.5659e-07
-1.90114e-07
-2.19901e-07
-4.15855e-07
-1.73963e-07
-4.48069e-07
-8.90035e-08
-5.87121e-07
-6.03697e-07
-3.49544e-07
-3.49635e-07
2.71919e-07
-2.99143e-07
-3.57473e-07
-2.60775e-08
-2.36939e-07
-3.58573e-07
-6.75311e-08
-1.21317e-07
-3.63359e-07
-2.51619e-07
-3.63853e-07
-2.73779e-07
-3.57382e-07
-2.99248e-07
-2.61126e-08
-3.06011e-07
-3.06117e-07
-3.35368e-07
-2.42418e-07
-3.06426e-07
-3.79303e-07
-1.24111e-07
-3.10578e-07
-5.70279e-07
-3.1057e-07
-5.93776e-07
-3.58482e-07
-2.37054e-07
-6.75854e-08
-3.0632e-07
-2.42534e-07
-3.79323e-07
-2.42053e-07
-2.42169e-07
-4.23212e-07
-1.23737e-07
-2.44975e-07
-6.15282e-07
-2.44269e-07
-6.38638e-07
-3.63266e-07
-1.21442e-07
-2.51703e-07
-3.1047e-07
-1.24236e-07
-5.70328e-07
-2.44857e-07
-1.23862e-07
-6.15311e-07
-1.25099e-07
-1.25226e-07
-8.09778e-07
-1.24564e-07
-8.32464e-07
-3.63759e-07
-2.73897e-07
-3.10462e-07
-5.93861e-07
-2.44153e-07
-6.38702e-07
-1.24438e-07
-8.325e-07
-8.53641e-07
-4.80526e-07
-4.80636e-07
3.64072e-07
-4.06561e-07
-4.97567e-07
-5.35568e-08
-3.18876e-07
-4.98118e-07
-1.1124e-07
-1.62276e-07
-5.06258e-07
-3.66233e-07
-5.06388e-07
-3.96589e-07
-4.97457e-07
-4.06687e-07
-5.35982e-08
-4.20691e-07
-4.20818e-07
-4.88874e-07
-3.28326e-07
-4.19589e-07
-5.50188e-07
-1.67633e-07
-4.24158e-07
-8.13063e-07
-4.22924e-07
-8.45565e-07
-4.98007e-07
-3.19012e-07
-1.11308e-07
-4.19462e-07
-3.28464e-07
-5.50214e-07
-3.25751e-07
-3.25889e-07
-6.10614e-07
-1.6613e-07
-3.26194e-07
-8.72861e-07
-3.23865e-07
-9.04513e-07
-5.06146e-07
-1.62424e-07
-3.6633e-07
-4.24029e-07
-1.67783e-07
-8.13119e-07
-3.26053e-07
-1.66279e-07
-8.72888e-07
-1.6522e-07
-1.65371e-07
-1.13142e-06
-1.62687e-07
-1.15955e-06
-5.06278e-07
-3.96734e-07
-4.22795e-07
-8.45671e-07
-3.23724e-07
-9.04592e-07
-1.62536e-07
-1.1596e-06
-1.18008e-06
-6.9047e-07
-6.90601e-07
4.86625e-07
-5.81798e-07
-7.08991e-07
-1.00947e-07
-4.51767e-07
-7.06626e-07
-1.87574e-07
-2.30763e-07
-7.10867e-07
-5.41896e-07
-7.09528e-07
-5.86923e-07
-7.08858e-07
-5.81947e-07
-1.00996e-07
-5.95609e-07
-5.9576e-07
-7.1535e-07
-4.59866e-07
-5.92253e-07
-8.00301e-07
-2.36547e-07
-5.95355e-07
-1.15189e-06
-5.92578e-07
-1.19983e-06
-7.06493e-07
-4.51926e-07
-1.87659e-07
-5.92103e-07
-4.60029e-07
-8.00332e-07
-4.52843e-07
-4.53005e-07
-8.89116e-07
-2.33664e-07
-4.40183e-07
-1.2472e-06
-4.32529e-07
-1.29895e-06
-7.10732e-07
-2.30937e-07
-5.42008e-07
-5.952e-07
-2.36724e-07
-1.15195e-06
-4.40018e-07
-2.33841e-07
-1.24723e-06
-2.29398e-07
-2.29572e-07
-1.55264e-06
-2.21169e-07
-1.60092e-06
-7.09394e-07
-5.87103e-07
-5.92424e-07
-1.19997e-06
-4.32362e-07
-1.29906e-06
-2.20998e-07
-1.60098e-06
-1.62326e-06
-9.43274e-07
-9.43433e-07
6.33289e-07
-7.83777e-07
-9.76116e-07
-1.92631e-07
-5.97717e-07
-9.63276e-07
-3.28738e-07
-3.04558e-07
-9.43025e-07
-8.34651e-07
-9.38712e-07
-9.02325e-07
-9.75955e-07
-7.83956e-07
-1.92691e-07
-8.03189e-07
-8.03363e-07
-1.06087e-06
-5.86771e-07
-7.98726e-07
-1.18127e-06
-3.12101e-07
-8.13376e-07
-1.55621e-06
-8.15463e-07
-1.6363e-06
-9.63109e-07
-5.97904e-07
-3.28853e-07
-7.98552e-07
-5.86967e-07
-1.18129e-06
-5.84482e-07
-5.84672e-07
-1.31724e-06
-3.12975e-07
-6.38985e-07
-1.6931e-06
-6.50704e-07
-1.77777e-06
-9.42858e-07
-3.04755e-07
-8.34791e-07
-8.13194e-07
-3.12301e-07
-1.55628e-06
-6.38792e-07
-3.13179e-07
-1.69312e-06
-3.32584e-07
-3.32795e-07
-2.16503e-06
-3.42341e-07
-2.24294e-06
-9.38549e-07
-9.0255e-07
-8.15288e-07
-1.63644e-06
-6.50519e-07
-1.7779e-06
-3.42133e-07
-2.24305e-06
-2.3097e-06
-1.36875e-06
-1.36894e-06
8.5847e-07
-1.15683e-06
-1.39224e-06
-3.19741e-07
-8.93709e-07
-1.37987e-06
-5.32551e-07
-4.52533e-07
-1.41558e-06
-1.21682e-06
-1.43345e-06
-1.28773e-06
-1.39204e-06
-1.15706e-06
-3.19818e-07
-1.18813e-06
-1.18837e-06
-1.46865e-06
-9.3435e-07
-1.20127e-06
-1.61367e-06
-4.85978e-07
-1.24474e-06
-2.17543e-06
-1.25712e-06
-2.29958e-06
-1.37968e-06
-8.93944e-07
-5.32691e-07
-1.20104e-06
-9.34594e-07
-1.61371e-06
-9.51278e-07
-9.51522e-07
-1.81674e-06
-4.96513e-07
-9.81667e-07
-2.41094e-06
-9.93621e-07
-2.53873e-06
-1.41539e-06
-4.52748e-07
-1.21702e-06
-1.24451e-06
-4.86238e-07
-2.17552e-06
-9.81417e-07
-4.96775e-07
-2.41096e-06
-5.19135e-07
-5.19405e-07
-3.08957e-06
-5.28975e-07
-3.22753e-06
-1.43331e-06
-1.28792e-06
-1.2569e-06
-2.29982e-06
-9.93385e-07
-2.53891e-06
-5.28713e-07
-3.22769e-06
-3.36874e-06
-1.93438e-06
-1.93461e-06
1.26223e-06
-1.59078e-06
-1.94392e-06
-5.48786e-07
-1.17452e-06
-1.98676e-06
-8.31491e-07
-6.30206e-07
-2.1517e-06
-1.57304e-06
-2.1919e-06
-1.7171e-06
-1.94367e-06
-1.59105e-06
-5.48892e-07
-1.72082e-06
-1.72111e-06
-1.91431e-06
-1.3513e-06
-1.76262e-06
-2.20733e-06
-7.06929e-07
-1.87612e-06
-3.09538e-06
-1.91283e-06
-3.2875e-06
-1.98654e-06
-1.17484e-06
-8.31621e-07
-1.76234e-06
-1.35161e-06
-2.20742e-06
-1.40193e-06
-1.40224e-06
-2.53754e-06
-7.35045e-07
-1.48352e-06
-3.47043e-06
-1.51078e-06
-3.67783e-06
-2.15147e-06
-6.30562e-07
-1.57323e-06
-1.87584e-06
-7.0726e-07
-3.0955e-06
-1.48321e-06
-7.3537e-07
-3.47046e-06
-7.83645e-07
-7.83974e-07
-4.48868e-06
-7.99615e-07
-4.72432e-06
-2.19166e-06
-1.71744e-06
-1.91255e-06
-3.28782e-06
-1.51048e-06
-3.67807e-06
-7.99294e-07
-4.72454e-06
-4.97152e-06
-2.8199e-06
-2.82021e-06
1.92994e-06
-2.41336e-06
-2.91695e-06
-6.78167e-07
-1.85593e-06
-2.9608e-06
-1.11789e-06
-9.84949e-07
-3.10835e-06
-2.14449e-06
-3.15471e-06
-2.39164e-06
-2.91662e-06
-2.41374e-06
-6.78292e-07
-2.58152e-06
-2.5819e-06
-2.58445e-06
-2.0236e-06
-2.64195e-06
-3.0841e-06
-1.07891e-06
-2.78168e-06
-4.36672e-06
-2.83226e-06
-4.69025e-06
-2.96047e-06
-1.85632e-06
-1.11811e-06
-2.64158e-06
-2.02401e-06
-3.0842e-06
-2.08582e-06
-2.08623e-06
-3.64902e-06
-1.11889e-06
-2.20364e-06
-5.0154e-06
-2.24708e-06
-5.38334e-06
-3.10803e-06
-9.85385e-07
-2.14471e-06
-2.7813e-06
-1.07936e-06
-4.36687e-06
-2.20322e-06
-1.11934e-06
-5.01544e-06
-1.18753e-06
-1.18799e-06
-6.52003e-06
-1.21546e-06
-6.94459e-06
-3.15442e-06
-2.39211e-06
-2.8319e-06
-4.69066e-06
-2.24668e-06
-5.38364e-06
-1.21502e-06
-6.94484e-06
-7.40395e-06
-3.79719e-06
-3.79757e-06
2.80439e-06
-3.29995e-06
-4.16306e-06
-7.06225e-07
-2.62721e-06
-4.32398e-06
-1.29631e-06
-1.39006e-06
-4.58774e-06
-2.84411e-06
-4.68379e-06
-3.2308e-06
-4.16267e-06
-3.30042e-06
-7.06359e-07
-3.71005e-06
-3.71053e-06
-3.48959e-06
-2.95171e-06
-3.86214e-06
-4.30428e-06
-1.57915e-06
-4.12557e-06
-6.20145e-06
-4.22146e-06
-6.73558e-06
-4.32359e-06
-2.62773e-06
-1.29659e-06
-3.86166e-06
-2.95222e-06
-4.30443e-06
-3.07328e-06
-3.07379e-06
-5.22574e-06
-1.65044e-06
-3.28474e-06
-7.27906e-06
-3.3648e-06
-7.89447e-06
-4.58734e-06
-1.39058e-06
-2.84445e-06
-4.12509e-06
-1.57968e-06
-6.20166e-06
-3.28422e-06
-1.65097e-06
-7.27912e-06
-1.77673e-06
-1.77727e-06
-9.535e-06
-1.82451e-06
-1.02656e-05
-4.68341e-06
-3.23147e-06
-4.221e-06
-6.73615e-06
-3.36429e-06
-7.89489e-06
-1.82398e-06
-1.02659e-05
-1.10605e-05
-5.63784e-06
-5.63835e-06
4.4172e-06
-4.94356e-06
-5.9715e-06
-7.05897e-07
-3.83835e-06
-6.15644e-06
-1.6863e-06
-2.08788e-06
-6.57726e-06
-3.80121e-06
-6.74649e-06
-4.47858e-06
-5.97097e-06
-4.94416e-06
-7.06109e-07
-5.46586e-06
-5.46648e-06
-4.49972e-06
-4.33092e-06
-5.71214e-06
-5.88352e-06
-2.38291e-06
-6.13029e-06
-8.59642e-06
-6.324e-06
-9.54275e-06
-6.15593e-06
-3.83904e-06
-1.68663e-06
-5.71152e-06
-4.33161e-06
-5.88371e-06
-4.56255e-06
-4.56324e-06
-7.52361e-06
-2.5366e-06
-4.91177e-06
-1.05235e-05
-5.08245e-06
-1.16747e-05
-6.57674e-06
-2.08861e-06
-3.80166e-06
-6.12967e-06
-2.38367e-06
-8.59668e-06
-4.91107e-06
-2.53735e-06
-1.05236e-05
-2.74678e-06
-2.74749e-06
-1.38636e-05
-2.86397e-06
-1.52322e-05
-6.74601e-06
-4.47936e-06
-6.32339e-06
-9.54334e-06
-5.08172e-06
-1.16751e-05
-2.86326e-06
-1.52325e-05
-1.67905e-05
-7.30431e-06
-7.30494e-06
6.21965e-06
-6.654e-06
-8.45835e-06
-2.17123e-07
-5.3716e-06
-8.94901e-06
-1.75298e-06
-2.90358e-06
-9.63859e-06
-4.92136e-06
-9.97079e-06
-5.98183e-06
-8.45773e-06
-6.65478e-06
-2.17346e-07
-7.78733e-06
-7.78809e-06
-5.84037e-06
-6.24941e-06
-8.28525e-06
-8.0852e-06
-3.45133e-06
-9.02151e-06
-1.20116e-05
-9.37782e-06
-1.35944e-05
-8.94836e-06
-5.3724e-06
-1.75348e-06
-8.28449e-06
-6.25022e-06
-8.08544e-06
-6.66869e-06
-6.66951e-06
-1.07551e-05
-3.71075e-06
-7.27343e-06
-1.52295e-05
-7.58844e-06
-1.71823e-05
-9.63794e-06
-2.90439e-06
-4.92198e-06
-9.02075e-06
-3.45216e-06
-1.20119e-05
-7.2726e-06
-3.71159e-06
-1.52297e-05
-4.10478e-06
-4.10563e-06
-2.01992e-05
-4.30045e-06
-2.26323e-05
-9.97016e-06
-5.98285e-06
-9.37708e-06
-1.35951e-05
-7.58762e-06
-1.71828e-05
-4.29961e-06
-2.26327e-05
-2.54054e-05
-1.10839e-05
-1.10847e-05
9.95912e-06
-1.02183e-05
-1.22365e-05
7.11915e-07
-7.98827e-06
-1.28895e-05
-2.06869e-06
-4.50516e-06
-1.40555e-05
-6.23917e-06
-1.46897e-05
-8.10824e-06
-1.22356e-05
-1.02192e-05
7.11467e-07
-1.1694e-05
-1.1695e-05
-6.92341e-06
-9.38776e-06
-1.2622e-05
-1.0659e-05
-5.38971e-06
-1.38457e-05
-1.62195e-05
-1.46391e-05
-1.9036e-05
-1.28887e-05
-7.98934e-06
-2.06934e-06
-1.2621e-05
-9.38884e-06
-1.06593e-05
-1.02809e-05
-1.0282e-05
-1.54351e-05
-6.02775e-06
-1.13216e-05
-2.20068e-05
-1.20653e-05
-2.57856e-05
-1.40547e-05
-4.50619e-06
-6.24009e-06
-1.38447e-05
-5.39074e-06
-1.622e-05
-1.13205e-05
-6.02879e-06
-2.20071e-05
-6.70234e-06
-6.70338e-06
-2.94355e-05
-7.26466e-06
-3.41362e-05
-1.46888e-05
-8.10974e-06
-1.46381e-05
-1.9037e-05
-1.20642e-05
-2.57865e-05
-7.26362e-06
-3.41367e-05
-3.99364e-05
-1.38718e-05
-1.38729e-05
1.36843e-05
-1.35325e-05
-1.71179e-05
3.26367e-06
-1.10648e-05
-1.86387e-05
-1.42745e-06
-6.14269e-06
-2.04386e-05
-7.61363e-06
-2.16797e-05
-1.04644e-05
-1.71168e-05
-1.35338e-05
3.26303e-06
-1.64966e-05
-1.64979e-05
-8.16364e-06
-1.34382e-05
-1.81987e-05
-1.41575e-05
-7.79387e-06
-2.03333e-05
-2.19691e-05
-2.17825e-05
-2.67388e-05
-1.86376e-05
-1.10661e-05
-1.42843e-06
-1.81975e-05
-1.34395e-05
-1.41578e-05
-1.5002e-05
-1.50034e-05
-2.18258e-05
-8.81856e-06
-1.68584e-05
-3.16652e-05
-1.82453e-05
-3.81524e-05
-2.04375e-05
-6.14396e-06
-7.61487e-06
-2.03321e-05
-7.79518e-06
-2.19697e-05
-1.6857e-05
-8.81991e-06
-3.16656e-05
-1.0196e-05
-1.01974e-05
-4.27575e-05
-1.11053e-05
-5.1483e-05
-2.16786e-05
-1.04663e-05
-2.17812e-05
-2.674e-05
-1.8244e-05
-3.81533e-05
-1.11039e-05
-5.14834e-05
-6.21662e-05
-2.11437e-05
-2.11453e-05
2.20031e-05
-2.13138e-05
-2.50774e-05
8.26592e-06
-1.68765e-05
-2.72841e-05
-5.27704e-07
-1.00019e-05
-3.04202e-05
-8.32293e-06
-3.28696e-05
-1.33174e-05
-2.50758e-05
-2.13155e-05
8.26493e-06
-2.52542e-05
-2.52559e-05
-7.80677e-06
-2.07347e-05
-2.87449e-05
-1.72162e-05
-1.26379e-05
-3.23721e-05
-2.8114e-05
-3.5772e-05
-3.64731e-05
-2.72824e-05
-1.68783e-05
-5.2919e-07
-2.87431e-05
-2.07365e-05
-1.72166e-05
-2.42831e-05
-2.42849e-05
-3.07458e-05
-1.53996e-05
-2.75525e-05
-4.53683e-05
-3.10695e-05
-5.82537e-05
-3.04186e-05
-1.00036e-05
-8.32467e-06
-3.23704e-05
-1.26395e-05
-2.81149e-05
-2.75507e-05
-1.54013e-05
-4.53689e-05
-1.77467e-05
-1.77483e-05
-6.23657e-05
-2.07198e-05
-7.95764e-05
-3.2868e-05
-1.33201e-05
-3.57702e-05
-3.64747e-05
-3.10676e-05
-5.82552e-05
-2.07182e-05
-7.95769e-05
-0.000103598
-2.62187e-05
-2.62205e-05
3.0165e-05
-2.61375e-05
-3.32474e-05
1.48246e-05
-2.26444e-05
-3.90661e-05
4.19786e-06
-1.31417e-05
-4.3836e-05
-7.93032e-06
-4.87403e-05
-1.54168e-05
-3.32457e-05
-2.61396e-05
1.48235e-05
-3.44224e-05
-3.44244e-05
-5.45304e-06
-2.92426e-05
-4.10235e-05
-2.04386e-05
-1.83826e-05
-4.76013e-05
-3.52088e-05
-5.39885e-05
-4.9621e-05
-3.90643e-05
-2.26466e-05
4.19599e-06
-4.10215e-05
-2.92447e-05
-2.0439e-05
-3.55092e-05
-3.55115e-05
-4.177e-05
-2.27179e-05
-4.18042e-05
-6.39567e-05
-4.85757e-05
-8.63957e-05
-4.38341e-05
-1.31438e-05
-7.93258e-06
-4.75993e-05
-1.83847e-05
-3.52098e-05
-4.18021e-05
-2.27202e-05
-6.39574e-05
-2.82645e-05
-2.82667e-05
-8.94408e-05
-3.30703e-05
-0.000123358
-4.87384e-05
-1.542e-05
-5.39865e-05
-4.96225e-05
-4.85734e-05
-8.63971e-05
-3.3068e-05
-0.000123358
-0.000169758
-3.88028e-05
-3.88056e-05
4.803e-05
-4.17397e-05
-4.9518e-05
2.98569e-05
-3.61996e-05
-5.84604e-05
1.41847e-05
-2.26754e-05
-6.62389e-05
-3.59384e-06
-7.57557e-05
-1.57387e-05
-4.95153e-05
-4.17428e-05
2.98555e-05
-5.3361e-05
-5.33637e-05
2.23835e-06
-4.60349e-05
-6.68325e-05
-1.93926e-05
-3.0425e-05
-7.80168e-05
-3.90407e-05
-9.29098e-05
-6.28806e-05
-5.84573e-05
-3.62025e-05
1.41818e-05
-6.68295e-05
-4.60377e-05
-1.93929e-05
-6.02406e-05
-6.02438e-05
-5.49477e-05
-4.25244e-05
-7.16087e-05
-8.8081e-05
-8.94573e-05
-0.000132359
-6.6236e-05
-2.26783e-05
-3.5967e-06
-7.80141e-05
-3.04275e-05
-3.90419e-05
-7.16059e-05
-4.25272e-05
-8.80822e-05
-5.17735e-05
-5.17755e-05
-0.000129106
-6.87957e-05
-0.000195769
-7.57523e-05
-1.57438e-05
-9.29067e-05
-6.28823e-05
-8.94538e-05
-0.000132361
-6.87933e-05
-0.000195769
-0.000307283
-4.6986e-05
-4.69891e-05
6.55652e-05
-4.95131e-05
-6.15232e-05
4.73629e-05
-4.35372e-05
-7.98948e-05
2.90081e-05
-2.81241e-05
-9.43614e-05
9.74817e-06
-0.000113965
-9.56988e-06
-6.15202e-05
-4.95166e-05
4.73614e-05
-7.06095e-05
-7.06126e-05
2.0417e-05
-6.38404e-05
-9.39713e-05
-1.20853e-05
-4.54071e-05
-0.000114985
-3.68504e-05
-0.000144826
-7.74319e-05
-7.98916e-05
-4.35412e-05
2.90052e-05
-9.39679e-05
-6.38437e-05
-1.20856e-05
-8.8958e-05
-8.89614e-05
-6.49674e-05
-6.44762e-05
-0.000112621
-0.000114927
-0.000149057
-0.000192609
-9.43579e-05
-2.81279e-05
9.74434e-06
-0.000114982
-4.54104e-05
-3.68515e-05
-0.000112617
-6.44799e-05
-0.000114928
-9.01762e-05
-9.01792e-05
-0.000173989
-0.000119128
-0.000315888
-0.000113961
-9.57638e-06
-0.000144822
-7.74332e-05
-0.000149053
-0.000192612
-0.000119124
-0.000315888
-0.000545602
-6.55324e-05
-6.55374e-05
0.000101458
-7.64249e-05
-8.8706e-05
8.41423e-05
-7.03457e-05
-0.000118649
6.32237e-05
-5.05365e-05
-0.000142622
4.08825e-05
-0.000177851
1.02346e-05
-8.87017e-05
-7.64304e-05
8.41407e-05
-0.000107407
-0.000107411
5.78268e-05
-9.94949e-05
-0.000152555
1.39091e-05
-7.26718e-05
-0.000189323
-1.69725e-05
-0.000253526
-7.43888e-05
-0.000118643
-7.03517e-05
6.32205e-05
-0.00015255
-9.94987e-05
1.39096e-05
-0.000153575
-0.000153581
-6.2917e-05
-0.000123436
-0.000198854
-0.000135535
-0.000295456
-0.000274051
-0.000142616
-5.05428e-05
4.08784e-05
-0.000189318
-7.26746e-05
-1.69733e-05
-0.00019885
-0.00012344
-0.000135537
-0.000166159
-0.00016616
-0.000239374
-0.00027108
-0.000506313
-0.000177842
1.0223e-05
-0.000253521
-7.43869e-05
-0.000295449
-0.000274057
-0.000271078
-0.000506306
-0.00108737
-7.53168e-05
-7.53224e-05
0.000136859
-8.54878e-05
-0.000104223
0.000127378
-8.07978e-05
-0.000153346
0.000108273
-5.51848e-05
-0.000189746
9.11056e-05
-0.000268833
6.07649e-05
-0.000104218
-8.54933e-05
0.000127376
-0.00013042
-0.000130425
0.000110231
-0.000132137
-0.000207176
6.94554e-05
-0.000112311
-0.000270617
4.40726e-05
-0.000416149
-3.93663e-05
-0.00015334
-8.08026e-05
0.000108268
-0.000207171
-0.000132141
6.94558e-05
-0.000228823
-0.000228828
-1.96126e-05
-0.000196792
-0.000327277
-0.000110907
-0.000544147
-0.000342853
-0.00018974
-5.51892e-05
9.11002e-05
-0.000270611
-0.000112315
4.40715e-05
-0.000327273
-0.000196796
-0.000110906
-0.000332702
-0.000332702
-0.000228519
-0.000526317
-0.000856921
-0.000268828
6.07529e-05
-0.000416144
-3.93645e-05
-0.00054414
-0.000342859
-0.000526314
-0.000856905
-0.00214052
-9.42535e-05
-9.42626e-05
0.000199328
-0.000119711
-0.000136254
0.000200247
-0.000119886
-0.000206948
0.000193121
-9.34614e-05
-0.00027081
0.000184238
-0.000389346
0.000162248
-0.000136247
-0.00011972
0.000200245
-0.000181069
-0.000181074
0.000199875
-0.000188296
-0.000305773
0.000175507
-0.000152762
-0.000427779
0.000165509
-0.000689339
0.000107989
-0.000206936
-0.000119896
0.000193117
-0.000305765
-0.000188298
0.000175507
-0.000369873
-0.000369885
0.000108607
-0.000340723
-0.000572093
4.2565e-06
-0.00113984
-0.000232845
-0.000270802
-9.3471e-05
0.000184233
-0.000427774
-0.000152761
0.000165507
-0.000572094
-0.00034073
4.25899e-06
-0.000574981
-0.000574958
-0.000222767
-0.00131276
-0.000258147
-0.000235314
-0.000344084
-0.000420907
-0.000389331
0.000162236
-0.000689327
0.000108002
-0.00113981
-0.000232872
-0.00131277
-0.00025814
-0.000344076
-0.000235284
-0.000420855
-0.000795935
-0.00113672
-0.00113661
-0.00169451
-8.4955e-05
-8.49644e-05
0.000245839
-0.000107154
-0.000129791
0.000273594
-0.000115521
-0.000229722
0.000293667
-9.35274e-05
-0.000308247
0.000322088
-0.000555294
0.000351016
-0.000129783
-0.000107163
0.00027359
-0.000179906
-0.000179913
0.00030012
-0.000214325
-0.000363629
0.000343832
-0.000222112
-0.000497319
0.000362368
-0.00112272
0.000453421
-0.000229712
-0.000115529
0.00029366
-0.000363623
-0.00021433
0.000343835
-0.000522739
-0.000522742
0.000426836
-0.000553016
-0.000962981
0.000500196
-0.000613095
0.000708334
-0.00062376
-0.000643021
-0.000736926
-0.000308235
-9.3538e-05
0.000322081
-0.000497307
-0.000222116
0.000362364
-0.00096296
-0.000553017
0.000500187
-0.000318158
-0.000318147
0.00013869
0.000192345
0.000192342
0.000196223
-0.00036355
-0.000271797
-0.000480684
-0.000363535
-0.000271791
-0.000480647
-0.000241987
-0.00076851
-0.000178902
-0.00055528
0.000350998
-0.00112271
0.000453439
-0.000613084
0.000708266
-0.000623738
-0.000643024
-0.000736886
-0.000768502
-0.000241969
-0.0001789
-0.000668155
-0.000667971
0.000806057
0.000806073
-0.000252748
-0.000285808
-0.000266691
-0.000266692
-8.67422e-05
-8.67576e-05
0.00030868
-0.000119926
-0.00013166
0.00035757
-0.00013224
-0.00022726
0.000408875
-0.000107146
-0.000332759
0.000470043
-0.000508286
0.000550244
-0.000131651
-0.000119942
0.000357568
-0.00019012
-0.000190126
0.000417055
-0.000201286
-0.000390771
0.000518509
-0.000165117
-0.000596171
0.00058961
-0.000965752
0.000745935
-0.000227238
-0.000132261
0.000408872
-0.000390759
-0.000201278
0.000518509
-0.000542279
-0.000542328
0.000729912
-0.000514585
-0.000248927
0.000985303
-0.000423915
-0.000184873
-0.000251256
-0.000611463
0.00151482
-0.000867004
-0.000329508
-0.000478575
-0.000332747
-0.000107169
0.000470038
-0.000596168
-0.000165099
0.000589607
-0.000248918
-0.000514652
0.000985295
-0.000423915
-0.000184867
-0.000251253
-0.000318742
-0.000318597
0.000278185
-0.000333706
-0.00109649
0.000507979
0.000372267
-6.15185e-05
-0.00050827
0.000550244
-0.00096567
0.000745921
-0.000611495
0.00151483
-0.00086709
-0.000329479
-0.000478565
-0.00109612
-0.00033377
0.00050781
0.000372065
-6.14844e-05
0.000415613
0.000415512
0.000134262
-0.000511068
-0.000511133
5.68141e-05
-1.54102e-05
-1.54238e-05
0.000313239
-1.10657e-05
-4.00818e-05
0.000356292
1.05283e-07
-3.74856e-05
0.000394816
9.2256e-06
-5.03249e-05
0.000435405
1.24814e-05
0.000473224
-4.00713e-05
-1.10818e-05
0.000356291
-4.06239e-05
-4.06323e-05
0.000418158
-4.01569e-05
3.53833e-06
0.000477018
-1.06386e-05
-2.77403e-05
0.000537507
0.0001635
0.000584529
-3.7467e-05
8.17316e-08
0.000394816
3.55443e-06
-4.01614e-05
0.000477016
7.94661e-05
7.94459e-05
0.000578093
0.000126014
-2.95197e-05
0.000666044
2.1028e-05
6.46808e-05
0.000188783
6.21056e-05
0.000767769
0.000138372
0.000349977
0.000486539
-5.03124e-05
9.20328e-06
0.000435399
-2.77308e-05
-1.06405e-05
0.000537505
-2.95171e-05
0.000125986
0.000666043
2.10289e-05
6.46848e-05
0.000188785
4.18478e-06
4.21261e-06
0.000297869
-0.000365304
-0.000741406
-2.49068e-05
2.4739e-05
0.000505339
0.000147684
2.03638e-05
3.75786e-05
9.27141e-05
1.24987e-05
0.000473228
0.000163525
0.000584514
6.20922e-05
0.000767796
0.00013837
0.000349983
0.000486545
-0.000741274
-2.4939e-05
2.47154e-05
0.000505302
0.000147671
2.03508e-05
3.75645e-05
9.27015e-05
-0.00044576
-9.09994e-05
-9.09994e-05
0.000149867
0.00014986
0.000328032
-5.94164e-06
-5.95726e-06
0.000313495
-4.89382e-06
-3.18773e-06
0.000356952
-1.32546e-07
5.80075e-06
0.000378716
1.39082e-05
2.20406e-05
0.000410582
6.50203e-05
0.000415887
-3.17553e-06
-4.91074e-06
0.000356953
-3.09175e-07
-3.2185e-07
0.000412426
7.15498e-06
2.60501e-05
0.000449305
8.61921e-07
7.28584e-05
0.000492982
0.000135261
0.000515829
5.82351e-06
-1.54153e-07
0.000378718
2.60698e-05
7.14471e-06
0.000449303
7.46819e-05
7.46588e-05
0.000480872
0.00011984
0.000182863
0.000510881
0.000632886
0.000389629
2.20593e-05
1.38859e-05
0.000410579
7.28711e-05
8.54279e-07
0.000492983
0.00018288
0.000119812
0.000510881
0.000272293
0.00027228
0.000297519
-0.000117039
-0.000103621
-0.000103622
-0.000152067
0.000952623
-0.000169333
3.39472e-05
-2.262e-05
3.5325e-05
0.000232581
0.00150808
3.46469e-05
-6.29512e-05
-0.000304216
-0.0004785
-0.000852715
6.504e-05
0.000415888
0.00013528
0.000515822
0.000632908
0.000389631
0.000952621
-0.00016933
3.39778e-05
3.53315e-05
-2.26257e-05
0.000232572
0.00150808
3.46429e-05
-6.29288e-05
-0.000478516
-0.000304213
-0.000852727
0.000253962
0.000986648
0.000986651
-0.00177095
0.000365352
0.000365352
0.00071823
3.72201e-05
3.72063e-05
0.000299605
3.93905e-05
2.024e-05
0.000347778
2.86851e-05
9.82603e-06
0.000393983
7.70126e-06
-4.04542e-05
0.00044395
-0.00011914
0.00050546
2.02509e-05
3.93765e-05
0.000347779
1.16056e-05
1.15919e-05
0.00042972
-1.65372e-05
-2.27233e-05
0.000509997