FoamFile
{version 2.0; format ascii;class Cloud<passiveParticle>; location 0;object  positions;}
2
(
( 0.499976 0.499976 3.2095 ) 0 
( 0.499977 0.499976 2.86959 ) 0 
)
